Title
82294
    1SAPS     N    1   3.841   0.512  11.062  0.0506  0.5372  0.3681
    1SAPS   HN1    2   3.834   0.615  11.056  2.4208  0.7841  1.0845
    1SAPS   HN2    3   3.936   0.473  11.078 -0.2376 -0.1936  0.3437
    1SAPS   HN3    4   3.814   0.472  10.970  0.3841  1.7488 -0.2753
    1SAPS   C12    5   3.768   0.457  11.175 -0.1135 -0.5562 -0.2596
    1SAPS  H12A    6   3.747   0.352  11.165 -0.0138 -0.4630 -1.6649
    1SAPS   C13    7   3.843   0.498  11.311 -0.2806 -0.1511 -0.3793
    1SAPS  O13A    8   3.962   0.543  11.302 -0.6668  0.5739 -0.2507
    1SAPS  O13B    9   3.795   0.453  11.418  0.4337  0.1128  0.1362
    1SAPS   C11   10   3.631   0.538  11.175  0.3301  0.5133  0.6192
    1SAPS  H11A   11   3.659   0.636  11.221  1.4995  0.7472 -0.5293
    1SAPS  H11B   12   3.565   0.487  11.248  0.4784  0.0181  0.4075
    1SAPS     P   13   3.418   0.552  11.023  0.3545  0.0153  0.0824
    1SAPS   O13   14   3.364   0.453  11.122 -0.0019  0.0328  0.1363
    1SAPS   O14   15   3.355   0.683  11.024  0.3551 -0.2434  0.0329
    1SAPS   O12   16   3.569   0.569  11.045  0.0749 -0.2146 -0.3039
    1SAPS   O11   17   3.421   0.487  10.876  0.0426 -0.2224  0.4688
    1SAPS    C1   18   3.452   0.585  10.770 -0.4004  0.3654 -0.6791
    1SAPS    HA   19   3.373   0.662  10.760  0.1770  1.2806  1.3097
    1SAPS    HB   20   3.554   0.626  10.789  0.3311 -1.9909  0.8743
    1SAPS    C2   21   3.445   0.530  10.626 -0.3921  0.2403 -0.5881
    1SAPS    HS   22   3.341   0.525  10.586 -1.2415  0.9798  1.4155
    1SAPS   O21   23   3.505   0.396  10.635 -0.5183 -0.0343 -0.3358
    1SAPS   C21   24   3.445   0.296  10.573  0.3921 -0.1504 -0.2479
    1SAPS   O22   25   3.331   0.306  10.527  0.2640  0.1592 -0.4059
    1SAPS   C22   26   3.541   0.173  10.564  0.1517  0.5094 -0.1669
    1SAPS   H2R   27   3.625   0.201  10.630  0.6123 -1.0493 -0.0399
    1SAPS   H2S   28   3.495   0.085  10.613  1.0094 -0.4959 -1.1078
    1SAPS    C3   29   3.528   0.610  10.522  0.0687 -0.9162 -0.6240
    1SAPS    HX   30   3.638   0.602  10.537  0.0245 -0.2726  0.1270
    1SAPS    HY   31   3.499   0.716  10.533 -1.5928 -1.3116 -0.8905
    1SAPS   O31   32   3.488   0.566  10.387 -0.1185 -0.4467 -0.3606
    1SAPS   C31   33   3.532   0.636  10.287 -0.4441  0.2597  0.3378
    1SAPS   O32   34   3.621   0.718  10.293 -0.4526  0.2575 -0.3768
    1SAPS   C32   35   3.459   0.595  10.156  0.6553  0.4383  0.2462
    1SAPS   H2X   36   3.401   0.507  10.190  0.7987  0.1168 -0.3433
    1SAPS   H2Y   37   3.543   0.575  10.087 -1.4644  0.7293 -2.5644
    1SAPS   C23   38   3.595   0.142  10.423 -0.2434 -0.8314 -0.4596
    1SAPS   H3R   39   3.506   0.113  10.362 -0.2424 -0.5371 -0.6071
    1SAPS   H3S   40   3.666   0.058  10.432 -0.8844 -1.2245  1.3764
    1SAPS   C24   41   3.654   0.263  10.342 -0.2307  0.4149  0.0290
    1SAPS   H4R   42   3.572   0.337  10.330 -0.5205  0.0770 -0.0958
    1SAPS   H4S   43   3.672   0.232  10.237  0.8276 -0.9921  0.5978
    1SAPS   C25   44   3.771   0.320  10.406  0.1062 -0.3308 -0.0043
    1SAPS   H5R   45   3.772   0.324  10.516  1.3923  3.6845  0.0227
    1SAPS   C26   46   3.888   0.356  10.351 -0.1796 -0.4981  0.1014
    1SAPS   H6R   47   3.962   0.389  10.425 -1.3613 -0.3526  1.2531
    1SAPS   C27   48   3.924   0.355  10.208  0.6827 -0.3752  0.2491
    1SAPS   H7R   49   3.874   0.276  10.148 -3.2407  1.2997  1.0466
    1SAPS   H7S   50   4.026   0.311  10.204  0.5496 -0.6306 -1.8599
    1SAPS   C28   51   3.922   0.489  10.142 -0.1699  0.1732 -0.4474
    1SAPS   H8R   52   3.937   0.580  10.203  1.6769  1.0221 -2.0599
    1SAPS   C29   53   3.915   0.511  10.011  0.4596  0.3214  0.9224
    1SAPS   H9R   54   3.924   0.617   9.982  2.5195  0.0067  0.2380
    1SAPS  C210   55   3.901   0.409   9.899  0.7172 -0.4206  0.1477
    1SAPS  H10R   56   3.879   0.307   9.937  0.3300 -0.5909 -0.5185
    1SAPS  H10S   57   3.997   0.410   9.843  0.7073  2.1092  0.0725
    1SAPS  C211   58   3.784   0.445   9.810 -0.3361 -0.2721  0.4521
    1SAPS  H11R   59   3.696   0.479   9.866 -0.2580  0.7675 -0.0240
    1SAPS  C212   60   3.788   0.428   9.674 -0.1729  0.2770 -0.8937
    1SAPS  H12R   61   3.701   0.462   9.616 -0.5525 -0.2621 -0.6537
    1SAPS  C213   62   3.894   0.382   9.580  0.0707 -0.6166 -0.6598
    1SAPS  H13R   63   3.844   0.303   9.520 -1.1213 -0.7349  0.4468
    1SAPS  H13S   64   3.972   0.332   9.642 -1.9248 -2.3868  0.5796
    1SAPS  C214   65   3.948   0.499   9.508 -0.4534 -0.3386 -0.1866
    1SAPS  H14R   66   3.963   0.586   9.574  3.0283 -1.6534  0.9871
    1SAPS  C215   67   3.952   0.527   9.376  0.2090  0.0773  0.1846
    1SAPS  H15R   68   3.985   0.626   9.344 -1.9554  0.9457  0.4628
    1SAPS  C216   69   3.911   0.424   9.279  0.2584  0.8241 -0.7185
    1SAPS  H16R   70   3.840   0.351   9.324  1.5178  0.1823  0.2875
    1SAPS  H16S   71   4.006   0.373   9.252  0.1100  0.7214 -1.0527
    1SAPS  C217   72   3.841   0.475   9.152 -0.3832 -0.1402 -0.7452
    1SAPS  H17R   73   3.749   0.528   9.183  0.0062  0.6104 -0.8566
    1SAPS  H17S   74   3.815   0.384   9.094 -3.3226 -1.4901  2.3695
    1SAPS  C218   75   3.936   0.566   9.064  0.5316  0.2874  0.5638
    1SAPS  H18R   76   4.022   0.517   9.013  0.6000 -0.9581  1.8333
    1SAPS  H18S   77   3.985   0.637   9.134  1.6069  2.3169 -2.0684
    1SAPS  C219   78   3.855   0.648   8.957  0.1227  0.6368  0.0615
    1SAPS  H19R   79   3.766   0.695   9.004 -0.7381 -0.7739 -0.0959
    1SAPS  H19S   80   3.815   0.573   8.886 -2.9493  1.9305  0.2547
    1SAPS  C220   81   3.926   0.747   8.873 -0.2356 -0.6661  1.1353
    1SAPS  H20R   82   4.032   0.725   8.848 -0.1998 -0.1670  0.8229
    1SAPS  H20S   83   3.923   0.848   8.920 -0.9194 -0.3538  0.4474
    1SAPS  H20T   84   3.874   0.769   8.777 -1.0699  0.8574  1.8968
    1SAPS   C33   85   3.362   0.700  10.102  0.1250 -0.3918  0.4696
    1SAPS   H3X   86   3.411   0.792  10.063 -0.6457 -0.8158 -1.6865
    1SAPS   H3Y   87   3.288   0.724  10.181 -0.4051  0.9133 -0.3682
    1SAPS   C34   88   3.287   0.627   9.980  0.2944  0.6142 -0.3560
    1SAPS   H4X   89   3.202   0.696   9.963  0.4895  0.7822 -0.6389
    1SAPS   H4Y   90   3.245   0.533  10.023 -1.5882  1.8868  0.7272
    1SAPS   C35   91   3.363   0.628   9.855 -0.4090  0.0918 -0.0835
    1SAPS   H5X   92   3.446   0.556   9.872 -0.4795  0.2891  1.2236
    1SAPS   H5Y   93   3.412   0.726   9.832  0.0937 -0.1095  0.1266
    1SAPS   C36   94   3.281   0.587   9.734  0.4621 -0.4003 -0.1373
    1SAPS   H6X   95   3.225   0.679   9.705  1.0125  0.0954  0.3320
    1SAPS   H6Y   96   3.220   0.502   9.771 -0.7750  0.1243 -0.9060
    1SAPS   C37   97   3.367   0.542   9.618 -0.0043 -0.2984 -0.5911
    1SAPS   H7X   98   3.307   0.494   9.538 -0.8233 -1.4502  0.6655
    1SAPS   H7Y   99   3.434   0.457   9.643  0.2070 -0.8408 -2.7994
    1SAPS   C38  100   3.437   0.652   9.545  0.1116  0.0229 -0.3484
    1SAPS   H8X  101   3.519   0.698   9.604 -0.5627  0.2583  0.4295
    1SAPS   H8Y  102   3.358   0.726   9.517 -2.2097 -1.7776  1.0151
    1SAPS   C39  103   3.517   0.604   9.425  0.4123 -0.1290 -0.2266
    1SAPS   H9X  104   3.577   0.515   9.457 -0.0520 -0.0792  0.8458
    1SAPS   H9Y  105   3.597   0.676   9.400 -1.2240  1.4022 -1.2676
    1SAPS  C310  106   3.439   0.569   9.295 -0.3190 -0.9306  0.8575
    1SAPS  H10X  107   3.350   0.508   9.321 -0.4322 -0.9548  0.4238
    1SAPS  H10Y  108   3.527   0.518   9.249  0.3739  0.8993  0.0574
    1SAPS  C311  109   3.399   0.688   9.211 -0.0746  0.0990  0.0541
    1SAPS  H11X  110   3.482   0.761   9.197  0.2436 -0.3200 -0.2715
    1SAPS  H11Y  111   3.323   0.738   9.276 -0.5302  1.9264 -1.7724
    1SAPS  C312  112   3.337   0.666   9.072  0.0339  0.0182  0.3743
    1SAPS  H12X  113   3.328   0.768   9.028 -0.7224  0.1444  0.7946
    1SAPS  H12Y  114   3.241   0.610   9.067  0.2450 -0.2891 -0.3251
    1SAPS  C313  115   3.443   0.591   8.977  0.1506  0.3495 -0.1709
    1SAPS  H13X  116   3.475   0.489   9.009 -0.9978 -0.3651 -1.2076
    1SAPS  H13Y  117   3.543   0.638   8.985 -0.2543  1.0130  1.5625
    1SAPS  C314  118   3.392   0.582   8.836  0.2436 -0.0013 -0.2734
    1SAPS  H14X  119   3.460   0.648   8.777  1.9099 -0.2148  1.3185
    1SAPS  H14Y  120   3.289   0.623   8.833 -0.3883 -1.0883  2.9260
    1SAPS  C315  121   3.386   0.440   8.790  0.7079  0.1304 -0.2837
    1SAPS  H15X  122   3.485   0.398   8.820  0.1044 -0.6723  0.6350
    1SAPS  H15Y  123   3.365   0.447   8.681 -0.1433 -0.3607 -0.1572
    1SAPS  C316  124   3.265   0.353   8.833  0.0097  0.7247  0.5132
    1SAPS  H16X  125   3.300   0.314   8.930 -0.3995  2.7006  1.5093
    1SAPS  H16Y  126   3.262   0.267   8.762  1.4113  2.6177 -2.0152
    1SAPS  C317  127   3.125   0.419   8.821  0.1539 -0.0473 -1.1345
    1SAPS  H17X  128   3.127   0.511   8.883  1.0287 -0.4633 -0.5361
    1SAPS  H17Y  129   3.056   0.344   8.864 -2.3202  2.7834  0.2460
    1SAPS  C318  130   3.066   0.460   8.680 -0.3595 -0.4056 -0.5398
    1SAPS  H18X  131   3.101   0.387   8.604  2.0641  2.6381 -2.5925
    1SAPS  H18Y  132   3.113   0.553   8.642 -0.1957 -0.9243 -1.6581
    1SAPS  H18Z  133   2.955   0.467   8.673 -0.2171  1.7943 -1.2432
    2SAPS     N  134   3.431   0.925  11.046  0.2365  0.5338  0.0241
    2SAPS   HN1  135   3.509   0.960  10.988  1.9273  0.2356  2.0001
    2SAPS   HN2  136   3.463   0.899  11.141  2.3048 -0.1685 -0.8086
    2SAPS   HN3  137   3.388   0.836  11.012  0.0120  0.3866  0.6697
    2SAPS   C12  138   3.331   1.033  11.053  0.8049 -0.1579  0.2409
    2SAPS  H12A  139   3.258   0.997  11.124  0.9950  1.2233  1.1763
    2SAPS   C13  140   3.382   1.175  11.090  0.6440  0.1064 -0.5757
    2SAPS  O13A  141   3.503   1.208  11.093 -0.2003  0.7511  0.7205
    2SAPS  O13B  142   3.291   1.262  11.119 -0.0971  0.5207 -0.6678
    2SAPS   C11  143   3.264   1.032  10.915 -0.0394 -0.1678  0.0516
    2SAPS  H11A  144   3.349   1.069  10.854  1.5051  2.5292  3.4633
    2SAPS  H11B  145   3.188   1.112  10.921 -1.5584 -1.4370 -1.2454
    2SAPS     P  146   3.170   0.883  10.719 -0.4199  0.1816  0.1053
    2SAPS   O13  147   3.292   0.837  10.653 -0.5504 -0.3470 -0.0485
    2SAPS   O14  148   3.059   0.786  10.716  0.2964 -0.3256  0.6744
    2SAPS   O12  149   3.200   0.909  10.873  0.5419  0.3274 -0.2527
    2SAPS   O11  150   3.129   1.023  10.666  0.0144 -0.3275  0.5749
    2SAPS    C1  151   2.992   1.052  10.621  0.3816  0.5322 -0.0427
    2SAPS    HA  152   2.915   0.984  10.665 -0.5524  2.3772  1.3117
    2SAPS    HB  153   2.971   1.158  10.647  2.5774  0.8352  0.7450
    2SAPS    C2  154   2.999   1.043  10.461 -0.3723  0.3476 -0.0043
    2SAPS    HS  155   2.900   1.076  10.422 -1.2646 -1.3409  0.7634
    2SAPS   O21  156   3.010   0.910  10.420  0.2127  0.4492  0.1719
    2SAPS   C21  157   2.912   0.819  10.445 -0.1587  0.1868  0.1991
    2SAPS   O22  158   2.804   0.851  10.487  0.3196  0.3722 -0.1275
    2SAPS   C22  159   2.965   0.680  10.413  0.1617  0.5428  0.4328
    2SAPS   H2R  160   3.041   0.662  10.491 -0.1041 -0.5204  0.4644
    2SAPS   H2S  161   2.882   0.606  10.409  0.5215  0.1664 -0.2656
    2SAPS    C3  162   3.113   1.128  10.399 -0.1135  0.1462 -0.3406
    2SAPS    HX  163   3.211   1.078  10.410  0.5046  1.2343 -0.7418
    2SAPS    HY  164   3.118   1.226  10.451 -1.1931  0.0657 -0.0507
    2SAPS   O31  165   3.094   1.151  10.261  0.7759 -0.3772  0.0222
    2SAPS   C31  166   3.147   1.069  10.167  0.0788 -0.1648  0.0611
    2SAPS   O32  167   3.227   0.981  10.184 -1.0224 -0.1855 -0.1893
    2SAPS   C32  168   3.058   1.093  10.045 -0.7047  0.0467 -0.2089
    2SAPS   H2X  169   3.044   1.202  10.029  1.0547  0.2726 -0.3422
    2SAPS   H2Y  170   2.968   1.033  10.073 -0.7521 -0.3317 -1.1198
    2SAPS   C23  171   3.037   0.675  10.281 -0.2263  0.4979  0.1288
    2SAPS   H3R  172   3.081   0.574  10.295 -2.5133 -0.4204  1.0806
    2SAPS   H3S  173   3.124   0.745  10.282  0.2058  0.0998  3.5939
    2SAPS   C24  174   2.951   0.697  10.148 -0.1627  0.5496 -0.0631
    2SAPS   H4R  175   3.027   0.693  10.066  1.0386  1.6195  0.9513
    2SAPS   H4S  176   2.906   0.798  10.152 -2.0441 -0.2874  1.5437
    2SAPS   C25  177   2.837   0.597  10.122 -0.0118 -0.8752 -0.2730
    2SAPS   H5R  178   2.771   0.570  10.205  0.6344 -2.1256 -0.1436
    2SAPS   C26  179   2.815   0.529  10.014  0.2849  0.3923 -0.0413
    2SAPS   H6R  180   2.721   0.474  10.009 -0.6963  1.8359  1.4630
    2SAPS   C27  181   2.890   0.524   9.879 -0.4602  0.0876  0.7838
    2SAPS   H7R  182   2.862   0.434   9.820 -0.3463 -0.1553  1.0984
    2SAPS   H7S  183   2.998   0.509   9.904 -0.0673 -0.3621 -1.0629
    2SAPS   C28  184   2.889   0.655   9.791 -0.2847 -0.2156 -0.4746
    2SAPS   H8R  185   2.897   0.748   9.849  0.9413 -1.1862  0.9964
    2SAPS   C29  186   2.879   0.654   9.656 -0.2205 -0.3897  0.3047
    2SAPS   H9R  187   2.859   0.751   9.607  1.4403  0.0382  0.4281
    2SAPS  C210  188   2.886   0.544   9.561  0.2169  0.4318  0.4149
    2SAPS  H10R  189   2.793   0.536   9.502  1.6728 -1.4334 -1.8121
    2SAPS  H10S  190   2.885   0.448   9.617 -2.0881 -0.6089 -1.2822
    2SAPS  C211  191   3.015   0.540   9.483 -0.5604  0.2474 -0.2082
    2SAPS  H11R  192   3.110   0.551   9.537  0.6130  0.1751 -2.1698
    2SAPS  C212  193   3.027   0.509   9.353 -0.0371  0.3629  0.4551
    2SAPS  H12R  194   3.121   0.525   9.297 -0.8769  2.3926 -0.4571
    2SAPS  C213  195   2.906   0.476   9.268  0.1777 -0.1791 -0.0914
    2SAPS  H13R  196   2.817   0.538   9.292 -1.5670 -2.6717  0.3032
    2SAPS  H13S  197   2.876   0.370   9.286  3.2104 -1.2893 -0.9407
    2SAPS  C214  198   2.928   0.502   9.125  0.1910 -0.1638  0.0855
    2SAPS  H14R  199   3.032   0.522   9.096  0.3393  2.1599  1.9054
    2SAPS  C215  200   2.826   0.502   9.039 -0.5734 -0.2628  0.2860
    2SAPS  H15R  201   2.860   0.529   8.937  1.4196 -1.2262  0.6595
    2SAPS  C216  202   2.683   0.476   9.068 -0.2256 -0.2862 -0.7790
    2SAPS  H16R  203   2.641   0.577   9.090  1.5147  0.7722 -2.0233
    2SAPS  H16S  204   2.682   0.410   9.157 -1.0092 -0.2140 -0.7256
    2SAPS  C217  205   2.610   0.404   8.956  0.1708 -0.2870  0.2857
    2SAPS  H17R  206   2.513   0.378   9.005 -1.3280 -0.1375 -2.3995
    2SAPS  H17S  207   2.670   0.316   8.925  1.0371 -0.0202  1.1732
    2SAPS  C218  208   2.560   0.486   8.838 -0.2911  0.5132 -0.5915
    2SAPS  H18R  209   2.649   0.528   8.785  1.8555 -1.3873  1.2692
    2SAPS  H18S  210   2.506   0.576   8.874 -1.0973 -0.5811  1.0402
    2SAPS  C219  211   2.482   0.417   8.736  0.2773  0.1549 -0.3790
    2SAPS  H19R  212   2.381   0.393   8.778 -0.1913 -0.2740 -1.7207
    2SAPS  H19S  213   2.532   0.321   8.713 -1.0325 -1.6097  3.2105
    2SAPS  C220  214   2.472   0.495   8.612 -0.6941  0.5864  0.1135
    2SAPS  H20R  215   2.573   0.527   8.578 -0.3632 -1.7852 -1.3923
    2SAPS  H20S  216   2.397   0.576   8.627 -0.8948  0.2993  0.6792
    2SAPS  H20T  217   2.427   0.425   8.539 -1.4351 -0.6181  1.6726
    2SAPS   C33  218   3.120   1.041   9.917  0.2187 -0.0705  0.0670
    2SAPS   H3X  219   3.124   0.931   9.932 -1.7248 -0.0523  1.0615
    2SAPS   H3Y  220   3.222   1.081   9.897  0.5539 -0.5238  0.8463
    2SAPS   C34  221   3.026   1.061   9.798 -0.6730  0.0007  0.3982
    2SAPS   H4X  222   3.041   1.167   9.769 -2.3799 -0.1941 -1.3530
    2SAPS   H4Y  223   2.919   1.042   9.819 -1.3332  0.7938 -1.9138
    2SAPS   C35  224   3.084   0.975   9.685  0.5945 -0.3161 -0.3712
    2SAPS   H5X  225   3.071   0.866   9.701 -0.7923 -0.0622  0.3927
    2SAPS   H5Y  226   3.194   0.994   9.680  0.5080  0.1303 -0.6351
    2SAPS   C36  227   3.026   1.011   9.548  0.2029 -0.1639 -0.5114
    2SAPS   H6X  228   3.019   1.122   9.543  1.6063  0.0098  0.4698
    2SAPS   H6Y  229   2.925   0.968   9.538 -0.1267  0.6132 -0.6345
    2SAPS   C37  230   3.124   0.962   9.437 -0.5022  0.0780 -0.3089
    2SAPS   H7X  231   3.149   0.856   9.459  0.1697  0.4971  1.1092
    2SAPS   H7Y  232   3.215   1.026   9.442 -0.4734  0.0067  0.1804
    2SAPS   C38  233   3.074   0.983   9.293  0.0569  0.5703  0.1382
    2SAPS   H8X  234   3.154   0.979   9.216  0.1152 -0.4023  0.2491
    2SAPS   H8Y  235   3.045   1.091   9.294  0.1242  0.5891  0.0751
    2SAPS   C39  236   2.953   0.890   9.264 -0.0543  0.6544  0.3678
    2SAPS   H9X  237   2.879   0.883   9.347 -0.8585 -0.4926 -0.4100
    2SAPS   H9Y  238   2.981   0.784   9.249 -3.5396 -0.3597  0.2407
    2SAPS  C310  239   2.877   0.929   9.134 -0.8637  0.1318 -0.7804
    2SAPS  H10X  240   2.837   1.031   9.154  1.2640  1.0714 -1.0279
    2SAPS  H10Y  241   2.789   0.867   9.108 -1.2469  0.3338 -0.0148
    2SAPS  C311  242   2.968   0.928   9.011 -0.1069  0.0921  0.5403
    2SAPS  H11X  243   3.032   0.837   9.008  0.1083  0.2219 -3.3428
    2SAPS  H11Y  244   3.045   1.008   9.017  1.2947 -1.0230 -1.5091
    2SAPS  C312  245   2.892   0.953   8.881  0.3921  0.2347 -0.0615
    2SAPS  H12X  246   2.837   1.049   8.882 -0.7825 -0.3979 -1.1244
    2SAPS  H12Y  247   2.810   0.879   8.869  0.1184  0.2940  1.2668
    2SAPS  C313  248   2.982   0.954   8.755 -0.0343 -0.0004 -0.4712
    2SAPS  H13X  249   2.999   0.850   8.721  1.8781 -0.4504  1.6269
    2SAPS  H13Y  250   3.085   0.981   8.787 -0.6098  2.2870 -0.3601
    2SAPS  C314  251   2.937   1.033   8.634 -0.2383 -0.7113  0.2180
    2SAPS  H14X  252   2.837   0.994   8.605 -0.2321 -0.0864 -0.6879
    2SAPS  H14Y  253   2.999   1.014   8.544  3.2754  3.1615  1.5149
    2SAPS  C315  254   2.908   1.185   8.647 -0.1146 -0.4309 -1.2606
    2SAPS  H15X  255   2.993   1.237   8.696 -0.0157 -0.8198 -1.0139
    2SAPS  H15Y  256   2.832   1.201   8.726  1.2810  1.4649 -0.2371
    2SAPS  C316  257   2.868   1.263   8.517  0.6244 -0.3430 -0.5062
    2SAPS  H16X  258   2.850   1.371   8.540  1.2529  0.2836 -2.7764
    2SAPS  H16Y  259   2.776   1.219   8.473  0.3412  2.2328 -2.7576
    2SAPS  C317  260   2.977   1.278   8.414 -0.5532  0.2219  0.3429
    2SAPS  H17X  261   2.979   1.181   8.361  1.9184  0.7413 -0.6336
    2SAPS  H17Y  262   3.075   1.294   8.463 -1.1701 -0.0039  1.7007
    2SAPS  C318  263   2.945   1.388   8.307  0.4585  0.9954 -0.7521
    2SAPS  H18X  264   2.850   1.359   8.257  0.7677 -2.5262  0.4800
    2SAPS  H18Y  265   3.027   1.401   8.232 -0.2602 -0.5886 -1.8715
    2SAPS  H18Z  266   2.931   1.488   8.354 -0.0317 -0.2716  1.9913
    3SAPS     N  267   5.353   3.509  10.797 -0.7023  0.2351 -0.6199
    3SAPS   HN1  268   5.334   3.408  10.810  3.9534 -0.6628  1.0023
    3SAPS   HN2  269   5.266   3.563  10.776  0.2466  2.3942  0.6504
    3SAPS   HN3  270   5.419   3.519  10.717  1.4296  1.3950  1.1681
    3SAPS   C12  271   5.431   3.556  10.924  0.1718 -0.1190  0.2414
    3SAPS  H12A  272   5.373   3.546  11.014 -0.8969  0.4900 -0.3602
    3SAPS   C13  273   5.563   3.472  10.956 -0.0690  0.4718  0.7883
    3SAPS  O13A  274   5.622   3.490  11.067 -0.4250 -0.2416  0.1390
    3SAPS  O13B  275   5.573   3.361  10.903  0.0950 -0.8036 -0.0395
    3SAPS   C11  276   5.457   3.712  10.913  0.0314 -0.1584 -0.3012
    3SAPS  H11A  277   5.507   3.721  10.814  0.5412  0.1866 -0.0093
    3SAPS  H11B  278   5.516   3.743  11.001  1.3113 -0.5670 -0.9792
    3SAPS     P  279   5.323   3.936  10.894 -0.2727 -0.0314 -0.0250
    3SAPS   O13  280   5.184   3.971  10.910  0.2361  0.1332  0.4017
    3SAPS   O14  281   5.419   4.004  10.985  0.7433 -0.1825  0.0536
    3SAPS   O12  282   5.331   3.777  10.918 -0.2524 -0.2315  0.4430
    3SAPS   O11  283   5.372   3.958  10.744  0.1086  0.3822  0.1885
    3SAPS    C1  284   5.367   3.859  10.639  0.8251 -0.7323 -0.0996
    3SAPS    HA  285   5.462   3.854  10.581  1.7805  0.9311  1.1947
    3SAPS    HB  286   5.355   3.752  10.668 -0.1995 -1.2023 -2.1154
    3SAPS    C2  287   5.266   3.892  10.532 -0.3072  0.6601  0.4047
    3SAPS    HS  288   5.271   3.807  10.460 -1.2594  1.5254 -0.7145
    3SAPS   O21  289   5.300   4.011  10.467  0.1597 -0.5572  0.0037
    3SAPS   C21  290   5.388   4.004  10.364 -0.0135  0.2374 -0.7999
    3SAPS   O22  291   5.436   3.900  10.324  0.1620  0.3827  0.0227
    3SAPS   C22  292   5.411   4.138  10.303 -0.3247 -0.0714 -0.0019
    3SAPS   H2R  293   5.312   4.172  10.264 -1.2415 -1.2554  1.1943
    3SAPS   H2S  294   5.444   4.202  10.387  0.5333 -3.0553  2.0895
    3SAPS    C3  295   5.123   3.910  10.579 -0.0286 -0.4546 -0.5950
    3SAPS    HX  296   5.120   4.010  10.627  0.4092 -0.6502 -0.1433
    3SAPS    HY  297   5.113   3.834  10.659  3.2964  0.1050  0.5271
    3SAPS   O31  298   5.034   3.895  10.461  0.1796 -0.0267 -0.4218
    3SAPS   C31  299   4.917   3.957  10.461  0.4860  0.1450  0.4504
    3SAPS   O32  300   4.882   4.026  10.554 -0.6676  0.3775 -0.2381
    3SAPS   C32  301   4.833   3.939  10.334 -0.2984  0.4605 -0.0769
    3SAPS   H2X  302   4.724   3.922  10.345 -0.2868  0.5454  0.1675
    3SAPS   H2Y  303   4.863   3.845  10.283 -0.9806 -1.0373  2.1698
    3SAPS   C23  304   5.519   4.134  10.191  0.0661  0.5192 -0.0458
    3SAPS   H3R  305   5.476   4.095  10.096  0.7016  0.5661 -0.3592
    3SAPS   H3S  306   5.604   4.068  10.219  0.9592  1.3609 -0.7079
    3SAPS   C24  307   5.588   4.271  10.165  0.5831  0.2027  0.4164
    3SAPS   H4R  308   5.657   4.256  10.079  1.8678 -0.4381  1.5261
    3SAPS   H4S  309   5.651   4.295  10.253 -1.4304  0.4494  1.8631
    3SAPS   C25  310   5.489   4.388  10.138 -0.0738 -0.6322 -0.3384
    3SAPS   H5R  311   5.448   4.440  10.226  1.6938  2.7973 -1.3256
    3SAPS   C26  312   5.450   4.439  10.020 -0.1504 -0.1496 -0.5669
    3SAPS   H6R  313   5.372   4.517  10.026 -0.5134 -0.5934  0.8620
    3SAPS   C27  314   5.483   4.389   9.878 -0.6249  0.4153  0.2886
    3SAPS   H7R  315   5.590   4.365   9.868 -0.3734  0.4624  2.2924
    3SAPS   H7S  316   5.474   4.472   9.805  0.4527 -0.2588 -0.6436
    3SAPS   C28  317   5.391   4.273   9.845 -0.1894  0.4760  0.3208
    3SAPS   H8R  318   5.354   4.219   9.933  1.6366 -0.1366  0.7438
    3SAPS   C29  319   5.357   4.223   9.726 -0.1478 -0.2627  0.0492
    3SAPS   H9R  320   5.290   4.136   9.730 -0.9752  0.4294  2.1396
    3SAPS  C210  321   5.389   4.270   9.581  0.2708  0.2268 -0.2179
    3SAPS  H10R  322   5.448   4.197   9.523  0.8586  2.7657 -3.0676
    3SAPS  H10S  323   5.444   4.365   9.599 -1.2213  1.0939 -0.0840
    3SAPS  C211  324   5.267   4.319   9.513  0.3885  0.2267  0.4657
    3SAPS  H11R  325   5.176   4.333   9.574 -0.5025  0.6803 -0.9246
    3SAPS  C212  326   5.259   4.352   9.385  0.2389  0.7007 -0.4581
    3SAPS  H12R  327   5.163   4.390   9.347 -0.2362  1.1613  1.1168
    3SAPS  C213  328   5.374   4.345   9.284 -0.3448 -0.7568  0.1979
    3SAPS  H13R  329   5.350   4.278   9.199 -0.9124 -1.0672  0.5897
    3SAPS  H13S  330   5.465   4.311   9.338 -0.8723 -0.7829  1.0978
    3SAPS  C214  331   5.394   4.483   9.231  0.5521  0.1679  0.3761
    3SAPS  H14R  332   5.415   4.556   9.311  0.6736  1.2630 -0.6418
    3SAPS  C215  333   5.394   4.526   9.106 -0.7914  0.0358 -0.3306
    3SAPS  H15R  334   5.395   4.636   9.095 -2.0268  0.3221  1.8771
    3SAPS  C216  335   5.378   4.448   8.982  0.7023  0.4919 -0.4605
    3SAPS  H16R  336   5.412   4.345   9.004  1.0806  0.6764 -0.1648
    3SAPS  H16S  337   5.450   4.485   8.906  1.7497  0.7419  0.6234
    3SAPS  C217  338   5.230   4.460   8.929 -0.9299 -0.8330 -0.6304
    3SAPS  H17R  339   5.211   4.568   8.912  5.2995  0.7236 -0.0841
    3SAPS  H17S  340   5.162   4.426   9.010  2.4725 -0.5015  2.6345
    3SAPS  C218  341   5.198   4.381   8.806 -0.6376 -0.9031  0.1623
    3SAPS  H18R  342   5.196   4.277   8.845 -0.7732 -0.3974  1.5903
    3SAPS  H18S  343   5.267   4.404   8.722 -2.0355  2.5411 -0.1985
    3SAPS  C219  344   5.066   4.421   8.754 -0.7510  0.2245 -1.3863
    3SAPS  H19R  345   5.089   4.522   8.713  1.4844  0.1212 -0.5339
    3SAPS  H19S  346   4.999   4.430   8.842 -1.3879  2.2693 -2.0348
    3SAPS  C220  347   5.005   4.320   8.660  0.3271  0.2904  0.0417
    3SAPS  H20R  348   5.085   4.282   8.593  1.2728  0.3324  1.0952
    3SAPS  H20S  349   4.909   4.348   8.612  0.5307  0.0733 -0.4998
    3SAPS  H20T  350   4.973   4.232   8.720 -2.8072  0.6364 -0.9706
    3SAPS   C33  351   4.862   4.051  10.233  0.5654  0.1179 -0.5283
    3SAPS   H3X  352   4.969   4.066  10.206  0.0153 -0.8087 -3.6181
    3SAPS   H3Y  353   4.820   4.147  10.269 -1.2988 -0.7610 -0.2561
    3SAPS   C34  354   4.800   4.010  10.092  0.0722 -0.0449 -0.8280
    3SAPS   H4X  355   4.689   4.016  10.098  0.1351  0.4901  0.1392
    3SAPS   H4Y  356   4.850   3.920  10.050  2.2221  0.3946  0.6037
    3SAPS   C35  357   4.840   4.112   9.977  0.2402 -0.0567  0.2517
    3SAPS   H5X  358   4.942   4.101   9.934 -0.4818 -0.5967 -1.4230
    3SAPS   H5Y  359   4.841   4.214  10.021  1.1447 -0.8562  2.2199
    3SAPS   C36  360   4.747   4.111   9.854 -0.7012  0.5744 -0.1813
    3SAPS   H6X  361   4.769   4.203   9.795 -1.6300  1.0895  0.2398
    3SAPS   H6Y  362   4.643   4.138   9.883 -0.7046  0.4522 -0.0801
    3SAPS   C37  363   4.756   3.979   9.776  0.2917  0.9118  0.4768
    3SAPS   H7X  364   4.709   3.899   9.837  1.3541 -1.4975 -1.6626
    3SAPS   H7Y  365   4.865   3.954   9.773  0.1908  0.2321  1.6583
    3SAPS   C38  366   4.683   3.984   9.636  0.2040 -0.5591  0.4117
    3SAPS   H8X  367   4.733   4.070   9.587  1.2810 -0.1748  2.0903
    3SAPS   H8Y  368   4.576   4.016   9.643  0.3606  0.4148 -1.1530
    3SAPS   C39  369   4.673   3.854   9.556  0.1066 -0.5191  0.0035
    3SAPS   H9X  370   4.602   3.788   9.611  0.0314  0.4556  1.1155
    3SAPS   H9Y  371   4.779   3.823   9.545 -0.1657 -1.5437  0.2408
    3SAPS  C310  372   4.612   3.868   9.411  0.8343  0.2936 -0.5416
    3SAPS  H10X  373   4.506   3.892   9.431  0.2719 -2.4855  0.2660
    3SAPS  H10Y  374   4.614   3.768   9.363  0.1425  0.0622 -0.0957
    3SAPS  C311  375   4.678   3.977   9.326 -0.3628 -0.5645  0.2888
    3SAPS  H11X  376   4.787   3.965   9.345 -0.6608 -0.1839  2.4644
    3SAPS  H11Y  377   4.653   4.079   9.362 -1.6677 -0.2246 -1.4671
    3SAPS  C312  378   4.638   3.948   9.189 -0.2337 -0.2498  0.6749
    3SAPS  H12X  379   4.527   3.952   9.185 -0.1723  2.6426 -1.4235
    3SAPS  H12Y  380   4.670   3.844   9.168 -0.8101 -0.0799 -1.3660
    3SAPS  C313  381   4.705   4.025   9.082 -0.7115  0.5335 -0.7568
    3SAPS  H13X  382   4.729   3.972   8.987  1.1476  0.8481 -0.5036
    3SAPS  H13Y  383   4.805   4.050   9.122 -0.9199  0.1670 -0.0031
    3SAPS  C314  384   4.631   4.151   9.047 -0.3246  0.0685 -0.1972
    3SAPS  H14X  385   4.614   4.194   9.148  0.7039  1.2254 -0.4889
    3SAPS  H14Y  386   4.534   4.137   8.996 -0.3299 -1.2119  0.1496
    3SAPS  C315  387   4.720   4.242   8.961  0.4140 -0.0223 -0.4715
    3SAPS  H15X  388   4.711   4.205   8.857 -0.9246 -1.6721  0.1737
    3SAPS  H15Y  389   4.824   4.255   8.997  0.3983 -0.9271 -0.0684
    3SAPS  C316  390   4.650   4.386   8.951  0.5672 -0.5970  0.0790
    3SAPS  H16X  391   4.626   4.421   9.054 -0.0123 -0.4598 -0.1018
    3SAPS  H16Y  392   4.551   4.376   8.903 -0.1620 -0.3052  1.4789
    3SAPS  C317  393   4.729   4.505   8.880 -0.2682 -0.2551 -0.1957
    3SAPS  H17X  394   4.743   4.467   8.776  1.2308 -0.8159  0.1967
    3SAPS  H17Y  395   4.824   4.518   8.936  1.1112  0.4501 -2.5397
    3SAPS  C318  396   4.655   4.641   8.881  0.4073 -1.2530  0.2015
    3SAPS  H18X  397   4.614   4.673   8.979 -1.7723  0.9685 -1.3178
    3SAPS  H18Y  398   4.570   4.640   8.809  0.7836  1.7933 -0.4411
    3SAPS  H18Z  399   4.730   4.718   8.853  2.1086 -2.2231  1.8509
    4SAPS     N  400   3.659   6.148  11.087  0.3811 -0.0240  0.1349
    4SAPS   HN1  401   3.683   6.249  11.092  3.1410 -0.6462  1.3302
    4SAPS   HN2  402   3.637   6.121  10.989  1.9132 -1.1451  0.0688
    4SAPS   HN3  403   3.572   6.139  11.144  0.2964 -2.5687 -0.2666
    4SAPS   C12  404   3.768   6.070  11.148  0.3029 -0.1582  0.6147
    4SAPS  H12A  405   3.768   6.088  11.254  0.8627  0.6590  0.4868
    4SAPS   C13  406   3.761   5.914  11.138  0.6352  0.7120  0.3844
    4SAPS  O13A  407   3.658   5.860  11.089 -0.2341 -0.2889 -0.0050
    4SAPS  O13B  408   3.861   5.852  11.183  0.0363  0.1048 -0.3012
    4SAPS   C11  409   3.894   6.118  11.071  0.0416 -0.1559  0.4164
    4SAPS  H11A  410   3.901   6.074  10.969  0.5834 -0.4427  0.5725
    4SAPS  H11B  411   3.977   6.063  11.120 -0.6786 -1.9587 -0.2844
    4SAPS     P  412   4.037   6.351  11.046 -0.4101  0.0220 -0.2390
    4SAPS   O13  413   3.990   6.485  11.002  0.1115 -0.0575  0.0836
    4SAPS   O14  414   4.126   6.345  11.167  0.2333 -0.5486  0.4436
    4SAPS   O12  415   3.915   6.258  11.074  0.5460  0.0672 -0.2464
    4SAPS   O11  416   4.110   6.264  10.930 -0.0760  0.7297 -0.2402
    4SAPS    C1  417   4.186   6.343  10.840 -0.6804  0.2690 -0.3251
    4SAPS    HA  418   4.255   6.416  10.888  1.0160 -1.1120 -0.5461
    4SAPS    HB  419   4.257   6.267  10.802 -1.2460 -1.5026  1.9384
    4SAPS    C2  420   4.102   6.406  10.721  0.0787  0.2099 -0.5573
    4SAPS    HS  421   4.013   6.452  10.769  0.8800  0.7573  0.4352
    4SAPS   O21  422   4.074   6.299  10.630 -0.3979  0.1807 -0.4605
    4SAPS   C21  423   3.962   6.242  10.643  0.3880 -0.0258 -0.1345
    4SAPS   O22  424   3.879   6.256  10.733  0.0199  0.3819 -0.5344
    4SAPS   C22  425   3.925   6.157  10.531 -1.0548 -0.1960 -0.0651
    4SAPS   H2R  426   4.006   6.118  10.465 -0.6086  0.4847  0.0723
    4SAPS   H2S  427   3.867   6.070  10.569  1.8591 -2.7521 -1.0422
    4SAPS    C3  428   4.180   6.519  10.651  0.2708  0.2834  0.0024
    4SAPS    HX  429   4.281   6.487  10.618  1.1872  1.3135  1.6723
    4SAPS    HY  430   4.201   6.580  10.742  0.5740 -2.0196  1.5652
    4SAPS   O31  431   4.098   6.591  10.551 -0.2048 -0.1639  0.0823
    4SAPS   C31  432   4.150   6.713  10.513  0.1618 -0.4839 -0.4772
    4SAPS   O32  433   4.258   6.762  10.555  0.5438  0.9655  0.1485
    4SAPS   C32  434   4.057   6.787  10.417 -1.1609  0.2774 -0.6348
    4SAPS   H2X  435   4.092   6.892  10.410  0.7848 -0.3356 -0.9069
    4SAPS   H2Y  436   3.955   6.786  10.460  0.0292  0.3485  2.5266
    4SAPS   C23  437   3.829   6.234  10.440  0.1170 -0.3547 -0.5636
    4SAPS   H3R  438   3.728   6.231  10.486  1.1735 -0.6728  1.8485
    4SAPS   H3S  439   3.809   6.172  10.350  0.9814 -1.8761  0.2679
    4SAPS   C24  440   3.882   6.370  10.386 -0.4949  0.1457 -0.2127
    4SAPS   H4R  441   3.905   6.431  10.476 -0.0368  0.0758 -0.2772
    4SAPS   H4S  442   3.805   6.424  10.328 -1.8502 -3.6376 -2.2914
    4SAPS   C25  443   4.006   6.331  10.305 -0.6925  0.1806 -0.1613
    4SAPS   H5R  444   4.098   6.319  10.364  0.8479  2.7526 -1.8549
    4SAPS   C26  445   4.021   6.318  10.171 -0.4787  0.6149 -0.0776
    4SAPS   H6R  446   4.121   6.289  10.134 -0.3905  0.1853  0.4810
    4SAPS   C27  447   3.909   6.343  10.077  0.2553  0.9492  0.9311
    4SAPS   H7R  448   3.928   6.442  10.031 -0.8091  1.5227  1.6576
    4SAPS   H7S  449   3.809   6.354  10.125 -0.9116  0.7764 -1.3440
    4SAPS   C28  450   3.895   6.235   9.971  0.7357 -0.3149 -0.4447
    4SAPS   H8R  451   3.910   6.139  10.022  1.7463  1.6354  3.3113
    4SAPS   C29  452   3.869   6.242   9.834  0.6140 -0.1032 -0.5027
    4SAPS   H9R  453   3.857   6.153   9.771 -2.0721 -0.9935  1.1119
    4SAPS  C210  454   3.840   6.368   9.755 -0.5976 -0.5982  0.1483
    4SAPS  H10R  455   3.831   6.455   9.824  1.3214 -0.4696  0.3034
    4SAPS  H10S  456   3.736   6.352   9.720 -0.9627  1.4464  0.1724
    4SAPS  C211  457   3.950   6.391   9.651  0.5176  0.3436 -0.2640
    4SAPS  H11R  458   4.049   6.367   9.691  0.2223 -1.8173 -0.7198
    4SAPS  C212  459   3.940   6.426   9.519  0.0095  0.1207  0.3368
    4SAPS  H12R  460   4.026   6.425   9.451  0.0171 -1.3652  0.3268
    4SAPS  C213  461   3.814   6.454   9.449  0.5968 -0.4085  0.9068
    4SAPS  H13R  462   3.732   6.446   9.524 -2.3610  0.0967 -2.0712
    4SAPS  H13S  463   3.802   6.376   9.372 -0.5434  0.7901 -0.1780
    4SAPS  C214  464   3.807   6.603   9.397  0.2326  0.5773  0.3040
    4SAPS  H14R  465   3.790   6.679   9.474 -0.2072 -0.3313  1.1311
    4SAPS  C215  466   3.784   6.631   9.269  0.1471 -0.4351 -0.6731
    4SAPS  H15R  467   3.780   6.735   9.235  1.8609 -0.4426 -0.9928
    4SAPS  C216  468   3.765   6.534   9.154  0.0656 -0.2729  0.3402
    4SAPS  H16R  469   3.657   6.544   9.130  0.2493  2.0457  0.2631
    4SAPS  H16S  470   3.795   6.431   9.182 -3.1814 -1.1363  1.0226
    4SAPS  C217  471   3.847   6.575   9.029 -0.0229  0.4161  0.5572
    4SAPS  H17R  472   3.955   6.584   9.057  0.9734  0.8682 -2.9418
    4SAPS  H17S  473   3.819   6.676   8.993  0.4352  1.0073  1.7910
    4SAPS  C218  474   3.841   6.470   8.917 -0.0044 -0.2201  0.1202
    4SAPS  H18R  475   3.738   6.457   8.878 -0.8141  0.3079  1.9627
    4SAPS  H18S  476   3.873   6.370   8.953  1.7285  0.4130  0.4482
    4SAPS  C219  477   3.937   6.507   8.798 -0.1478 -0.4409  0.5943
    4SAPS  H19R  478   3.948   6.429   8.720 -0.3746 -1.5423  1.6432
    4SAPS  H19S  479   4.035   6.526   8.848 -0.0326 -1.4014  0.7433
    4SAPS  C220  480   3.895   6.641   8.736 -0.1399 -0.1996 -0.2183
    4SAPS  H20R  481   3.964   6.658   8.650 -0.5179 -3.0857 -1.2069
    4SAPS  H20S  482   3.887   6.721   8.813  0.5668  0.6646 -1.0297
    4SAPS  H20T  483   3.791   6.627   8.701 -0.0720  2.1326 -1.5014
    4SAPS   C33  484   4.067   6.719  10.281 -0.5364  0.0075 -0.1221
    4SAPS   H3X  485   3.996   6.633  10.286 -1.1947  0.5835  0.6167
    4SAPS   H3Y  486   4.169   6.683  10.253 -0.3006  1.5680 -1.4600
    4SAPS   C34  487   4.014   6.815  10.171 -0.0416  0.1470 -0.6927
    4SAPS   H4X  488   4.079   6.903  10.190  0.7312 -0.4589 -0.4611
    4SAPS   H4Y  489   3.908   6.838  10.195  0.7921  0.1168  3.9849
    4SAPS   C35  490   4.026   6.773  10.030  0.3394  0.1642  0.4596
    4SAPS   H5X  491   3.970   6.678  10.020  0.7989  0.0865 -2.1985
    4SAPS   H5Y  492   4.130   6.744  10.004  0.9222  3.2030 -0.9921
    4SAPS   C36  493   3.977   6.881   9.930 -0.1817 -0.1017 -0.0665
    4SAPS   H6X  494   4.041   6.967   9.958  1.7989 -0.9548 -1.6823
    4SAPS   H6Y  495   3.870   6.895   9.957 -0.1628  2.6607 -1.0806
    4SAPS   C37  496   4.000   6.855   9.780 -0.1168  0.2082  0.1428
    4SAPS   H7X  497   3.953   6.941   9.729 -1.3897  0.4668  1.6719
    4SAPS   H7Y  498   3.945   6.762   9.752  2.6181 -0.7188 -2.6511
    4SAPS   C38  499   4.145   6.829   9.750 -0.0839 -0.0697  0.1402
    4SAPS   H8X  500   4.188   6.732   9.782  2.1195 -0.0524 -2.4124
    4SAPS   H8Y  501   4.207   6.907   9.799 -0.6954  1.0368 -0.7696
    4SAPS   C39  502   4.172   6.848   9.595  0.1078  1.0958 -0.1200
    4SAPS   H9X  503   4.281   6.849   9.576 -0.0157 -0.1831 -1.0886
    4SAPS   H9Y  504   4.133   6.948   9.568 -0.7013  1.0875  0.9475
    4SAPS  C310  505   4.095   6.755   9.507 -0.0792  0.4248  0.0341
    4SAPS  H10X  506   3.986   6.774   9.524  0.2518  1.2493  1.3662
    4SAPS  H10Y  507   4.123   6.649   9.526  4.8033  0.7470 -3.6298
    4SAPS  C311  508   4.122   6.781   9.360 -0.0731 -0.6136  0.3633
    4SAPS  H11X  509   4.090   6.694   9.298 -0.4406 -0.4138  0.2695
    4SAPS  H11Y  510   4.233   6.786   9.355  0.0135  0.7490  2.4641
    4SAPS  C312  511   4.056   6.899   9.287  0.0076  0.0762  0.0992
    4SAPS  H12X  512   4.076   6.990   9.347 -0.2072 -1.0015  1.8451
    4SAPS  H12Y  513   3.945   6.889   9.293 -0.3014  2.4600 -0.2810
    4SAPS  C313  514   4.098   6.909   9.142 -0.1596 -0.1764  0.1413
    4SAPS  H13X  515   4.084   6.812   9.090 -1.8138  0.4239 -0.6288
    4SAPS  H13Y  516   4.202   6.946   9.126 -0.2858  0.3140  0.4142
    4SAPS  C314  517   4.010   6.987   9.048  0.7411  0.0724 -0.4181
    4SAPS  H14X  518   4.019   7.094   9.076 -2.3617  0.2372  0.4032
    4SAPS  H14Y  519   3.906   6.950   9.062  1.0956 -0.7014  0.2714
    4SAPS  C315  520   4.056   6.972   8.905  0.4474 -0.4135  0.0876
    4SAPS  H15X  521   4.078   6.868   8.872  1.4897 -0.1090 -0.2038
    4SAPS  H15Y  522   4.148   7.032   8.888  0.7845 -1.1397 -0.7175
    4SAPS  C316  523   3.951   7.049   8.810 -0.4775  0.3284 -0.1026
    4SAPS  H16X  524   3.929   7.142   8.868  1.1505  0.6177  0.0877
    4SAPS  H16Y  525   3.860   6.987   8.795  1.9659 -3.8105  0.7234
    4SAPS  C317  526   4.002   7.072   8.668  0.1675  0.1340  0.8040
    4SAPS  H17X  527   4.019   6.969   8.630 -0.2797  0.7101 -1.0929
    4SAPS  H17Y  528   4.100   7.123   8.661 -0.0878  0.4431 -0.7896
    4SAPS  C318  529   3.894   7.148   8.588  0.1610  0.9677 -0.3016
    4SAPS  H18X  530   3.893   7.258   8.602 -0.3689  1.4011 -3.0557
    4SAPS  H18Y  531   3.795   7.101   8.609  0.0871  0.0798 -2.3388
    4SAPS  H18Z  532   3.914   7.130   8.480 -0.0608 -1.6342  0.0119
    5SAPS     N  533   4.939   3.969  11.000 -0.3410 -0.3725  0.3061
    5SAPS   HN1  534   4.967   4.004  11.095 -0.6955  0.9379 -0.0489
    5SAPS   HN2  535   5.029   3.958  10.949 -0.0538  1.5036  0.3245
    5SAPS   HN3  536   4.892   4.049  10.954 -0.0938 -0.0945  0.5281
    5SAPS   C12  537   4.850   3.855  11.025  0.4332 -0.0924 -0.1270
    5SAPS  H12A  538   4.901   3.782  11.086  0.2849  1.7297  2.3395
    5SAPS   C13  539   4.722   3.899  11.094  0.6909  0.3197 -0.0255
    5SAPS  O13A  540   4.701   4.015  11.126  0.0292 -0.4094  0.3370
    5SAPS  O13B  541   4.639   3.809  11.120  0.0589  0.3848  0.0313
    5SAPS   C11  542   4.812   3.782  10.892 -0.6818  0.6432  0.1400
    5SAPS  H11A  543   4.769   3.855  10.820  0.0901  1.0107  0.0452
    5SAPS  H11B  544   4.737   3.704  10.916 -1.0979  0.6274 -1.1547
    5SAPS     P  545   4.966   3.582  10.813  0.0729  0.4765 -0.0911
    5SAPS   O13  546   5.110   3.579  10.777  0.0906  0.6112 -0.2606
    5SAPS   O14  547   4.922   3.511  10.938 -0.5653 -0.5904 -0.2334
    5SAPS   O12  548   4.932   3.734  10.832  0.1828  0.8375 -0.4693
    5SAPS   O11  549   4.869   3.539  10.690 -0.2467  0.1748 -0.2103
    5SAPS    C1  550   4.882   3.601  10.561  0.1598  0.4455 -0.4816
    5SAPS    HA  551   4.882   3.712  10.568  0.3564  0.7691 -3.8631
    5SAPS    HB  552   4.978   3.596  10.505  0.3817  3.6349 -0.5591
    5SAPS    C2  553   4.771   3.551  10.464 -0.0850 -0.1540  0.0576
    5SAPS    HS  554   4.784   3.441  10.461 -1.2104 -0.3119  0.5605
    5SAPS   O21  555   4.791   3.605  10.329  0.0587 -0.5197  0.5544
    5SAPS   C21  556   4.716   3.552  10.227  0.1464 -0.2565 -0.3814
    5SAPS   O22  557   4.621   3.474  10.240 -0.6946 -0.2318 -0.1976
    5SAPS   C22  558   4.763   3.599  10.094 -0.0490 -0.2739  0.1163
    5SAPS   H2R  559   4.706   3.693  10.077  1.1764  0.9863  2.4615
    5SAPS   H2S  560   4.870   3.629  10.103 -0.1984  0.3865 -0.2363
    5SAPS    C3  561   4.632   3.583  10.529  0.0971 -0.3926 -0.4773
    5SAPS    HX  562   4.620   3.525  10.624  0.8169  1.3721  0.7532
    5SAPS    HY  563   4.552   3.558  10.457  0.9532  2.0252 -2.3957
    5SAPS   O31  564   4.618   3.720  10.547 -0.1901  0.1718  0.5934
    5SAPS   C31  565   4.570   3.768  10.655  0.2447 -0.2371  0.0881
    5SAPS   O32  566   4.539   3.702  10.757 -0.4787 -1.0102  0.1225
    5SAPS   C32  567   4.546   3.916  10.637 -0.0625 -0.3426 -0.7467
    5SAPS   H2X  568   4.644   3.963  10.616  0.0335 -0.0827  0.2396
    5SAPS   H2Y  569   4.504   3.967  10.726 -1.0936 -2.1415 -0.1392
    5SAPS   C23  570   4.733   3.499   9.976  0.0865 -0.1766  0.4073
    5SAPS   H3R  571   4.626   3.472   9.988 -0.0594  0.4050  0.4589
    5SAPS   H3S  572   4.799   3.410   9.980  3.2012  1.9602  0.0875
    5SAPS   C24  573   4.763   3.565   9.837  0.5363 -0.4188  0.0799
    5SAPS   H4R  574   4.729   3.671   9.839  0.1079 -0.5441 -0.4015
    5SAPS   H4S  575   4.708   3.506   9.760 -0.7121 -0.9359  1.3047
    5SAPS   C25  576   4.912   3.561   9.795 -0.1177 -0.0890 -0.4174
    5SAPS   H5R  577   4.989   3.619   9.848  1.7271 -2.8157  0.0891
    5SAPS   C26  578   4.954   3.513   9.677 -0.4656  0.7242  0.1383
    5SAPS   H6R  579   5.057   3.536   9.645 -0.1066 -1.6322 -0.6212
    5SAPS   C27  580   4.877   3.454   9.559  0.0384  1.0909  0.0663
    5SAPS   H7R  581   4.766   3.453   9.567 -0.1023 -1.0759 -1.2645
    5SAPS   H7S  582   4.904   3.347   9.568 -0.4277  0.4616 -3.9965
    5SAPS   C28  583   4.916   3.519   9.427  0.8540 -0.0309 -0.0139
    5SAPS   H8R  584   4.881   3.623   9.431  0.5351 -0.1756  1.7330
    5SAPS   C29  585   4.976   3.479   9.318 -0.5019 -0.2091  0.2449
    5SAPS   H9R  586   5.007   3.555   9.244 -0.5449 -0.5201 -0.0971
    5SAPS  C210  587   5.017   3.333   9.299 -0.3738 -0.1391  0.4177
    5SAPS  H10R  588   4.930   3.266   9.314  0.3727 -1.6202 -1.3850
    5SAPS  H10S  589   5.092   3.322   9.380  0.0572  1.6802  0.3112
    5SAPS  C211  590   5.092   3.320   9.165  0.2842 -0.0178  0.5346
    5SAPS  H11R  591   5.201   3.332   9.157  0.1964  0.2358 -0.4011
    5SAPS  C212  592   5.021   3.267   9.058  0.5907 -0.1530 -0.4669
    5SAPS  H12R  593   5.072   3.255   8.962 -1.1140  0.1803 -1.4694
    5SAPS  C213  594   4.872   3.231   9.059  0.2754 -0.4590 -0.6019
    5SAPS  H13R  595   4.833   3.303   9.135  2.7662 -2.3925  2.7524
    5SAPS  H13S  596   4.853   3.125   9.085 -0.6729 -0.2217 -0.2653
    5SAPS  C214  597   4.818   3.255   8.920 -0.5849  0.2013  0.3653
    5SAPS  H14R  598   4.813   3.161   8.863 -3.4462  0.3381  0.2529
    5SAPS  C215  599   4.766   3.365   8.873  0.8387 -0.8809 -0.0831
    5SAPS  H15R  600   4.706   3.365   8.781 -0.9698  1.2301  0.9945
    5SAPS  C216  601   4.733   3.500   8.937 -0.3531 -0.4207  0.6451
    5SAPS  H16R  602   4.812   3.575   8.914 -1.5583  1.0820  1.2735
    5SAPS  H16S  603   4.735   3.483   9.047 -0.9337 -0.9232  0.5807
    5SAPS  C217  604   4.592   3.543   8.898 -0.2195 -1.0966 -0.7975
    5SAPS  H17R  605   4.524   3.457   8.914  1.5356 -2.3559  0.3367
    5SAPS  H17S  606   4.579   3.557   8.788 -2.5669 -0.6176 -0.5060
    5SAPS  C218  607   4.542   3.664   8.980 -0.0013  0.0346 -0.4127
    5SAPS  H18R  608   4.544   3.654   9.090  1.0156  1.2526 -0.2902
    5SAPS  H18S  609   4.616   3.744   8.960 -1.7826  1.6859 -0.6997
    5SAPS  C219  610   4.400   3.701   8.948  0.0606 -0.1641 -0.3336
    5SAPS  H19R  611   4.388   3.715   8.838  2.5026 -2.2432 -0.9554
    5SAPS  H19S  612   4.372   3.801   8.988 -0.3903  0.3457 -1.8572
    5SAPS  C220  613   4.312   3.595   9.011  0.0176 -0.8369 -0.4170
    5SAPS  H20R  614   4.319   3.604   9.121  1.0634 -1.2400 -0.4391
    5SAPS  H20S  615   4.324   3.496   8.962  0.5001 -0.1357 -1.7615
    5SAPS  H20T  616   4.208   3.622   8.983 -0.0322 -0.2126  0.3629
    5SAPS   C33  617   4.461   3.937  10.512 -0.3550 -0.1096  0.3439
    5SAPS   H3X  618   4.523   3.915  10.423  0.2353 -1.9260  1.1738
    5SAPS   H3Y  619   4.440   4.046  10.502  2.9790  0.4836 -1.6474
    5SAPS   C34  620   4.330   3.853  10.496  0.1462 -0.1037 -0.4748
    5SAPS   H4X  621   4.264   3.881  10.581 -0.9517 -3.5502 -0.0190
    5SAPS   H4Y  622   4.340   3.743  10.511 -3.8913 -0.8246 -1.9333
    5SAPS   C35  623   4.251   3.883  10.369 -0.4912  0.3860  0.2773
    5SAPS   H5X  624   4.222   3.990  10.366 -3.1630 -0.2312  1.2355
    5SAPS   H5Y  625   4.155   3.827  10.368 -0.7048  0.7142  1.1106
    5SAPS   C36  626   4.323   3.856  10.236 -0.5359  0.5704 -0.5178
    5SAPS   H6X  627   4.333   3.749  10.210 -0.9047  0.2294  0.6620
    5SAPS   H6Y  628   4.422   3.908  10.235 -0.4603  0.4180 -1.7999
    5SAPS   C37  629   4.252   3.927  10.117 -1.0487  0.5434 -0.4215
    5SAPS   H7X  630   4.260   4.038  10.117  1.5052  0.4162 -0.1179
    5SAPS   H7Y  631   4.146   3.896  10.109 -0.6977 -0.9833  0.4271
    5SAPS   C38  632   4.316   3.883   9.988  0.1880  0.5930  0.1482
    5SAPS   H8X  633   4.329   3.773   9.998 -1.2455  0.1380 -2.1422
    5SAPS   H8Y  634   4.420   3.919   9.970 -0.0939  0.4853 -2.0562
    5SAPS   C39  635   4.232   3.912   9.864  0.3739  0.0017 -0.1027
    5SAPS   H9X  636   4.161   3.992   9.892 -0.0059 -0.3575 -0.0157
    5SAPS   H9Y  637   4.164   3.826   9.842 -0.5324  1.2180 -2.4943
    5SAPS  C310  638   4.303   3.945   9.728  0.3180  0.4489  0.1215
    5SAPS  H10X  639   4.384   3.871   9.708  0.4917  0.9708 -1.1682
    5SAPS  H10Y  640   4.340   4.047   9.751  0.0734  0.6050 -0.1785
    5SAPS  C311  641   4.199   3.963   9.617 -0.1259  0.3785 -0.0540
    5SAPS  H11X  642   4.139   4.056   9.622 -0.0374  0.5981 -2.2381
    5SAPS  H11Y  643   4.132   3.875   9.624  1.8895 -1.6026 -3.0458
    5SAPS  C312  644   4.260   3.945   9.472 -0.2697 -0.5548  0.4362
    5SAPS  H12X  645   4.299   3.842   9.457  1.4505  0.0323  0.5990
    5SAPS  H12Y  646   4.341   4.020   9.456 -0.5531 -0.1599  0.8374
    5SAPS  C313  647   4.152   3.967   9.365  0.2652 -0.9940 -0.5723
    5SAPS  H13X  648   4.115   4.071   9.377 -0.4864 -1.2045 -1.0420
    5SAPS  H13Y  649   4.077   3.890   9.391 -1.3778  0.7510  0.1213
    5SAPS  C314  650   4.206   3.966   9.219  0.4247 -0.3497 -0.2013
    5SAPS  H14X  651   4.264   3.876   9.187  1.7996  1.1951 -2.2915
    5SAPS  H14Y  652   4.276   4.051   9.207  1.8989 -1.4798  0.0753
    5SAPS  C315  653   4.099   4.001   9.114  0.4259  1.4434  0.0585
    5SAPS  H15X  654   4.057   4.101   9.138  0.3183  1.3487  0.2667
    5SAPS  H15Y  655   4.016   3.930   9.133  0.4927  1.5052  0.5837
    5SAPS  C316  656   4.144   4.015   8.969 -0.6411 -0.2555 -0.1087
    5SAPS  H16X  657   4.186   3.919   8.932 -0.0785 -0.7764  1.8111
    5SAPS  H16Y  658   4.231   4.084   8.964 -0.8471  0.0976  1.0267
    5SAPS  C317  659   4.030   4.056   8.873 -0.4372 -0.5512  0.2037
    5SAPS  H17X  660   3.935   4.002   8.896 -0.0319 -0.6438  1.7418
    5SAPS  H17Y  661   4.046   4.016   8.770 -4.2484  1.5621 -1.4274
    5SAPS  C318  662   4.015   4.212   8.870  0.4259 -0.4669 -1.1323
    5SAPS  H18X  663   3.980   4.249   8.968 -1.1012 -2.1779 -0.9631
    5SAPS  H18Y  664   3.952   4.249   8.786  0.4173 -1.7182 -1.7057
    5SAPS  H18Z  665   4.113   4.254   8.838 -0.1019  1.3960 -0.4094
    6SAPS     N  666   2.646   4.247  11.340  0.0967  0.1637 -0.3059
    6SAPS   HN1  667   2.601   4.187  11.412  0.1895 -0.6633 -0.9295
    6SAPS   HN2  668   2.740   4.208  11.319 -0.3802 -0.7255 -0.8291
    6SAPS   HN3  669   2.653   4.340  11.387  1.5625  0.1258 -0.3976
    6SAPS   C12  670   2.565   4.263  11.220  0.1871 -0.3951 -0.4635
    6SAPS  H12A  671   2.514   4.169  11.202 -0.1451  0.0162 -1.8760
    6SAPS   C13  672   2.456   4.378  11.221  0.0272  0.7588 -0.0424
    6SAPS  O13A  673   2.410   4.390  11.336  0.3325  0.0583  0.0351
    6SAPS  O13B  674   2.380   4.371  11.117  1.3484 -0.0559 -0.0775
    6SAPS   C11  675   2.662   4.304  11.110  0.2725  0.4090  0.9727
    6SAPS  H11A  676   2.740   4.373  11.149  0.9404  1.3094 -1.7101
    6SAPS  H11B  677   2.616   4.361  11.026  0.2097  0.5713  1.1168
    6SAPS     P  678   2.687   4.133  10.919 -0.1399  0.0060  0.5284
    6SAPS   O13  679   2.774   4.022  10.889 -0.2887  0.3249 -0.3256
    6SAPS   O14  680   2.540   4.109  10.920 -0.0046 -0.3241  0.5450
    6SAPS   O12  681   2.728   4.185  11.061  0.5963 -0.1634 -0.4227
    6SAPS   O11  682   2.715   4.240  10.807 -0.9244  0.0846 -0.1421
    6SAPS    C1  683   2.611   4.310  10.743  0.2216 -0.5146  0.1033
    6SAPS    HA  684   2.533   4.246  10.696 -1.5824  1.5455  0.1106
    6SAPS    HB  685   2.557   4.385  10.805 -2.3303  0.5578 -3.1562
    6SAPS    C2  686   2.667   4.409  10.641 -0.5358  1.2121  0.1827
    6SAPS    HS  687   2.581   4.436  10.577  0.2678  1.5010 -0.8154
    6SAPS   O21  688   2.762   4.349  10.550  0.0574 -0.0580 -0.0606
    6SAPS   C21  689   2.707   4.265  10.465 -0.0213 -0.2771  0.7151
    6SAPS   O22  690   2.597   4.222  10.467  0.2886 -0.3213  0.3737
    6SAPS   C22  691   2.818   4.201  10.381  0.6409  0.5632 -0.2519
    6SAPS   H2R  692   2.884   4.159  10.459  1.1814 -0.3645 -1.1858
    6SAPS   H2S  693   2.771   4.119  10.322  1.3167  0.2061 -0.3019
    6SAPS    C3  694   2.725   4.531  10.714 -0.3977  0.3230  0.0971
    6SAPS    HX  695   2.803   4.492  10.784  0.6854  1.3570 -0.5072
    6SAPS    HY  696   2.645   4.581  10.773 -0.9876  0.4023 -0.7505
    6SAPS   O31  697   2.780   4.622  10.622  0.3133 -0.3904  0.2882
    6SAPS   C31  698   2.911   4.607  10.587  0.6116 -0.4706 -0.1544
    6SAPS   O32  699   2.983   4.522  10.626  0.0942  0.4565  0.5884
    6SAPS   C32  700   2.935   4.700  10.465 -0.8796 -0.9199  0.8475
    6SAPS   H2X  701   2.942   4.804  10.504 -0.1891 -1.1816  1.4411
    6SAPS   H2Y  702   2.845   4.694  10.401  0.4135 -2.1921 -0.9671
    6SAPS   C23  703   2.894   4.302  10.288 -0.1130  0.0874 -0.4424
    6SAPS   H3R  704   2.946   4.384  10.342 -1.1213 -0.1615  0.9337
    6SAPS   H3S  705   2.809   4.345  10.230 -1.4638 -2.8481 -0.8102
    6SAPS   C24  706   2.980   4.231  10.180 -0.3077 -0.0276 -0.5028
    6SAPS   H4R  707   2.924   4.141  10.147 -1.3774 -0.2834  1.7902
    6SAPS   H4S  708   3.079   4.194  10.216 -0.6502 -1.9721 -1.4355
    6SAPS   C25  709   2.998   4.328  10.060  0.2744 -0.2257 -0.3320
    6SAPS   H5R  710   2.969   4.431  10.083 -1.0912 -1.1063  2.4301
    6SAPS   C26  711   3.035   4.286   9.934  0.8112 -0.2314 -0.0692
    6SAPS   H6R  712   3.047   4.362   9.855 -0.0771  0.8235  0.7568
    6SAPS   C27  713   3.055   4.139   9.884 -0.8405 -0.2080 -0.5209
    6SAPS   H7R  714   3.026   4.066   9.963 -2.5051 -0.6144 -1.4430
    6SAPS   H7S  715   3.163   4.131   9.861 -0.2904  1.1347  1.4360
    6SAPS   C28  716   2.971   4.114   9.767  0.4500  0.0797  0.4414
    6SAPS   H8R  717   2.892   4.040   9.787  1.4263 -1.2131 -0.2881
    6SAPS   C29  718   2.997   4.151   9.638 -0.0182  0.0142  0.5226
    6SAPS   H9R  719   2.928   4.119   9.559  1.2160 -2.0064  0.1884
    6SAPS  C210  720   3.118   4.221   9.583  0.0267  0.1695 -0.7904
    6SAPS  H10R  721   3.161   4.163   9.499  1.9129  0.5486 -0.1424
    6SAPS  H10S  722   3.199   4.244   9.656  0.0856  0.6324 -0.9970
    6SAPS  C211  723   3.072   4.359   9.523  0.5164  0.1709  0.6186
    6SAPS  H11R  724   3.037   4.429   9.601  1.7849 -0.8650  2.1827
    6SAPS  C212  725   3.078   4.399   9.391 -1.1656  0.2061  0.4645
    6SAPS  H12R  726   3.057   4.501   9.358  2.6254  0.6001 -1.2355
    6SAPS  C213  727   3.137   4.313   9.285 -0.2421  0.1303  0.8508
    6SAPS  H13R  728   3.211   4.241   9.326 -0.2982 -0.2233  0.3314
    6SAPS  H13S  729   3.201   4.387   9.232 -2.5574  0.9862 -0.8915
    6SAPS  C214  730   3.041   4.244   9.184  0.3061  0.0728 -0.4390
    6SAPS  H14R  731   2.938   4.216   9.210  0.6101 -0.3977  0.3037
    6SAPS  C215  732   3.072   4.228   9.056  0.5891  0.1243  0.6266
    6SAPS  H15R  733   2.991   4.184   8.996 -1.1278  0.5685  2.5342
    6SAPS  C216  734   3.200   4.271   8.985  0.3349  0.4057 -0.0848
    6SAPS  H16R  735   3.248   4.357   9.036  1.4689  0.2479 -0.8294
    6SAPS  H16S  736   3.175   4.319   8.888  0.0480  0.8827  0.2237
    6SAPS  C217  737   3.304   4.157   8.981 -0.4657  0.0310  0.0578
    6SAPS  H17R  738   3.266   4.085   8.905 -1.4960 -1.4079  1.8567
    6SAPS  H17S  739   3.321   4.107   9.079 -0.8761 -0.7811 -0.2710
    6SAPS  C218  740   3.440   4.207   8.937 -0.2175  0.1205 -0.0020
    6SAPS  H18R  741   3.504   4.248   9.018  0.9611  0.2354 -0.9512
    6SAPS  H18S  742   3.415   4.298   8.879 -0.3078 -0.0038 -0.1584
    6SAPS  C219  743   3.522   4.100   8.857  0.8780 -0.0560  0.0461
    6SAPS  H19R  744   3.609   4.154   8.815 -0.1496  2.1629  0.6167
    6SAPS  H19S  745   3.452   4.059   8.781 -0.3543 -0.2787  1.2498
    6SAPS  C220  746   3.580   3.983   8.939 -0.1786 -0.1090 -1.2656
    6SAPS  H20R  747   3.655   4.024   9.010  0.2256 -0.2167 -1.6202
    6SAPS  H20S  748   3.626   3.909   8.870  0.2389 -1.1539  0.0948
    6SAPS  H20T  749   3.507   3.925   8.998  0.9559  0.3198  0.6408
    6SAPS   C33  750   3.061   4.677  10.380  0.1832  0.6962  0.3744
    6SAPS   H3X  751   3.059   4.570  10.348 -3.1516  1.5216 -2.9301
    6SAPS   H3Y  752   3.150   4.698  10.444  0.8523  0.6964 -0.5309
    6SAPS   C34  753   3.085   4.777  10.259 -0.4641  0.3910  0.5275
    6SAPS   H4X  754   3.183   4.756  10.211 -0.0682  0.5683  1.2323
    6SAPS   H4Y  755   3.096   4.876  10.309 -1.1471  1.3567 -1.1627
    6SAPS   C35  756   2.978   4.779  10.150  0.8438  0.3640  0.3738
    6SAPS   H5X  757   2.906   4.859  10.178  0.7070 -0.2115  1.7737
    6SAPS   H5Y  758   2.913   4.689  10.157  1.2786  0.0722  0.7466
    6SAPS   C36  759   3.037   4.799  10.019 -0.4092 -0.1272 -0.2203
    6SAPS   H6X  760   3.123   4.730  10.004  0.0126  0.0169  1.3459
    6SAPS   H6Y  761   3.084   4.899  10.015  2.2322 -1.2336  0.6016
    6SAPS   C37  762   2.937   4.797   9.898  0.0125 -0.2619 -0.7327
    6SAPS   H7X  763   2.897   4.900   9.903  1.0807  0.1172  1.4209
    6SAPS   H7Y  764   2.852   4.729   9.920 -0.9825  0.4637 -2.2348
    6SAPS   C38  765   3.009   4.762   9.765 -0.0935 -0.1381 -0.2096
    6SAPS   H8X  766   3.040   4.655   9.765  3.8308  0.8211  0.7124
    6SAPS   H8Y  767   3.109   4.811   9.765  0.6319 -1.4799  1.5418
    6SAPS   C39  768   2.925   4.805   9.641 -0.8428 -0.1943  0.2612
    6SAPS   H9X  769   2.923   4.915   9.655  2.6697  0.0664 -0.2043
    6SAPS   H9Y  770   2.827   4.754   9.647 -0.6395 -0.5213  0.8765
    6SAPS  C310  771   2.992   4.781   9.509 -0.2180 -0.2973 -0.0642
    6SAPS  H10X  772   2.917   4.817   9.435 -1.4517  0.2343  1.4081
    6SAPS  H10Y  773   3.009   4.673   9.489  0.8348  0.1873 -2.0988
    6SAPS  C311  774   3.123   4.857   9.492  0.1943 -0.0425  0.1107
    6SAPS  H11X  775   3.188   4.839   9.580  1.2755  0.7745 -0.4973
    6SAPS  H11Y  776   3.095   4.965   9.490  2.0200  0.4578  0.2610
    6SAPS  C312  777   3.200   4.820   9.368  0.0866  0.4373  0.6450
    6SAPS  H12X  778   3.219   4.712   9.350  0.3605  0.7268 -0.8935
    6SAPS  H12Y  779   3.296   4.875   9.372  1.2234 -1.2240 -1.5529
    6SAPS  C313  780   3.140   4.842   9.229  0.2245 -0.2214 -0.3524
    6SAPS  H13X  781   3.114   4.948   9.212  1.5072 -0.1419 -2.0771
    6SAPS  H13Y  782   3.054   4.777   9.202 -0.9752  1.1728 -0.0338
    6SAPS  C314  783   3.249   4.816   9.117 -0.3886 -0.1757 -0.3563
    6SAPS  H14X  784   3.341   4.872   9.146 -0.4323 -0.0136 -0.5343
    6SAPS  H14Y  785   3.197   4.848   9.024 -2.1221 -0.9765  0.2948
    6SAPS  C315  786   3.285   4.664   9.100  0.1386 -0.2699 -0.3819
    6SAPS  H15X  787   3.202   4.590   9.090  0.6463 -0.9075  0.0104
    6SAPS  H15Y  788   3.321   4.636   9.201 -1.6526 -1.9568 -0.1453
    6SAPS  C316  789   3.391   4.647   8.994 -0.4423  0.3299  0.7074
    6SAPS  H16X  790   3.415   4.539   9.006 -1.9257 -0.2229 -0.9365
    6SAPS  H16Y  791   3.476   4.717   9.011 -0.9820  1.0732  0.3888
    6SAPS  C317  792   3.348   4.687   8.856  0.1641 -0.7742  0.2677
    6SAPS  H17X  793   3.423   4.636   8.792  1.1607  0.3003  0.5550
    6SAPS  H17Y  794   3.343   4.798   8.849 -0.2592 -0.7533  0.7392
    6SAPS  C318  795   3.211   4.639   8.818 -0.0619  0.5832 -0.5548
    6SAPS  H18X  796   3.123   4.685   8.868 -1.0470  0.4999 -2.1247
    6SAPS  H18Y  797   3.203   4.536   8.856 -0.8017  0.9572  0.3383
    6SAPS  H18Z  798   3.192   4.650   8.709  0.2270  0.1549 -0.6479
    7SAPS     N  799   5.818   3.273  10.838 -0.7090  0.0866  0.5700
    7SAPS   HN1  800   5.812   3.198  10.766  1.9640  0.9772 -0.7106
    7SAPS   HN2  801   5.869   3.231  10.918 -1.5823 -0.1247  1.0261
    7SAPS   HN3  802   5.723   3.304  10.867 -0.1551  2.5122  0.0415
    7SAPS   C12  803   5.890   3.395  10.787 -0.4396  0.1699 -0.1857
    7SAPS  H12A  804   5.844   3.486  10.824  2.9337  2.5990 -1.4709
    7SAPS   C13  805   6.040   3.392  10.830  0.0226 -0.5174 -0.3947
    7SAPS  O13A  806   6.083   3.310  10.914 -0.5381 -0.0984 -0.0381
    7SAPS  O13B  807   6.116   3.484  10.786  0.5063 -0.0996  0.2785
    7SAPS   C11  808   5.876   3.411  10.634 -0.3138  0.1689 -0.1215
    7SAPS  H11A  809   5.921   3.323  10.585 -0.9621  0.4095 -1.1832
    7SAPS  H11B  810   5.933   3.501  10.603  1.0374 -0.6566 -0.0858
    7SAPS     P  811   5.669   3.564  10.594 -0.2344 -0.3903 -0.0011
    7SAPS   O13  812   5.522   3.552  10.595  0.0987 -0.2653 -0.4809
    7SAPS   O14  813   5.739   3.656  10.688 -0.5093  0.1716  1.0339
    7SAPS   O12  814   5.743   3.423  10.591 -0.0745 -0.4208  0.1251
    7SAPS   O11  815   5.725   3.612  10.456  0.2492  0.5932  0.5600
    7SAPS    C1  816   5.632   3.611  10.345 -0.0578 -0.2652  0.3373
    7SAPS    HA  817   5.584   3.511  10.336 -3.2561  0.9274  2.4744
    7SAPS    HB  818   5.544   3.677  10.363  0.4978 -0.0146  2.4490
    7SAPS    C2  819   5.709   3.639  10.207  0.9230  0.6546 -0.4742
    7SAPS    HS  820   5.652   3.593  10.124 -0.8048  2.4980 -0.3822
    7SAPS   O21  821   5.847   3.586  10.210  0.0206 -0.2892  0.3695
    7SAPS   C21  822   5.852   3.454  10.215 -0.1523 -0.3555 -0.0758
    7SAPS   O22  823   5.756   3.385  10.184  0.5145  0.4926 -0.3129
    7SAPS   C22  824   5.986   3.400  10.252 -0.2681  0.2367  0.6291
    7SAPS   H2R  825   6.007   3.408  10.361 -1.6885  2.8402  0.7829
    7SAPS   H2S  826   5.988   3.295  10.214  0.5179 -0.0177  1.3509
    7SAPS    C3  827   5.712   3.794  10.177 -0.2870 -0.5721  0.5604
    7SAPS    HX  828   5.793   3.844  10.234  0.1163 -0.4106 -0.1433
    7SAPS    HY  829   5.624   3.833  10.232 -0.6599  0.7305 -0.8856
    7SAPS   O31  830   5.705   3.838  10.035  0.3557  0.2433 -0.5148
    7SAPS   C31  831   5.796   3.922   9.994  0.5585  0.4369  0.2994
    7SAPS   O32  832   5.867   3.987  10.066 -0.1395  0.3556 -0.7967
    7SAPS   C32  833   5.770   3.955   9.851 -0.0498 -0.0760 -0.6742
    7SAPS   H2X  834   5.835   4.039   9.820 -0.4586  0.7480  0.6352
    7SAPS   H2Y  835   5.667   3.997   9.846  0.2629  1.1158  1.7266
    7SAPS   C23  836   6.109   3.476  10.191  0.2361  0.5588 -0.2621
    7SAPS   H3R  837   6.194   3.409  10.218 -1.1078 -2.0045 -1.9831
    7SAPS   H3S  838   6.117   3.568  10.252 -0.4711  0.3661  0.1331
    7SAPS   C24  839   6.119   3.503  10.035  0.3176  0.6110 -0.1646
    7SAPS   H4R  840   6.216   3.554  10.018 -0.1840  1.4152 -0.6597
    7SAPS   H4S  841   6.038   3.573  10.007 -1.7186 -0.8866  1.5751
    7SAPS   C25  842   6.125   3.377   9.950 -0.0415  0.3404 -0.2683
    7SAPS   H5R  843   6.191   3.304  10.000 -2.3436 -0.2511  2.1549
    7SAPS   C26  844   6.075   3.358   9.829  0.9278  0.5753  0.4010
    7SAPS   H6R  845   6.090   3.259   9.783 -0.0051  0.1239  1.0344
    7SAPS   C27  846   5.983   3.450   9.756  0.7574  0.3949 -0.8909
    7SAPS   H7R  847   6.006   3.432   9.649  2.8570  1.6321 -0.7059
    7SAPS   H7S  848   6.012   3.554   9.782  0.4720  0.4701 -0.8759
    7SAPS   C28  849   5.835   3.440   9.784  0.5057  0.0690  1.0080
    7SAPS   H8R  850   5.816   3.445   9.893  0.4335 -1.2027  1.0616
    7SAPS   C29  851   5.736   3.433   9.689 -0.0691 -0.1125 -0.0558
    7SAPS   H9R  852   5.628   3.421   9.707 -0.2220 -0.5056 -1.1346
    7SAPS  C210  853   5.765   3.431   9.544 -0.0977 -0.3387 -0.6282
    7SAPS  H10R  854   5.697   3.359   9.493  0.3776  0.9240 -3.1935
    7SAPS  H10S  855   5.862   3.381   9.520  0.3179  0.2459 -0.1919
    7SAPS  C211  856   5.751   3.563   9.466  0.3207 -0.0379 -0.4983
    7SAPS  H11R  857   5.825   3.639   9.496  0.0704 -0.4633  1.3013
    7SAPS  C212  858   5.661   3.586   9.368  0.3006 -1.0779  0.2466
    7SAPS  H12R  859   5.650   3.689   9.333  3.1815  0.4030  3.2044
    7SAPS  C213  860   5.557   3.490   9.310 -0.0930 -0.0930 -0.6896
    7SAPS  H13R  861   5.522   3.419   9.388  1.3427 -0.1455 -0.0721
    7SAPS  H13S  862   5.602   3.428   9.229 -1.0105 -1.0665 -0.4817
    7SAPS  C214  863   5.432   3.568   9.263 -0.1823  0.3524  0.7680
    7SAPS  H14R  864   5.351   3.596   9.332  0.2046  2.9080  0.2795
    7SAPS  C215  865   5.420   3.605   9.134  0.3606  0.5394 -0.4790
    7SAPS  H15R  866   5.328   3.650   9.095 -0.8566  0.9323  2.5219
    7SAPS  C216  867   5.518   3.579   9.021  0.5330  0.1394  0.6378
    7SAPS  H16R  868   5.579   3.491   9.048  1.2694 -0.2861 -2.1641
    7SAPS  H16S  869   5.587   3.663   8.996  0.9736  0.1939  1.9634
    7SAPS  C217  870   5.436   3.548   8.888 -0.0834  0.4207 -0.1547
    7SAPS  H17R  871   5.355   3.620   8.866 -0.0384  0.0451 -1.7181
    7SAPS  H17S  872   5.399   3.445   8.907  0.2975  0.3375  0.1531
    7SAPS  C218  873   5.525   3.555   8.767  0.5097 -0.2234 -0.0411
    7SAPS  H18R  874   5.571   3.656   8.769  0.3398 -0.1494  0.1382
    7SAPS  H18S  875   5.446   3.553   8.688  0.7427  0.6124 -0.3126
    7SAPS  C219  876   5.627   3.441   8.754 -0.4018 -0.0244  0.5560
    7SAPS  H19R  877   5.573   3.344   8.750  1.7568 -1.2605 -1.9524
    7SAPS  H19S  878   5.690   3.451   8.845  2.2439  0.0422 -1.1672
    7SAPS  C220  879   5.729   3.453   8.639 -0.1032  0.0462 -0.4136
    7SAPS  H20R  880   5.797   3.366   8.651  1.1746  0.8073 -1.7976
    7SAPS  H20S  881   5.787   3.546   8.658  1.3897 -1.2081  1.5021
    7SAPS  H20T  882   5.691   3.456   8.534  2.1675 -0.7850 -1.3210
    7SAPS   C33  883   5.778   3.842   9.746 -0.3527  0.6846 -0.2084
    7SAPS   H3X  884   5.725   3.753   9.787  0.5458  0.1382 -0.2151
    7SAPS   H3Y  885   5.885   3.815   9.743 -1.2939 -3.5776 -1.5968
    7SAPS   C34  886   5.729   3.892   9.616 -0.5814 -0.4450  0.9791
    7SAPS   H4X  887   5.760   3.816   9.541  0.9209  0.1522  0.9675
    7SAPS   H4Y  888   5.772   3.987   9.579 -1.5693 -0.6292 -0.7337
    7SAPS   C35  889   5.584   3.912   9.619 -0.7967  0.5072 -0.2661
    7SAPS   H5X  890   5.561   4.003   9.679 -1.9609  0.5550 -0.7685
    7SAPS   H5Y  891   5.541   3.823   9.669  2.1306 -1.1727 -0.5279
    7SAPS   C36  892   5.512   3.930   9.478 -0.2831 -0.2827 -0.2784
    7SAPS   H6X  893   5.416   3.985   9.488  1.5722  3.2473 -0.1461
    7SAPS   H6Y  894   5.493   3.827   9.441  0.5729 -1.4227  2.2160
    7SAPS   C37  895   5.590   4.007   9.375 -0.0817 -0.5879 -0.2494
    7SAPS   H7X  896   5.681   3.947   9.355  0.2653 -1.6839  3.8801
    7SAPS   H7Y  897   5.618   4.114   9.391 -0.6641 -0.3074 -1.0009
    7SAPS   C38  898   5.510   4.008   9.244 -0.7050 -0.0854  0.3681
    7SAPS   H8X  899   5.413   4.061   9.258 -0.1773  0.7523  0.9217
    7SAPS   H8Y  900   5.485   3.901   9.226  0.9071 -0.1035 -2.3008
    7SAPS   C39  901   5.594   4.066   9.126  0.1244 -0.5498  0.4493
    7SAPS   H9X  902   5.698   4.029   9.119 -0.2502 -1.6121  0.2001
    7SAPS   H9Y  903   5.608   4.173   9.152  1.2812 -0.7442  0.6907
    7SAPS  C310  904   5.525   4.044   8.987  0.1613  0.8776  0.0076
    7SAPS  H10X  905   5.431   4.101   8.988  0.5333  1.4986  0.2522
    7SAPS  H10Y  906   5.492   3.938   8.982  2.3857  0.1387 -0.6948
    7SAPS  C311  907   5.601   4.088   8.865  0.3665  0.0604 -0.0816
    7SAPS  H11X  908   5.609   4.193   8.830  0.5373  0.3361  0.7677
    7SAPS  H11Y  909   5.539   4.043   8.785  1.9331  1.2592 -2.0756
    7SAPS  C312  910   5.745   4.019   8.849 -0.4859 -0.4111 -0.5117
    7SAPS  H12X  911   5.763   3.916   8.888  0.8662 -0.0061 -0.0053
    7SAPS  H12Y  912   5.814   4.084   8.907  1.9303 -0.9292 -2.6348
    7SAPS  C313  913   5.785   4.025   8.701  0.5473 -0.4078  0.2319
    7SAPS  H13X  914   5.773   4.126   8.656 -0.8356 -0.6546  0.0080
    7SAPS  H13Y  915   5.718   3.962   8.638  1.5508 -0.8557 -0.4182
    7SAPS  C314  916   5.937   3.987   8.679  0.0758  0.2724 -0.3480
    7SAPS  H14X  917   5.956   3.884   8.644  0.4250 -0.0920  0.8684
    7SAPS  H14Y  918   5.988   3.976   8.777  0.6357  1.6043 -0.4646
    7SAPS  C315  919   6.007   4.089   8.595 -0.2482 -0.4630  0.5978
    7SAPS  H15X  920   6.004   4.184   8.652  3.5640 -0.7411  1.5601
    7SAPS  H15Y  921   5.964   4.118   8.497  2.5339 -0.4946 -0.7413
    7SAPS  C316  922   6.163   4.076   8.589  0.0161  0.5929  0.0859
    7SAPS  H16X  923   6.180   3.968   8.572 -2.4511  0.0339  0.7573
    7SAPS  H16Y  924   6.211   4.085   8.689 -0.5236 -0.7509  0.4880
    7SAPS  C317  925   6.228   4.160   8.480 -0.5501  0.2069  0.3446
    7SAPS  H17X  926   6.338   4.154   8.473 -0.5770  0.1718 -0.0607
    7SAPS  H17Y  927   6.193   4.262   8.506  0.7904  0.4146  1.4403
    7SAPS  C318  928   6.187   4.120   8.338 -0.3158 -0.1907  0.9416
    7SAPS  H18X  929   6.206   4.195   8.258 -0.9861 -1.2464 -0.2447
    7SAPS  H18Y  930   6.079   4.096   8.325 -0.1386 -1.9551  2.3793
    7SAPS  H18Z  931   6.227   4.022   8.306 -1.8844 -0.3442 -0.7396
    8SAPS     N  932   1.811   3.727  11.032 -0.3534  0.4927 -0.4292
    8SAPS   HN1  933   1.915   3.730  11.042 -0.1971 -0.5163 -1.4577
    8SAPS   HN2  934   1.789   3.706  10.932 -1.4959  2.9453 -0.7532
    8SAPS   HN3  935   1.779   3.825  11.039 -0.3130  0.5210 -0.6304
    8SAPS   C12  936   1.743   3.650  11.145  0.6136 -0.4120  0.3228
    8SAPS  H12A  937   1.781   3.550  11.135  1.1342 -0.1294 -0.7200
    8SAPS   C13  938   1.768   3.706  11.288 -0.7389 -0.6270  0.0831
    8SAPS  O13A  939   1.836   3.811  11.310 -0.0526  0.0401 -0.2693
    8SAPS  O13B  940   1.724   3.637  11.381 -0.5265 -0.0188 -0.7993
    8SAPS   C11  941   1.589   3.649  11.106  0.1777  0.1656 -0.3237
    8SAPS  H11A  942   1.565   3.758  11.102 -0.2518  0.0324 -2.4222
    8SAPS  H11B  943   1.517   3.617  11.184  0.9045  0.2350  0.3951
    8SAPS     P  944   1.547   3.439  10.957  0.2202 -0.0756  0.0985
    8SAPS   O13  945   1.670   3.371  10.986  0.0442 -0.1130  0.8593
    8SAPS   O14  946   1.430   3.388  11.029 -0.4042  0.0638 -0.2355
    8SAPS   O12  947   1.565   3.591  10.978 -0.3265 -0.1548  0.0086
    8SAPS   O11  948   1.523   3.420  10.801  0.0441 -1.0623 -0.7835
    8SAPS    C1  949   1.630   3.455  10.717  0.4729 -0.7997  0.3927
    8SAPS    HA  950   1.652   3.564  10.715  0.3430 -0.7682 -1.9689
    8SAPS    HB  951   1.714   3.386  10.737  0.9190 -0.6276 -0.8358
    8SAPS    C2  952   1.580   3.428  10.568 -0.5936  0.5075 -0.6519
    8SAPS    HS  953   1.585   3.320  10.544 -2.0900  0.1622  0.4488
    8SAPS   O21  954   1.656   3.499  10.468  0.3771 -0.6113 -0.0628
    8SAPS   C21  955   1.778   3.464  10.455 -0.4543  0.4449  0.0209
    8SAPS   O22  956   1.836   3.380  10.518  0.0407 -0.1278  0.2626
    8SAPS   C22  957   1.831   3.542  10.335  0.0130  0.3067  0.0099
    8SAPS   H2R  958   1.802   3.481  10.247 -0.7420  1.5417 -0.6296
    8SAPS   H2S  959   1.788   3.643  10.319 -0.0986  0.1681 -0.6005
    8SAPS    C3  960   1.431   3.462  10.561 -0.5288  0.0844 -0.8008
    8SAPS    HX  961   1.423   3.569  10.590 -1.0466  1.2314 -4.6053
    8SAPS    HY  962   1.366   3.395  10.620 -1.3409  1.0043 -0.6164
    8SAPS   O31  963   1.389   3.461  10.421 -0.3111  0.8556 -0.1962
    8SAPS   C31  964   1.372   3.340  10.369  0.8564  0.2112 -0.5573
    8SAPS   O32  965   1.375   3.237  10.432  0.2435  0.9608  0.1980
    8SAPS   C32  966   1.334   3.355  10.225  0.5822  0.2733  0.4583
    8SAPS   H2X  967   1.354   3.462  10.204  1.9733  0.2445  1.4350
    8SAPS   H2Y  968   1.225   3.336  10.214  0.5013  1.7261 -1.7210
    8SAPS   C23  969   1.980   3.560  10.345 -0.7629  0.0864  0.1930
    8SAPS   H3R  970   2.028   3.468  10.387 -0.6729  0.0308 -0.0331
    8SAPS   H3S  971   2.000   3.640  10.420  0.5707  0.9374 -1.0339
    8SAPS   C24  972   2.044   3.591  10.205  0.0957  0.2602  0.2613
    8SAPS   H4R  973   2.142   3.638  10.229 -0.2844  1.0751  0.2571
    8SAPS   H4S  974   1.993   3.670  10.147  1.6529  0.0895 -1.4591
    8SAPS   C25  975   2.066   3.477  10.105 -0.0899  0.1196  0.4757
    8SAPS   H5R  976   2.115   3.393  10.156  0.7689 -0.0982 -0.6676
    8SAPS   C26  977   2.034   3.479   9.973  0.0861 -0.3813 -0.4417
    8SAPS   H6R  978   2.064   3.387   9.920 -0.2952 -0.3079 -0.7897
    8SAPS   C27  979   1.969   3.588   9.896  0.4669  0.3910  0.4307
    8SAPS   H7R  980   1.878   3.625   9.948  0.9452 -0.2758  1.7868
    8SAPS   H7S  981   1.934   3.552   9.797 -0.8201 -1.5449  1.5483
    8SAPS   C28  982   2.062   3.700   9.870  0.1949  0.5358  0.0280
    8SAPS   H8R  983   2.135   3.725   9.949 -0.5571  0.2602  0.8244
    8SAPS   C29  984   2.071   3.777   9.753 -0.0121  0.1853 -0.0109
    8SAPS   H9R  985   2.149   3.854   9.745  2.2972 -1.3408  4.5850
    8SAPS  C210  986   1.980   3.773   9.627  0.0268 -0.3290 -0.4357
    8SAPS  H10R  987   1.987   3.877   9.589  0.3117 -0.9547 -2.1816
    8SAPS  H10S  988   1.871   3.762   9.649 -0.0146  0.8587  0.0664
    8SAPS  C211  989   2.015   3.669   9.520  0.2078 -0.2717  0.2702
    8SAPS  H11R  990   1.965   3.572   9.535  0.5223 -0.4220  0.3358
    8SAPS  C212  991   2.088   3.691   9.410 -0.0219 -0.0883  0.3918
    8SAPS  H12R  992   2.106   3.614   9.334  0.9190  0.0197  0.4855
    8SAPS  C213  993   2.144   3.821   9.356  0.0843  0.3901 -0.1811
    8SAPS  H13R  994   2.254   3.810   9.342 -0.0028 -0.9915  0.1185
    8SAPS  H13S  995   2.124   3.910   9.419  2.4521  1.1484 -0.3935
    8SAPS  C214  996   2.081   3.844   9.224 -0.4356  0.3777  0.0979
    8SAPS  H14R  997   1.973   3.855   9.238 -0.1665  0.8053  2.2525
    8SAPS  C215  998   2.138   3.843   9.105 -0.4246  0.2033 -0.2110
    8SAPS  H15R  999   2.078   3.877   9.019  1.3666  3.7219 -0.2842
    8SAPS  C216 1000   2.287   3.832   9.092  0.2080 -0.0622 -0.0295
    8SAPS  H16R 1001   2.314   3.724   9.096 -1.1343 -0.3712  3.1839
    8SAPS  H16S 1002   2.350   3.875   9.173 -0.5258  2.3718 -0.6620
    8SAPS  C217 1003   2.337   3.911   8.966 -0.5626  0.7686 -0.2346
    8SAPS  H17R 1004   2.448   3.916   8.963 -0.4032 -1.6195 -0.0833
    8SAPS  H17S 1005   2.284   4.007   8.951 -0.5153  0.8548  0.1252
    8SAPS  C218 1006   2.301   3.830   8.839 -0.2251  0.1625 -0.3588
    8SAPS  H18R 1007   2.195   3.801   8.823 -0.4095  0.2009  0.7143
    8SAPS  H18S 1008   2.359   3.736   8.851  1.0081  1.1714  2.2277
    8SAPS  C219 1009   2.350   3.903   8.713 -0.0671  0.2706 -0.3182
    8SAPS  H19R 1010   2.446   3.950   8.741  0.8052 -2.4181  1.5027
    8SAPS  H19S 1011   2.280   3.987   8.691  0.7496  0.5826 -1.8624
    8SAPS  C220 1012   2.355   3.808   8.592 -0.0677  0.1313 -0.2135
    8SAPS  H20R 1013   2.273   3.734   8.579  0.2215 -0.0869 -0.8445
    8SAPS  H20S 1014   2.449   3.750   8.604 -0.3948 -0.2031  0.8007
    8SAPS  H20T 1015   2.354   3.866   8.497  1.8317 -0.1784 -0.4599
    8SAPS   C33 1016   1.404   3.248  10.141  0.0917  0.1272  0.0330
    8SAPS   H3X 1017   1.345   3.239  10.047 -2.8506 -0.0635  1.7622
    8SAPS   H3Y 1018   1.392   3.149  10.191 -0.3208  1.1282  1.9987
    8SAPS   C34 1019   1.547   3.273  10.094  0.0488 -0.3844  0.0279
    8SAPS   H4X 1020   1.571   3.181  10.036 -0.9021  0.1544 -1.2851
    8SAPS   H4Y 1021   1.603   3.277  10.190  1.8867  1.5621 -1.0473
    8SAPS   C35 1022   1.589   3.400  10.015  0.6373  0.0934  0.2781
    8SAPS   H5X 1023   1.699   3.388  10.006  0.6923  1.2416 -0.9278
    8SAPS   H5Y 1024   1.566   3.492  10.073  1.4912 -0.2357  1.1674
    8SAPS   C36 1025   1.533   3.405   9.869  0.0406  0.3059  0.2106
    8SAPS   H6X 1026   1.429   3.444   9.875  0.1884  1.0243 -1.4962
    8SAPS   H6Y 1027   1.532   3.300   9.833 -0.3252  0.9303 -1.6980
    8SAPS   C37 1028   1.618   3.476   9.762  0.2687  0.1868 -0.1234
    8SAPS   H7X 1029   1.723   3.442   9.763 -0.2940 -1.7387 -1.5552
    8SAPS   H7Y 1030   1.627   3.584   9.789 -0.3581 -0.2158  1.9107
    8SAPS   C38 1031   1.549   3.471   9.624 -0.2918 -0.1900  0.3427
    8SAPS   H8X 1032   1.599   3.535   9.549 -0.4684  1.2399  1.3943
    8SAPS   H8Y 1033   1.442   3.501   9.616 -0.2749 -0.1461  0.2843
    8SAPS   C39 1034   1.528   3.326   9.573 -0.9883 -0.3164 -0.0211
    8SAPS   H9X 1035   1.469   3.265   9.645  1.0092 -1.2565  0.8893
    8SAPS   H9Y 1036   1.625   3.272   9.580 -0.9393 -0.1472  0.6367
    8SAPS  C310 1037   1.477   3.307   9.430 -0.3684 -0.3256 -0.4056
    8SAPS  H10X 1038   1.530   3.372   9.357 -0.7438  1.3021  0.7201
    8SAPS  H10Y 1039   1.373   3.347   9.426  0.1911  1.1294 -0.8855
    8SAPS  C311 1040   1.496   3.161   9.376  0.5360 -0.8718 -0.0379
    8SAPS  H11X 1041   1.492   3.080   9.451 -0.9439 -2.2451 -1.5243
    8SAPS  H11Y 1042   1.596   3.151   9.328  0.3452 -1.9346 -0.2260
    8SAPS  C312 1043   1.397   3.142   9.257  0.1387 -0.3597 -0.5190
    8SAPS  H12X 1044   1.293   3.152   9.297 -0.5723 -3.7000 -1.2630
    8SAPS  H12Y 1045   1.403   3.037   9.221  0.5293  0.2599 -2.3630
    8SAPS  C313 1046   1.410   3.227   9.132  0.5149 -0.5345  0.3059
    8SAPS  H13X 1047   1.517   3.214   9.105  0.6828  1.5821 -0.2863
    8SAPS  H13Y 1048   1.393   3.334   9.158 -0.2675 -0.2297 -1.3609
    8SAPS  C314 1049   1.326   3.181   9.015  0.1638 -0.3115 -0.4261
    8SAPS  H14X 1050   1.223   3.157   9.048  0.0911  0.4641 -0.0712
    8SAPS  H14Y 1051   1.368   3.091   8.965 -1.1178 -1.2178  0.0787
    8SAPS  C315 1052   1.317   3.289   8.910  0.4185 -0.1085 -0.3873
    8SAPS  H15X 1053   1.421   3.325   8.894  2.2873 -4.2131  1.0292
    8SAPS  H15Y 1054   1.259   3.378   8.942 -1.2229 -1.3600  0.2499
    8SAPS  C316 1055   1.243   3.237   8.785  0.3911 -0.0060 -0.1395
    8SAPS  H16X 1056   1.140   3.223   8.824  0.4486 -0.9078 -0.2836
    8SAPS  H16Y 1057   1.277   3.135   8.758 -2.3448 -0.9531 -0.3148
    8SAPS  C317 1058   1.265   3.335   8.667  0.0070 -0.3160  0.0680
    8SAPS  H17X 1059   1.368   3.330   8.626 -1.0381  0.4419 -2.8248
    8SAPS  H17Y 1060   1.265   3.440   8.703 -1.0607 -0.6303  1.0619
    8SAPS  C318 1061   1.172   3.307   8.551 -0.3856  0.4664 -0.5571
    8SAPS  H18X 1062   1.205   3.361   8.460 -1.5869  0.1922 -1.1810
    8SAPS  H18Y 1063   1.064   3.333   8.562 -0.3850  0.1696  0.2781
    8SAPS  H18Z 1064   1.182   3.200   8.523 -1.6777  0.4389 -1.0000
    9SAPS     N 1065   1.865   0.215   6.114  0.4646 -0.2907 -0.3044
    9SAPS   HN1 1066   1.863   0.117   6.080  1.7821 -0.2060 -0.6881
    9SAPS   HN2 1067   1.866   0.227   6.218  0.9670  0.2342 -0.3639
    9SAPS   HN3 1068   1.772   0.261   6.105  0.3498  1.5465  5.7231
    9SAPS   C12 1069   1.976   0.297   6.069 -0.6306  0.4288  0.8720
    9SAPS  H12A 1070   2.066   0.239   6.082 -0.2692  1.1580  1.7363
    9SAPS   C13 1071   1.964   0.336   5.927 -1.1371 -0.9122  0.9208
    9SAPS  O13A 1072   1.879   0.290   5.846 -0.4870 -0.1576 -0.2672
    9SAPS  O13B 1073   2.061   0.399   5.873 -0.0946  0.3381  0.1425
    9SAPS   C11 1074   2.002   0.419   6.165 -0.1403 -0.4878 -0.6020
    9SAPS  H11A 1075   1.921   0.495   6.155  0.9927  1.3749  2.6129
    9SAPS  H11B 1076   2.095   0.471   6.135 -0.3855  0.7090  0.5845
    9SAPS     P 1077   1.930   0.451   6.417  0.7540  0.0793  0.0010
    9SAPS   O13 1078   1.953   0.599   6.412 -0.2704  0.1788 -0.0501
    9SAPS   O14 1079   1.790   0.401   6.410 -0.2907 -0.4023 -0.4899
    9SAPS   O12 1080   2.020   0.387   6.303 -0.9126  0.3277  0.0011
    9SAPS   O11 1081   1.999   0.390   6.546 -0.5657  0.2635  0.2992
    9SAPS    C1 1082   2.128   0.435   6.587 -0.4094 -0.4777 -0.5541
    9SAPS    HA 1083   2.191   0.347   6.611  1.2633  0.9355  0.3869
    9SAPS    HB 1084   2.193   0.499   6.523  0.4601  0.2357  1.0061
    9SAPS    C2 1085   2.113   0.521   6.709  0.0265  0.0254 -0.3397
    9SAPS    HS 1086   2.208   0.567   6.743  0.7817 -1.9945  0.4206
    9SAPS   O21 1087   2.057   0.442   6.811  1.1388  0.2236 -0.2992
    9SAPS   C21 1088   2.134   0.362   6.876  0.3788 -0.3589  0.1356
    9SAPS   O22 1089   2.256   0.351   6.863  0.5032  0.2777 -0.1198
    9SAPS   C22 1090   2.047   0.306   6.984 -0.3589 -0.3240  0.3608
    9SAPS   H2R 1091   1.962   0.245   6.947  0.3867 -0.9789 -0.3105
    9SAPS   H2S 1092   2.109   0.236   7.044  1.1007  0.5160 -0.1127
    9SAPS    C3 1093   2.015   0.637   6.703 -0.5465  0.7147  0.0951
    9SAPS    HX 1094   1.911   0.606   6.679 -0.3528  1.0560 -1.2522
    9SAPS    HY 1095   2.063   0.701   6.627  1.5280 -1.5670 -0.6528
    9SAPS   O31 1096   2.020   0.704   6.830 -0.3845 -0.1580  0.1771
    9SAPS   C31 1097   1.946   0.813   6.840 -0.3573  0.1101  0.6515
    9SAPS   O32 1098   1.865   0.857   6.756 -0.1446 -0.2476  0.7816
    9SAPS   C32 1099   2.007   0.892   6.963 -0.0691 -0.3894  0.1068
    9SAPS   H2X 1100   1.977   0.999   6.955  0.0480 -0.2086  1.8512
    9SAPS   H2Y 1101   2.117   0.899   6.950 -0.3639  1.4923 -1.9719
    9SAPS   C23 1102   1.997   0.410   7.090  0.3188 -0.8469  0.1543
    9SAPS   H3R 1103   1.938   0.493   7.046  1.3718  0.0388  0.3866
    9SAPS   H3S 1104   2.080   0.465   7.139 -0.5659 -0.5168  1.3266
    9SAPS   C24 1105   1.897   0.355   7.200  0.5639 -0.3099 -0.1330
    9SAPS   H4R 1106   1.817   0.293   7.155  0.9994 -1.3530  0.4809
    9SAPS   H4S 1107   1.855   0.450   7.240  1.1604 -0.3765  0.6961
    9SAPS   C25 1108   1.957   0.262   7.306 -0.4455  0.1961  0.4804
    9SAPS   H5R 1109   2.057   0.225   7.280 -0.7966  0.4713 -1.4376
    9SAPS   C26 1110   1.904   0.220   7.419  0.0145 -0.0469  0.3716
    9SAPS   H6R 1111   1.959   0.150   7.484  1.2141  0.5487  0.0324
    9SAPS   C27 1112   1.764   0.269   7.460  0.2413  0.0763 -0.0179
    9SAPS   H7R 1113   1.699   0.268   7.370  1.3776  0.4225 -0.8680
    9SAPS   H7S 1114   1.766   0.372   7.501 -1.3780  1.1932 -2.4826
    9SAPS   C28 1115   1.696   0.169   7.555 -0.0993 -0.4147 -0.6709
    9SAPS   H8R 1116   1.699   0.064   7.523 -2.2591 -0.9482  0.6607
    9SAPS   C29 1117   1.619   0.200   7.660 -0.2435  0.2065 -0.2884
    9SAPS   H9R 1118   1.564   0.119   7.710 -0.4356 -0.6032 -1.7637
    9SAPS  C210 1119   1.592   0.337   7.713  0.6521  0.1585  0.6682
    9SAPS  H10R 1120   1.503   0.332   7.778  0.8699 -0.8883  0.9043
    9SAPS  H10S 1121   1.570   0.406   7.628  1.4538 -0.6696 -0.2418
    9SAPS  C211 1122   1.703   0.405   7.792 -0.3207  0.0528 -0.4514
    9SAPS  H11R 1123   1.774   0.463   7.732  0.1560  2.3769  2.1455
    9SAPS  C212 1124   1.713   0.424   7.926  0.0432 -0.5458  0.0119
    9SAPS  H12R 1125   1.787   0.497   7.962  1.2872 -1.6783 -0.1523
    9SAPS  C213 1126   1.621   0.367   8.030  0.2382 -0.2018 -0.5644
    9SAPS  H13R 1127   1.676   0.341   8.123 -1.2883  0.1238  0.4731
    9SAPS  H13S 1128   1.590   0.268   7.992  1.1292 -1.0645  0.8807
    9SAPS  C214 1129   1.502   0.448   8.066  0.4662  0.6600 -0.0952
    9SAPS  H14R 1130   1.418   0.457   7.996 -1.3847  2.3025  2.1499
    9SAPS  C215 1131   1.483   0.507   8.190  0.7646  0.3130  0.1963
    9SAPS  H15R 1132   1.392   0.566   8.209  1.7773  1.7305  0.7853
    9SAPS  C216 1133   1.576   0.508   8.302 -0.1983  0.1134 -0.8609
    9SAPS  H16R 1134   1.642   0.420   8.321 -1.2625 -1.2766 -3.1439
    9SAPS  H16S 1135   1.513   0.507   8.393 -1.4250 -0.6711 -1.6791
    9SAPS  C217 1136   1.672   0.628   8.294  0.4352  0.2031  0.4102
    9SAPS  H17R 1137   1.610   0.717   8.314  0.1644 -0.1118  0.9940
    9SAPS  H17S 1138   1.712   0.640   8.191  1.6515 -0.5614  0.7768
    9SAPS  C218 1139   1.790   0.619   8.399  0.6404 -0.8991 -0.1950
    9SAPS  H18R 1140   1.867   0.545   8.368  3.4928  1.3267  1.1264
    9SAPS  H18S 1141   1.730   0.610   8.492 -2.2958  2.8029 -1.4679
    9SAPS  C219 1142   1.861   0.758   8.420 -0.1464 -0.0415 -0.3026
    9SAPS  H19R 1143   1.779   0.822   8.460  1.9780  3.0206 -0.5717
    9SAPS  H19S 1144   1.895   0.804   8.325 -0.0703  4.0993  1.4925
    9SAPS  C220 1145   1.974   0.738   8.519 -0.7160  0.0218 -0.4106
    9SAPS  H20R 1146   2.054   0.673   8.478 -0.5610 -0.1246  0.1137
    9SAPS  H20S 1147   1.948   0.682   8.612  0.3497  0.9877  0.5123
    9SAPS  H20T 1148   2.030   0.828   8.552  2.8677 -2.1053 -0.1813
    9SAPS   C33 1149   1.978   0.834   7.096  0.2016  0.0773 -0.9489
    9SAPS   H3X 1150   1.987   0.724   7.085  1.6009  0.2442 -1.7371
    9SAPS   H3Y 1151   1.873   0.843   7.130 -0.4169 -2.1838 -2.0661
    9SAPS   C34 1152   2.064   0.891   7.204 -0.2038 -0.2703  0.2003
    9SAPS   H4X 1153   2.048   1.001   7.212 -1.0577 -0.2225 -1.6529
    9SAPS   H4Y 1154   2.171   0.885   7.174 -0.3054 -2.7913  0.2048
    9SAPS   C35 1155   2.031   0.832   7.342 -1.0347 -0.9642  0.3840
    9SAPS   H5X 1156   1.923   0.806   7.351 -0.8538 -1.7007  0.5462
    9SAPS   H5Y 1157   2.061   0.896   7.428  1.3630 -1.2906 -0.1310
    9SAPS   C36 1158   2.118   0.701   7.359  0.1297  0.3315 -0.2157
    9SAPS   H6X 1159   2.226   0.723   7.363 -0.2584  2.2835  0.2598
    9SAPS   H6Y 1160   2.103   0.628   7.275 -0.4909  1.0824 -0.7760
    9SAPS   C37 1161   2.098   0.617   7.479 -0.5883  0.2770  0.7544
    9SAPS   H7X 1162   2.013   0.548   7.459  2.4722 -3.9898  1.2326
    9SAPS   H7Y 1163   2.069   0.689   7.558  1.3064  2.0132 -0.0570
    9SAPS   C38 1164   2.228   0.545   7.526 -0.8714  0.1173  0.1622
    9SAPS   H8X 1165   2.299   0.630   7.535 -0.4497 -0.0277 -1.5117
    9SAPS   H8Y 1166   2.269   0.471   7.454 -1.2429 -0.4483  0.5251
    9SAPS   C39 1167   2.219   0.481   7.671  0.1881  0.4786 -0.0449
    9SAPS   H9X 1168   2.195   0.568   7.737  0.0373  2.3208 -2.3915
    9SAPS   H9Y 1169   2.322   0.444   7.690 -0.4507 -1.0743  0.5410
    9SAPS  C310 1170   2.114   0.369   7.678  0.1805  0.1497 -0.0812
    9SAPS  H10X 1171   2.136   0.278   7.618  1.8825 -0.6528  1.6510
    9SAPS  H10Y 1172   2.009   0.399   7.658  0.1135  0.3810  0.5932
    9SAPS  C311 1173   2.099   0.311   7.827 -0.3396 -0.2138  0.0689
    9SAPS  H11X 1174   2.052   0.394   7.885  1.1936  1.0187 -0.3655
    9SAPS  H11Y 1175   2.198   0.285   7.868  0.0967  1.0110 -0.1570
    9SAPS  C312 1176   2.013   0.183   7.832 -0.4174  0.7235  0.1940
    9SAPS  H12X 1177   2.049   0.105   7.761 -1.4885  0.8330 -0.5008
    9SAPS  H12Y 1178   1.912   0.211   7.793  0.1012  0.2813 -1.5504
    9SAPS  C313 1179   2.020   0.122   7.973 -0.7117  0.0270  0.3603
    9SAPS  H13X 1180   2.128   0.095   7.977 -0.6199  0.1965 -0.7275
    9SAPS  H13Y 1181   1.967   0.025   7.978  0.6485 -0.7428  0.5272
    9SAPS  C314 1182   1.974   0.209   8.091 -0.9680  0.1020 -0.0658
    9SAPS  H14X 1183   1.875   0.253   8.069 -0.8027 -0.1125 -1.2678
    9SAPS  H14Y 1184   2.040   0.298   8.098 -2.2977  1.0353  1.4055
    9SAPS  C315 1185   1.982   0.139   8.228 -0.7699  0.1784  0.2045
    9SAPS  H15X 1186   2.079   0.086   8.231  0.0776  1.6417 -0.4683
    9SAPS  H15Y 1187   1.896   0.069   8.244  0.8014 -1.7078  0.8757
    9SAPS  C316 1188   1.978   0.238   8.340 -0.9104 -0.1452 -0.0046
    9SAPS  H16X 1189   1.922   0.203   8.430  1.9847 -3.5482  0.7093
    9SAPS  H16Y 1190   1.942   0.338   8.308  0.5583  0.3415 -0.2147
    9SAPS  C317 1191   2.120   0.272   8.401  0.3052  0.1488  0.7824
    9SAPS  H17X 1192   2.206   0.278   8.332 -0.2898 -0.5044 -0.0354
    9SAPS  H17Y 1193   2.144   0.191   8.473 -0.5342 -0.6626  0.1708
    9SAPS  C318 1194   2.112   0.406   8.473  0.2972 -0.1859 -0.5791
    9SAPS  H18X 1195   2.037   0.401   8.555  0.3889 -1.2098 -0.5380
    9SAPS  H18Y 1196   2.071   0.473   8.395 -3.2598 -1.6920 -0.1887
    9SAPS  H18Z 1197   2.207   0.446   8.516  1.2150 -1.9075 -0.9173
   10SAPS     N 1198   3.830   1.122   6.161 -0.2528  0.6508  0.0992
   10SAPS   HN1 1199   3.882   1.211   6.169  0.2099  0.5011 -1.0242
   10SAPS   HN2 1200   3.750   1.144   6.098 -1.2322 -0.6717  0.8185
   10SAPS   HN3 1201   3.809   1.086   6.257  0.1714  0.1395  0.0050
   10SAPS   C12 1202   3.907   1.015   6.095 -0.1816  0.8518 -0.4172
   10SAPS  H12A 1203   3.839   0.932   6.081 -0.1781  0.8993 -0.7349
   10SAPS   C13 1204   3.984   1.037   5.961 -0.3154  0.2004  0.1318
   10SAPS  O13A 1205   3.979   1.148   5.898  0.5007  0.2175  0.4094
   10SAPS  O13B 1206   4.055   0.941   5.912  0.1617  0.4236 -0.3339
   10SAPS   C11 1207   4.007   0.957   6.204  0.3971 -0.3282 -0.0052
   10SAPS  H11A 1208   4.069   0.877   6.159  1.4180  0.2344  0.3751
   10SAPS  H11B 1209   3.951   0.908   6.287 -0.3310  1.3363  0.5205
   10SAPS     P 1210   4.207   1.018   6.347 -0.5885 -0.0897 -0.1031
   10SAPS   O13 1211   4.299   0.928   6.273  0.2287 -0.0086  0.3607
   10SAPS   O14 1212   4.265   1.145   6.398  0.1735 -0.4091 -0.1253
   10SAPS   O12 1213   4.090   1.063   6.247  0.5633 -0.0298  0.1553
   10SAPS   O11 1214   4.120   0.937   6.452  0.2347  0.0437  0.3298
   10SAPS    C1 1215   4.189   0.887   6.570 -0.3927 -0.1963  0.1562
   10SAPS    HA 1216   4.141   0.792   6.602 -3.6666  0.9252 -1.0300
   10SAPS    HB 1217   4.300   0.880   6.564 -0.5199 -1.7554 -1.2990
   10SAPS    C2 1218   4.160   0.985   6.691 -0.0315  0.3170  0.0067
   10SAPS    HS 1219   4.169   1.083   6.639  2.9905 -0.9676 -2.2245
   10SAPS   O21 1220   4.263   0.965   6.789 -0.0059  0.0501 -0.0535
   10SAPS   C21 1221   4.358   1.054   6.777 -0.3565  0.0322  0.0826
   10SAPS   O22 1222   4.355   1.159   6.719  0.0468  0.0609 -0.3821
   10SAPS   C22 1223   4.474   0.988   6.851 -0.2568 -0.6397  0.1479
   10SAPS   H2R 1224   4.485   0.883   6.815  0.2732 -0.6513  0.3246
   10SAPS   H2S 1225   4.567   1.045   6.826 -1.4743  1.6851  0.6161
   10SAPS    C3 1226   4.016   0.976   6.743 -0.3333  0.8878 -0.1941
   10SAPS    HX 1227   3.951   1.007   6.659 -2.2593  2.3472  1.7103
   10SAPS    HY 1228   4.015   1.050   6.827  0.9480 -0.2805  0.8948
   10SAPS   O31 1229   3.984   0.847   6.803  0.3488 -0.5354 -0.5220
   10SAPS   C31 1230   3.865   0.842   6.858  0.3601 -0.3235  0.2306
   10SAPS   O32 1231   3.795   0.943   6.866 -0.1070 -0.1790 -0.0131
   10SAPS   C32 1232   3.832   0.703   6.904  0.4034  0.0746  0.1056
   10SAPS   H2X 1233   3.886   0.634   6.836  0.3598 -0.1638  0.3123
   10SAPS   H2Y 1234   3.723   0.681   6.898  0.5170 -0.5150  0.0830
   10SAPS   C23 1235   4.449   0.995   7.000 -0.3068  0.4620 -0.1948
   10SAPS   H3R 1236   4.349   0.957   7.029  0.1784  0.5399  1.6986
   10SAPS   H3S 1237   4.460   1.101   7.033 -2.0691  0.6417 -0.1105
   10SAPS   C24 1238   4.544   0.903   7.077 -0.4212  0.5468 -0.1939
   10SAPS   H4R 1239   4.516   0.799   7.052 -0.6887  0.5856 -0.0549
   10SAPS   H4S 1240   4.537   0.909   7.187  0.4946 -3.1724  0.1881
   10SAPS   C25 1241   4.690   0.922   7.041  0.5269 -0.0120 -0.7551
   10SAPS   H5R 1242   4.729   0.876   6.950  0.8010 -1.8613  0.2439
   10SAPS   C26 1243   4.774   0.982   7.126 -0.0095 -0.6245  0.2347
   10SAPS   H6R 1244   4.876   1.003   7.090 -0.7916  0.0473 -1.7807
   10SAPS   C27 1245   4.754   1.037   7.264  0.5113 -1.2503  0.8635
   10SAPS   H7R 1246   4.717   0.956   7.330 -0.9763 -0.0732  1.5465
   10SAPS   H7S 1247   4.676   1.114   7.247  0.9963 -1.1381 -1.1375
   10SAPS   C28 1248   4.886   1.111   7.306 -0.2291  0.2751  0.4758
   10SAPS   H8R 1249   4.977   1.112   7.244 -0.3797  0.1922  0.2499
   10SAPS   C29 1250   4.903   1.156   7.427  0.0486  0.5269  0.0315
   10SAPS   H9R 1251   4.995   1.209   7.455  0.0098  0.4707  0.2737
   10SAPS  C210 1252   4.810   1.142   7.544  0.5354 -0.1238 -0.3816
   10SAPS  H10R 1253   4.737   1.062   7.520 -0.7480  0.7557  0.4375
   10SAPS  H10S 1254   4.757   1.240   7.555  2.0145  0.7474 -0.7478
   10SAPS  C211 1255   4.882   1.109   7.679  0.1154 -0.6736 -0.6417
   10SAPS  H11R 1256   4.975   1.051   7.671  1.9419  2.0902 -0.4835
   10SAPS  C212 1257   4.868   1.176   7.800 -0.5784  0.1194  0.7189
   10SAPS  H12R 1258   4.941   1.151   7.878 -0.1880 -3.5066 -0.6060
   10SAPS  C213 1259   4.778   1.299   7.830 -0.0156 -0.0996  0.3576
   10SAPS  H13R 1260   4.693   1.303   7.758  1.0167  1.3293 -0.8360
   10SAPS  H13S 1261   4.828   1.397   7.821 -2.4834  1.0870 -1.7635
   10SAPS  C214 1262   4.717   1.302   7.969 -0.0505  0.2704  0.1339
   10SAPS  H14R 1263   4.620   1.251   7.976  0.0576  0.2919  3.4288
   10SAPS  C215 1264   4.775   1.353   8.074 -0.1661  0.0298 -0.2418
   10SAPS  H15R 1265   4.719   1.345   8.168 -0.2734 -0.3653 -0.3373
   10SAPS  C216 1266   4.916   1.410   8.071  0.6547 -0.0246 -0.0801
   10SAPS  H16R 1267   4.916   1.522   8.075 -1.5492 -0.0060  2.9515
   10SAPS  H16S 1268   4.961   1.386   7.972 -0.3390 -0.4878 -0.4350
   10SAPS  C217 1269   5.013   1.346   8.165 -0.1892  0.2777 -0.2392
   10SAPS  H17R 1270   5.116   1.377   8.136 -0.2230  0.6896  0.0759
   10SAPS  H17S 1271   5.007   1.236   8.155 -1.3218  0.1694  1.3890
   10SAPS  C218 1272   5.003   1.392   8.311 -0.0318  0.0006 -0.1570
   10SAPS  H18R 1273   4.907   1.358   8.357 -0.6896  1.3011 -0.5199
   10SAPS  H18S 1274   4.991   1.502   8.320  0.5838 -0.1155  3.0551
   10SAPS  C219 1275   5.119   1.362   8.401  0.4943  0.0720  0.1126
   10SAPS  H19R 1276   5.096   1.424   8.490  1.0782 -1.1476  1.1456
   10SAPS  H19S 1277   5.215   1.390   8.353  0.6889 -0.1623  0.3600
   10SAPS  C220 1278   5.131   1.214   8.433 -0.3226  0.3952  0.3396
   10SAPS  H20R 1279   5.167   1.149   8.351  2.3999  1.5847  0.4868
   10SAPS  H20S 1280   5.037   1.177   8.479 -1.2194  2.7005  0.4879
   10SAPS  H20T 1281   5.211   1.203   8.509 -0.3551  0.2442  0.3531
   10SAPS   C33 1282   3.879   0.669   7.044  0.3111 -0.1849 -0.5897
   10SAPS   H3X 1283   3.983   0.702   7.066 -0.5045  1.0926  1.7125
   10SAPS   H3Y 1284   3.881   0.558   7.046 -1.6015 -0.2726  2.2395
   10SAPS   C34 1285   3.796   0.711   7.165  0.2126  0.9022 -0.2480
   10SAPS   H4X 1286   3.690   0.698   7.136  0.5629  0.7625 -1.5305
   10SAPS   H4Y 1287   3.821   0.818   7.183 -1.1277  1.1372  0.3342
   10SAPS   C35 1288   3.842   0.634   7.294 -0.0565 -0.3766  0.0937
   10SAPS   H5X 1289   3.952   0.643   7.296  0.2520 -3.0046 -1.0824
   10SAPS   H5Y 1290   3.818   0.527   7.278  0.2383 -0.5083  0.5501
   10SAPS   C36 1291   3.785   0.689   7.424 -0.1011  0.1416  0.2707
   10SAPS   H6X 1292   3.675   0.678   7.416  0.1104 -0.8632 -2.6674
   10SAPS   H6Y 1293   3.806   0.798   7.429 -0.3471  0.1336  1.8866
   10SAPS   C37 1294   3.843   0.622   7.549 -0.5862  0.3944 -0.0120
   10SAPS   H7X 1295   3.796   0.522   7.563  0.1539 -0.3457 -2.2865
   10SAPS   H7Y 1296   3.812   0.687   7.634 -3.0944 -0.3809 -0.2299
   10SAPS   C38 1297   3.995   0.588   7.553  0.0117 -0.4015  0.1317
   10SAPS   H8X 1298   4.055   0.680   7.533  1.3213 -0.7091  2.2668
   10SAPS   H8Y 1299   4.014   0.517   7.470  3.4241 -0.1591  0.5231
   10SAPS   C39 1300   4.044   0.520   7.678  0.0260 -0.2026  0.2624
   10SAPS   H9X 1301   4.017   0.413   7.674 -0.3636 -0.0983 -2.7967
   10SAPS   H9Y 1302   3.986   0.558   7.765  0.7009  0.7056  0.3329
   10SAPS  C310 1303   4.201   0.553   7.694 -0.4674 -0.0267 -0.2824
   10SAPS  H10X 1304   4.210   0.652   7.744  0.1041 -0.5624  0.6910
   10SAPS  H10Y 1305   4.245   0.572   7.594  0.9150  0.1793  0.3414
   10SAPS  C311 1306   4.282   0.436   7.755  0.9252  0.4412 -0.2275
   10SAPS  H11X 1307   4.391   0.458   7.746  0.8047  1.2956  0.3187
   10SAPS  H11Y 1308   4.265   0.353   7.682  0.6536 -1.6251  2.0644
   10SAPS  C312 1309   4.249   0.393   7.899 -0.1723 -0.1608  0.0467
   10SAPS  H12X 1310   4.307   0.300   7.918  0.4509  0.4475  1.2537
   10SAPS  H12Y 1311   4.140   0.375   7.907 -0.3742  0.8049 -0.4700
   10SAPS  C313 1312   4.297   0.485   8.007  0.1802 -0.2826  0.1091
   10SAPS  H13X 1313   4.238   0.577   7.986  0.4641 -0.8299 -3.7905
   10SAPS  H13Y 1314   4.405   0.506   7.997  0.0119  2.2278  2.4597
   10SAPS  C314 1315   4.264   0.428   8.150 -0.6311 -1.0642  0.3991
   10SAPS  H14X 1316   4.296   0.322   8.160 -0.9562 -1.3426 -1.1896
   10SAPS  H14Y 1317   4.156   0.437   8.170 -1.2185  0.4447 -2.7542
   10SAPS  C315 1318   4.331   0.513   8.268  0.6244 -0.4187  0.4909
   10SAPS  H15X 1319   4.280   0.611   8.277  0.5593 -0.3510 -0.5849
   10SAPS  H15Y 1320   4.439   0.525   8.244  0.4750  0.7694  0.3420
   10SAPS  C316 1321   4.320   0.453   8.409  0.1497  0.0325  0.3734
   10SAPS  H16X 1322   4.362   0.350   8.407 -1.3480 -0.5841 -0.8599
   10SAPS  H16Y 1323   4.211   0.453   8.429 -0.0166  1.5195 -0.3892
   10SAPS  C317 1324   4.382   0.538   8.523  0.5130 -0.1174 -0.0230
   10SAPS  H17X 1325   4.366   0.473   8.612 -2.7049  1.9862  1.1396
   10SAPS  H17Y 1326   4.325   0.632   8.539 -0.4801 -0.8750  1.0873
   10SAPS  C318 1327   4.527   0.572   8.506  0.5299  0.9055  0.0380
   10SAPS  H18X 1328   4.574   0.475   8.480  1.4475  1.8909 -2.2366
   10SAPS  H18Y 1329   4.574   0.632   8.587 -0.3797 -1.0594  2.1375
   10SAPS  H18Z 1330   4.542   0.633   8.414 -0.3621  0.0664 -0.6814
   11SAPS     N 1331   4.477   4.558   5.688  0.1856 -0.3425 -0.4645
   11SAPS   HN1 1332   4.502   4.522   5.594  0.2931  0.5399 -0.7766
   11SAPS   HN2 1333   4.558   4.532   5.748 -0.6612 -0.2634  0.7450
   11SAPS   HN3 1334   4.404   4.506   5.740 -1.1984  2.2711  0.3790
   11SAPS   C12 1335   4.463   4.708   5.701 -0.0190 -0.3038  0.0855
   11SAPS  H12A 1336   4.551   4.750   5.655 -0.7765  2.3860  0.9240
   11SAPS   C13 1337   4.339   4.763   5.617  0.0128 -0.6857 -0.8221
   11SAPS  O13A 1338   4.264   4.684   5.556  0.5670  0.2393 -0.3899
   11SAPS  O13B 1339   4.334   4.884   5.605  0.6028 -0.2831  0.1109
   11SAPS   C11 1340   4.456   4.754   5.855 -0.0158 -1.0362  0.8165
   11SAPS  H11A 1341   4.349   4.729   5.872 -1.6154  2.3594 -2.7968
   11SAPS  H11B 1342   4.467   4.864   5.855 -0.7040 -0.9146 -1.5102
   11SAPS     P 1343   4.656   4.744   6.030 -0.0515  0.5501 -0.0523
   11SAPS   O13 1344   4.726   4.622   6.084  0.0534  0.0567 -0.2358
   11SAPS   O14 1345   4.728   4.855   5.968  0.0972  0.2559 -0.9246
   11SAPS   O12 1346   4.558   4.690   5.932  0.8221 -0.0716  0.3123
   11SAPS   O11 1347   4.568   4.804   6.149  0.0569 -0.0854 -0.5942
   11SAPS    C1 1348   4.478   4.717   6.228 -0.4494 -0.3560 -0.2401
   11SAPS    HA 1349   4.372   4.730   6.196 -0.2215  1.1668 -0.4591
   11SAPS    HB 1350   4.504   4.609   6.226  0.1284 -0.2527  0.7537
   11SAPS    C2 1351   4.483   4.746   6.380 -0.1047  0.2812  0.3567
   11SAPS    HS 1352   4.450   4.850   6.405 -1.2466 -0.1896  0.8911
   11SAPS   O21 1353   4.619   4.734   6.421  0.1266 -0.5113 -0.2903
   11SAPS   C21 1354   4.695   4.848   6.411  0.6954  0.1626  0.4622
   11SAPS   O22 1355   4.657   4.954   6.364 -0.0683 -0.2707  0.3567
   11SAPS   C22 1356   4.838   4.821   6.468 -0.4363 -0.3016 -0.2756
   11SAPS   H2R 1357   4.860   4.883   6.558  2.0796  1.1430 -1.7622
   11SAPS   H2S 1358   4.843   4.716   6.504 -0.5866 -0.1166  0.3043
   11SAPS    C3 1359   4.389   4.647   6.455 -0.3618 -0.4961 -0.2334
   11SAPS    HX 1360   4.455   4.568   6.496  0.0250 -1.4527 -2.5247
   11SAPS    HY 1361   4.309   4.604   6.392 -2.0384  3.1319 -0.8295
   11SAPS   O31 1362   4.337   4.724   6.564 -0.2515 -0.0985  0.1608
   11SAPS   C31 1363   4.284   4.662   6.663  0.4556 -0.1333 -1.0723
   11SAPS   O32 1364   4.294   4.546   6.689 -0.4714  0.1423 -0.1132
   11SAPS   C32 1365   4.205   4.773   6.740 -0.0022 -0.2561 -0.1628
   11SAPS   H2X 1366   4.100   4.751   6.709 -0.2298  0.0641  0.3602
   11SAPS   H2Y 1367   4.234   4.868   6.690 -0.6894  0.1309  0.1647
   11SAPS   C23 1368   4.948   4.839   6.360  0.4758 -0.8447  0.4254
   11SAPS   H3R 1369   4.953   4.941   6.317 -2.2088 -0.0157  1.8492
   11SAPS   H3S 1370   4.930   4.781   6.266 -0.0478  0.9260 -0.6134
   11SAPS   C24 1371   5.085   4.795   6.407  0.1051 -0.3569  0.3451
   11SAPS   H4R 1372   5.151   4.761   6.324 -0.7271  1.0010 -0.9288
   11SAPS   H4S 1373   5.076   4.703   6.468  1.7824  0.0176  1.2246
   11SAPS   C25 1374   5.155   4.896   6.497  0.1155 -0.3175  1.1478
   11SAPS   H5R 1375   5.201   4.973   6.433  1.1480 -2.4354 -0.8094
   11SAPS   C26 1376   5.175   4.897   6.634 -0.2010  0.4852  0.5745
   11SAPS   H6R 1377   5.231   4.979   6.680  0.8413 -0.2163  0.6083
   11SAPS   C27 1378   5.105   4.797   6.723 -0.1095  0.1136 -0.0948
   11SAPS   H7R 1379   4.998   4.798   6.694 -0.1705  3.2629 -0.0466
   11SAPS   H7S 1380   5.095   4.852   6.820 -1.4449  1.9246 -1.1912
   11SAPS   C28 1381   5.157   4.658   6.726 -0.1753  0.0701  0.7797
   11SAPS   H8R 1382   5.140   4.595   6.638  1.6630  1.3614 -0.5708
   11SAPS   C29 1383   5.211   4.596   6.834 -0.4852  0.6399  0.1313
   11SAPS   H9R 1384   5.240   4.492   6.810 -0.3971  0.6885  0.0234
   11SAPS  C210 1385   5.244   4.664   6.964 -0.7208  0.1204  0.6256
   11SAPS  H10R 1386   5.285   4.765   6.942  0.1710 -0.7373 -1.9757
   11SAPS  H10S 1387   5.323   4.608   7.018  0.3784 -0.2767 -1.3275
   11SAPS  C211 1388   5.122   4.676   7.045  0.7457 -0.4900 -0.0631
   11SAPS  H11R 1389   5.032   4.700   6.986 -0.4804 -1.1898  1.4483
   11SAPS  C212 1390   5.121   4.679   7.177 -0.0135 -0.2746  0.3969
   11SAPS  H12R 1391   5.023   4.695   7.225 -0.2445  0.2076 -0.2137
   11SAPS  C213 1392   5.241   4.663   7.271  0.3272 -0.2970  0.1451
   11SAPS  H13R 1393   5.234   4.723   7.364 -0.2416 -1.0509  0.5979
   11SAPS  H13S 1394   5.336   4.689   7.220 -1.2810  0.6197 -2.6644
   11SAPS  C214 1395   5.242   4.516   7.296  0.1120 -0.0264 -0.2042
   11SAPS  H14R 1396   5.276   4.444   7.219  1.7267  1.1391 -0.6472
   11SAPS  C215 1397   5.198   4.452   7.406  0.3063  0.5168 -0.0038
   11SAPS  H15R 1398   5.224   4.345   7.415  2.7667  1.0937  0.7516
   11SAPS  C216 1399   5.143   4.515   7.532 -0.4531  0.2909  0.2214
   11SAPS  H16R 1400   5.083   4.445   7.593 -0.0065 -1.4569 -1.2598
   11SAPS  H16S 1401   5.079   4.604   7.512  1.9682  1.5440 -2.9500
   11SAPS  C217 1402   5.267   4.570   7.616 -0.0202  0.7610 -0.2773
   11SAPS  H17R 1403   5.307   4.657   7.559  0.2696  2.7643  2.7336
   11SAPS  H17S 1404   5.352   4.501   7.632 -0.8890  0.2295  2.7374
   11SAPS  C218 1405   5.228   4.614   7.760  0.1993  0.5244 -0.1631
   11SAPS  H18R 1406   5.218   4.524   7.824 -0.2706 -0.5658 -1.7167
   11SAPS  H18S 1407   5.141   4.683   7.748 -0.0742 -0.2673 -4.3492
   11SAPS  C219 1408   5.343   4.696   7.831 -0.1721  0.0313 -0.8844
   11SAPS  H19R 1409   5.394   4.762   7.758  1.7067 -0.6418 -0.2446
   11SAPS  H19S 1410   5.427   4.631   7.862  0.4282  0.6294 -1.2318
   11SAPS  C220 1411   5.296   4.783   7.947 -0.0300 -0.0517 -0.3420
   11SAPS  H20R 1412   5.383   4.838   7.987 -0.0669 -0.4551  0.2951
   11SAPS  H20S 1413   5.271   4.723   8.037  1.5849  1.4656  1.1783
   11SAPS  H20T 1414   5.216   4.856   7.921  0.2960  1.0014  1.4871
   11SAPS   C33 1415   4.214   4.764   6.896  0.0129  0.3036 -0.5259
   11SAPS   H3X 1416   4.144   4.841   6.935  0.4817  1.0276 -1.0669
   11SAPS   H3Y 1417   4.313   4.807   6.923  0.5059  0.1110 -1.9424
   11SAPS   C34 1418   4.201   4.620   6.963  0.2961  0.5046  0.3872
   11SAPS   H4X 1419   4.281   4.556   6.919  1.0699  2.2346 -0.8126
   11SAPS   H4Y 1420   4.101   4.576   6.940  0.3320 -0.5416  2.0745
   11SAPS   C35 1421   4.222   4.625   7.117 -0.3986 -0.5245  0.4437
   11SAPS   H5X 1422   4.146   4.691   7.164 -0.6207 -0.8984  0.6087
   11SAPS   H5Y 1423   4.322   4.671   7.131  0.2120 -0.7414 -2.5427
   11SAPS   C36 1424   4.207   4.492   7.189  0.1733 -0.0039  0.1217
   11SAPS   H6X 1425   4.263   4.411   7.138 -0.1335  0.6706 -1.3225
   11SAPS   H6Y 1426   4.100   4.463   7.198  0.8292 -2.2937  1.3197
   11SAPS   C37 1427   4.254   4.501   7.346 -0.3582 -0.1745 -0.3338
   11SAPS   H7X 1428   4.361   4.522   7.367 -0.4336 -0.9769  0.9108
   11SAPS   H7Y 1429   4.238   4.395   7.372  3.0407 -0.8285 -0.4517
   11SAPS   C38 1430   4.187   4.591   7.450  0.2779  0.0776 -0.4680
   11SAPS   H8X 1431   4.082   4.599   7.415  0.3184  0.1340 -0.5778
   11SAPS   H8Y 1432   4.232   4.692   7.438 -0.6413  0.3475 -1.9956
   11SAPS   C39 1433   4.213   4.543   7.598 -0.5897 -0.1163 -0.5620
   11SAPS   H9X 1434   4.184   4.625   7.668  0.4756  0.2128 -0.4974
   11SAPS   H9Y 1435   4.321   4.524   7.608 -0.7861 -0.9419  0.0235
   11SAPS  C310 1436   4.147   4.405   7.636  0.0010 -0.0071 -0.1155
   11SAPS  H10X 1437   4.167   4.325   7.562  0.5485 -1.2055  1.2774
   11SAPS  H10Y 1438   4.036   4.413   7.637 -0.2212 -2.2368 -0.8348
   11SAPS  C311 1439   4.177   4.363   7.780 -0.7529  0.0171 -0.3908
   11SAPS  H11X 1440   4.285   4.384   7.791 -1.1628  1.4510  1.4766
   11SAPS  H11Y 1441   4.159   4.256   7.807  2.7685 -0.1950  1.7677
   11SAPS  C312 1442   4.090   4.436   7.879  0.0894 -0.6832  0.4945
   11SAPS  H12X 1443   3.993   4.389   7.904  0.5985 -1.4679  1.0160
   11SAPS  H12Y 1444   4.063   4.535   7.836 -0.7370 -1.4665 -0.8797
   11SAPS  C313 1445   4.163   4.452   8.011 -0.2476  0.4599 -0.0289
   11SAPS  H13X 1446   4.194   4.349   8.039 -0.3501  0.4802  0.1602
   11SAPS  H13Y 1447   4.095   4.497   8.086 -1.5429 -3.6604  1.5573
   11SAPS  C314 1448   4.287   4.540   8.011 -0.2665 -0.2490 -0.4401
   11SAPS  H14X 1449   4.257   4.623   7.943 -0.0048  1.4580  1.4392
   11SAPS  H14Y 1450   4.373   4.485   7.968  1.0078  1.3238 -0.0129
   11SAPS  C315 1451   4.333   4.606   8.153  0.3627 -0.5016 -0.3682
   11SAPS  H15X 1452   4.387   4.526   8.208 -0.1565 -1.3445 -1.0589
   11SAPS  H15Y 1453   4.241   4.625   8.213  1.5481 -0.2758  1.4775
   11SAPS  C316 1454   4.413   4.730   8.145  0.2566 -0.1160  0.2623
   11SAPS  H16X 1455   4.354   4.803   8.085  0.2783 -0.2068  0.1293
   11SAPS  H16Y 1456   4.504   4.721   8.082 -0.3559 -3.7250 -0.3555
   11SAPS  C317 1457   4.450   4.773   8.283 -0.5803  0.0170 -0.9064
   11SAPS  H17X 1458   4.355   4.793   8.339 -0.7819  0.3182 -1.3464
   11SAPS  H17Y 1459   4.504   4.867   8.258 -0.5835  0.1025 -0.6052
   11SAPS  C318 1460   4.540   4.680   8.364 -0.5605 -0.3375 -0.5896
   11SAPS  H18X 1461   4.489   4.595   8.415  2.0103 -1.4712  0.2243
   11SAPS  H18Y 1462   4.606   4.735   8.434 -1.4867  1.6313 -1.1826
   11SAPS  H18Z 1463   4.607   4.621   8.298  0.6930  1.0075 -0.5507
   12SAPS     N 1464   3.839   0.546   6.055  0.4066 -0.8032 -0.6962
   12SAPS   HN1 1465   3.818   0.608   6.135  0.1864  0.6863 -1.8589
   12SAPS   HN2 1466   3.879   0.610   5.983 -3.1515  1.8407 -0.6350
   12SAPS   HN3 1467   3.745   0.512   6.024 -0.8512  0.5284  1.3774
   12SAPS   C12 1468   3.930   0.445   6.087  0.1651  0.7435 -0.2096
   12SAPS  H12A 1469   3.967   0.387   6.003  0.8987  2.5202 -1.1762
   12SAPS   C13 1470   4.055   0.496   6.163  0.1743 -0.7117  0.3203
   12SAPS  O13A 1471   4.081   0.621   6.159  0.4809 -0.1211 -0.0430
   12SAPS  O13B 1472   4.143   0.418   6.211  0.4659 -0.1970  0.5649
   12SAPS   C11 1473   3.860   0.344   6.184 -0.4431 -0.8201  0.5059
   12SAPS  H11A 1474   3.810   0.398   6.267 -2.2476 -0.9751 -0.4399
   12SAPS  H11B 1475   3.941   0.292   6.241  0.9255  1.4956  0.7945
   12SAPS     P 1476   3.800   0.126   6.059 -0.5819  0.4613  0.1425
   12SAPS   O13 1477   3.679   0.076   6.006  0.0525 -0.3002 -0.0891
   12SAPS   O14 1478   3.906   0.144   5.960 -0.1844 -0.2425  0.5936
   12SAPS   O12 1479   3.765   0.265   6.119  0.1797  0.6829 -0.5116
   12SAPS   O11 1480   3.859   0.048   6.175  0.7847 -0.6330  0.1705
   12SAPS    C1 1481   3.791  -0.061   6.240 -0.7005  0.3555 -0.6479
   12SAPS    HA 1482   3.681  -0.042   6.249 -0.5583  0.8072  0.1777
   12SAPS    HB 1483   3.801  -0.153   6.178 -0.5048 -0.2128  0.2229
   12SAPS    C2 1484   3.845  -0.078   6.389 -0.2383  0.5337  0.4238
   12SAPS    HS 1485   3.784  -0.153   6.445  2.5390 -2.0013  0.3039
   12SAPS   O21 1486   3.859   0.050   6.450  0.2758  0.5371 -0.4365
   12SAPS   C21 1487   3.747   0.107   6.486  0.3527 -0.4698 -0.2454
   12SAPS   O22 1488   3.632   0.065   6.476  0.2569  0.2280  0.2391
   12SAPS   C22 1489   3.777   0.245   6.547  0.3614  0.0355  0.0545
   12SAPS   H2R 1490   3.888   0.255   6.541  0.2625  1.1547 -0.1386
   12SAPS   H2S 1491   3.728   0.318   6.480  0.3302 -0.5751 -0.5885
   12SAPS    C3 1492   3.983  -0.148   6.379  0.1539  0.0442 -0.1203
   12SAPS    HX 1493   4.022  -0.086   6.295 -3.3873  3.0719  0.1759
   12SAPS    HY 1494   3.971  -0.252   6.342 -1.9614  0.5983 -1.1801
   12SAPS   O31 1495   4.068  -0.143   6.496  0.5347  0.4092 -0.1586
   12SAPS   C31 1496   4.016  -0.208   6.611  0.1232 -0.0597  0.4187
   12SAPS   O32 1497   3.920  -0.279   6.600 -0.5999  0.1650  0.1509
   12SAPS   C32 1498   4.100  -0.179   6.737  0.7630  0.3956 -0.0494
   12SAPS   H2X 1499   4.046  -0.092   6.781  0.4828  0.1767  0.0407
   12SAPS   H2Y 1500   4.200  -0.152   6.697  1.1167  1.4694  1.4613
   12SAPS   C23 1501   3.733   0.263   6.697 -0.1584 -0.8892 -0.6726
   12SAPS   H3R 1502   3.633   0.215   6.703 -0.4278 -0.9406 -3.6535
   12SAPS   H3S 1503   3.715   0.370   6.722  0.0801 -1.2317  1.0897
   12SAPS   C24 1504   3.821   0.196   6.808 -0.7409 -0.0992 -0.3612
   12SAPS   H4R 1505   3.821   0.086   6.789 -0.7768 -0.3907  1.2172
   12SAPS   H4S 1506   3.776   0.212   6.908 -0.1882  0.3130 -0.1711
   12SAPS   C25 1507   3.965   0.257   6.800 -0.0672  0.3579  0.2771
   12SAPS   H5R 1508   4.002   0.308   6.710  1.9297  0.4948  1.1208
   12SAPS   C26 1509   4.040   0.284   6.907  0.0114 -0.0644 -0.7650
   12SAPS   H6R 1510   4.131   0.340   6.882 -0.4345  1.1160  0.1323
   12SAPS   C27 1511   4.018   0.260   7.054  0.6896  0.4495  0.4133
   12SAPS   H7R 1512   3.909   0.275   7.070  1.1410  1.3451  3.3284
   12SAPS   H7S 1513   4.054   0.339   7.124 -1.5372  1.2732  0.7293
   12SAPS   C28 1514   4.045   0.125   7.111 -0.1260  0.5309  0.5692
   12SAPS   H8R 1515   3.982   0.047   7.065  0.4021  0.6417 -0.3718
   12SAPS   C29 1516   4.118   0.095   7.218 -0.4816 -0.3340 -0.2908
   12SAPS   H9R 1517   4.110  -0.009   7.255 -0.7357  0.4847  2.1493
   12SAPS  C210 1518   4.194   0.198   7.307 -0.5406 -0.1824  0.0590
   12SAPS  H10R 1519   4.130   0.282   7.341  0.0314 -0.1954  1.1899
   12SAPS  H10S 1520   4.269   0.261   7.254 -0.4646 -0.1715  0.1810
   12SAPS  C211 1521   4.273   0.127   7.412 -0.1033  0.2311  0.0479
   12SAPS  H11R 1522   4.377   0.102   7.388 -0.3379  1.2964 -2.3123
   12SAPS  C212 1523   4.233   0.094   7.533 -0.0428  0.2713 -0.8436
   12SAPS  H12R 1524   4.304   0.052   7.606  1.6054  0.4981 -2.2674
   12SAPS  C213 1525   4.098   0.107   7.576 -0.2014 -0.7729 -0.2021
   12SAPS  H13R 1526   4.024   0.122   7.494 -0.9268  1.9985  0.8475
   12SAPS  H13S 1527   4.088   0.199   7.638  2.4732 -0.5357 -0.0100
   12SAPS  C214 1528   4.057  -0.021   7.651  0.2168  0.6199 -0.1066
   12SAPS  H14R 1529   3.999  -0.092   7.590 -1.0578 -0.2436  1.9930
   12SAPS  C215 1530   4.078  -0.065   7.778 -0.6291 -0.4575 -0.4031
   12SAPS  H15R 1531   4.039  -0.164   7.803  0.4144 -0.9673 -0.7435
   12SAPS  C216 1532   4.169   0.002   7.884 -0.1643 -0.0352 -0.4118
   12SAPS  H16R 1533   4.210   0.088   7.828 -2.6751 -0.1850 -2.6505
   12SAPS  H16S 1534   4.243  -0.069   7.929 -1.3978 -0.6458  0.7323
   12SAPS  C217 1535   4.096   0.064   8.000  0.4995 -0.4979  0.5185
   12SAPS  H17R 1536   4.015   0.134   7.972  0.7685  0.4545  1.9426
   12SAPS  H17S 1537   4.171   0.124   8.057  1.1285 -0.1516 -0.6341
   12SAPS  C218 1538   4.047  -0.036   8.101 -0.3296  0.1529 -0.0465
   12SAPS  H18R 1539   4.108  -0.125   8.129 -1.2739 -0.7363 -0.7148
   12SAPS  H18S 1540   3.949  -0.066   8.057 -0.1786  0.8834 -0.8972
   12SAPS  C219 1541   4.023   0.022   8.238  0.0574  0.3191  0.2954
   12SAPS  H19R 1542   3.966   0.115   8.218  0.8802  0.4858 -1.4491
   12SAPS  H19S 1543   4.117   0.045   8.292  1.6955 -1.8430 -1.4124
   12SAPS  C220 1544   3.940  -0.078   8.336  0.4833 -0.2196  0.2875
   12SAPS  H20R 1545   4.014  -0.147   8.383  2.4378  1.6746  0.1856
   12SAPS  H20S 1546   3.864  -0.136   8.281 -2.1223  1.4800  1.8493
   12SAPS  H20T 1547   3.880  -0.013   8.403 -2.4474 -2.8726  0.4395
   12SAPS   C33 1548   4.121  -0.290   6.839  0.0211 -0.4004  0.0687
   12SAPS   H3X 1549   4.187  -0.366   6.792 -0.5532 -1.4326  0.8836
   12SAPS   H3Y 1550   4.026  -0.343   6.862 -0.4143  0.2598 -0.1860
   12SAPS   C34 1551   4.189  -0.224   6.960 -0.0327  0.2309  0.1911
   12SAPS   H4X 1552   4.144  -0.145   7.023  0.6338  0.7658  0.0085
   12SAPS   H4Y 1553   4.288  -0.197   6.917  0.4327 -1.3480  0.1787
   12SAPS   C35 1554   4.226  -0.334   7.060 -0.1371  1.0235  0.1809
   12SAPS   H5X 1555   4.326  -0.377   7.036 -0.2373 -0.4280  2.1230
   12SAPS   H5Y 1556   4.159  -0.422   7.050  0.4495  0.5546  0.3003
   12SAPS   C36 1557   4.220  -0.284   7.205 -0.0725 -0.1651  0.9049
   12SAPS   H6X 1558   4.117  -0.248   7.227  0.3024  0.9890  0.8328
   12SAPS   H6Y 1559   4.289  -0.197   7.212 -1.6165  1.3215 -1.2586
   12SAPS   C37 1560   4.261  -0.391   7.307  0.0431  0.1971  0.2886
   12SAPS   H7X 1561   4.370  -0.403   7.288 -0.4266 -0.4895 -2.3199
   12SAPS   H7Y 1562   4.193  -0.475   7.282  0.1776  0.6073 -1.5341
   12SAPS   C38 1563   4.235  -0.348   7.454 -0.1251  0.6543  0.1066
   12SAPS   H8X 1564   4.131  -0.319   7.476  0.6295  2.1073  2.0687
   12SAPS   H8Y 1565   4.303  -0.265   7.482  0.6954  0.1695 -0.3886
   12SAPS   C39 1566   4.271  -0.466   7.551  0.0279 -0.0894 -0.8266
   12SAPS   H9X 1567   4.365  -0.512   7.511 -0.1631  0.5617 -2.0836
   12SAPS   H9Y 1568   4.182  -0.532   7.546  0.5512 -0.8583 -0.3096
   12SAPS  C310 1569   4.307  -0.431   7.698 -0.1599  0.1543  0.5481
   12SAPS  H10X 1570   4.374  -0.344   7.681  0.3748 -0.3461  0.0410
   12SAPS  H10Y 1571   4.354  -0.515   7.753  0.6783 -0.2745 -0.7833
   12SAPS  C311 1572   4.183  -0.383   7.775 -0.2491  0.3057 -0.3302
   12SAPS  H11X 1573   4.128  -0.311   7.711  0.6990 -0.9943 -2.7355
   12SAPS  H11Y 1574   4.216  -0.340   7.872 -1.3037  0.5025 -0.0502
   12SAPS  C312 1575   4.085  -0.493   7.807 -0.4764  0.7747 -0.2128
   12SAPS  H12X 1576   4.146  -0.566   7.865 -0.9261 -0.2003 -0.9362
   12SAPS  H12Y 1577   4.055  -0.542   7.712 -0.8573  2.5933 -1.0727
   12SAPS  C313 1578   3.958  -0.461   7.886  0.5086  0.1034 -0.3110
   12SAPS  H13X 1579   3.896  -0.553   7.892 -1.2304  1.2532 -0.0341
   12SAPS  H13Y 1580   3.890  -0.394   7.830 -0.8247  0.5665  1.7291
   12SAPS  C314 1581   3.981  -0.390   8.022  0.2314  0.3398  0.1258
   12SAPS  H14X 1582   3.885  -0.364   8.070 -0.7958  0.1624 -1.7281
   12SAPS  H14Y 1583   4.030  -0.291   8.007 -2.0060  1.7681  1.6960
   12SAPS  C315 1584   4.052  -0.477   8.130 -0.0291 -0.9764 -0.5207
   12SAPS  H15X 1585   4.145  -0.523   8.092 -0.1804 -1.6768 -0.0540
   12SAPS  H15Y 1586   3.973  -0.554   8.143 -0.3686 -0.5229  0.1577
   12SAPS  C316 1587   4.075  -0.414   8.271 -0.5724  0.2320 -0.1464
   12SAPS  H16X 1588   3.977  -0.385   8.312 -0.9181 -0.0590 -0.7530
   12SAPS  H16Y 1589   4.132  -0.318   8.265  2.2347 -1.3813 -1.8461
   12SAPS  C317 1590   4.138  -0.516   8.370 -0.1167  0.1991  0.1521
   12SAPS  H17X 1591   4.152  -0.453   8.461 -0.6074 -0.3476  0.6160
   12SAPS  H17Y 1592   4.239  -0.543   8.334 -0.2052 -2.2366  1.4964
   12SAPS  C318 1593   4.054  -0.645   8.384 -0.1927  0.0015  0.2423
   12SAPS  H18X 1594   3.953  -0.619   8.422  0.2203  1.6730  0.2903
   12SAPS  H18Y 1595   4.106  -0.723   8.444  1.5211  0.4786 -0.5647
   12SAPS  H18Z 1596   4.044  -0.679   8.279  0.4303  1.5767 -0.3544
   13SAPS     N 1597   6.458   0.305   5.967 -0.4626  0.1303  0.0196
   13SAPS   HN1 1598   6.535   0.272   5.905  0.5844  2.2240  0.1182
   13SAPS   HN2 1599   6.444   0.227   6.034  0.5725 -0.1451 -0.0519
   13SAPS   HN3 1600   6.371   0.313   5.911  0.9171 -1.0677 -2.4773
   13SAPS   C12 1601   6.495   0.439   6.029  0.3223 -0.0336  0.8453
   13SAPS  H12A 1602   6.601   0.434   6.047  0.2490 -1.0631  1.0656
   13SAPS   C13 1603   6.452   0.549   5.926  0.2947 -0.0515  0.2561
   13SAPS  O13A 1604   6.401   0.521   5.814  1.0814  0.6537  0.3716
   13SAPS  O13B 1605   6.479   0.668   5.946 -0.1732  0.4679 -0.0992
   13SAPS   C11 1606   6.421   0.450   6.166 -0.4033 -0.1920  0.1327
   13SAPS  H11A 1607   6.316   0.485   6.155  0.7972  3.3308 -1.7920
   13SAPS  H11B 1608   6.473   0.531   6.221 -0.5763 -0.2599  0.3947
   13SAPS     P 1609   6.542   0.302   6.349 -0.2225 -0.2124 -0.1993
   13SAPS   O13 1610   6.495   0.194   6.433 -0.2799 -0.4173  0.3736
   13SAPS   O14 1611   6.677   0.282   6.298  0.3283 -0.9014 -0.2480
   13SAPS   O12 1612   6.433   0.335   6.241  0.1891 -0.3792  0.1698
   13SAPS   O11 1613   6.548   0.440   6.434  0.4942  0.4301 -0.5715
   13SAPS    C1 1614   6.453   0.474   6.542 -0.5387 -0.6077  0.1038
   13SAPS    HA 1615   6.362   0.410   6.541  0.4758 -2.1075 -1.5458
   13SAPS    HB 1616   6.514   0.453   6.633  1.2281  2.3277 -0.2783
   13SAPS    C2 1617   6.412   0.626   6.538  0.2131 -0.4968  0.2419
   13SAPS    HS 1618   6.381   0.630   6.432  1.7841  0.7779 -0.2142
   13SAPS   O21 1619   6.521   0.719   6.564 -0.2884 -0.4405 -0.1137
   13SAPS   C21 1620   6.508   0.840   6.520 -0.1075  0.5842 -0.0002
   13SAPS   O22 1621   6.407   0.878   6.462  0.4877 -0.1727  0.2031
   13SAPS   C22 1622   6.621   0.929   6.566 -0.0548  0.1891  0.6918
   13SAPS   H2R 1623   6.672   0.880   6.652  0.5595 -2.0123 -0.8227
   13SAPS   H2S 1624   6.680   0.940   6.473 -1.8339  0.3858 -0.4623
   13SAPS    C3 1625   6.297   0.659   6.641 -0.4320 -0.0553 -0.0197
   13SAPS    HX 1626   6.205   0.600   6.619 -1.8174  2.1148 -0.4004
   13SAPS    HY 1627   6.265   0.763   6.617  0.2920  0.5347  1.4577
   13SAPS   O31 1628   6.344   0.631   6.773 -0.1031 -0.6076  0.2119
   13SAPS   C31 1629   6.362   0.739   6.852 -0.3298  0.0450  1.0457
   13SAPS   O32 1630   6.334   0.853   6.819  0.0806  0.0640 -0.4917
   13SAPS   C32 1631   6.449   0.690   6.967  0.3667 -0.2450 -0.5863
   13SAPS   H2X 1632   6.554   0.725   6.964  0.0640  0.7913  0.2365
   13SAPS   H2Y 1633   6.450   0.579   6.975  3.2443 -0.2025  0.6612
   13SAPS   C23 1634   6.563   1.059   6.620  0.0359 -0.1934 -0.0163
   13SAPS   H3R 1635   6.487   1.039   6.698 -0.7838 -0.6317 -0.9109
   13SAPS   H3S 1636   6.508   1.103   6.534  0.7596 -0.8697 -0.8596
   13SAPS   C24 1637   6.671   1.154   6.678  0.4376  0.2965 -0.4391
   13SAPS   H4R 1638   6.702   1.124   6.781  0.2244 -2.9622 -1.2217
   13SAPS   H4S 1639   6.611   1.245   6.700  1.9911  1.0559  0.8675
   13SAPS   C25 1640   6.784   1.183   6.588  0.7184  0.3111  0.1946
   13SAPS   H5R 1641   6.760   1.184   6.480 -1.3600  0.7666  0.6119
   13SAPS   C26 1642   6.905   1.230   6.618 -0.2068 -0.4369  0.7859
   13SAPS   H6R 1643   6.977   1.242   6.535 -3.2240 -0.6740 -2.0755
   13SAPS   C27 1644   6.955   1.251   6.759  0.1213 -0.5209  0.1342
   13SAPS   H7R 1645   6.982   1.149   6.793 -0.0334 -0.2824  1.0126
   13SAPS   H7S 1646   6.872   1.286   6.824  1.3224  1.7183  0.5555
   13SAPS   C28 1647   7.068   1.347   6.766  0.1566  0.1304 -0.6720
   13SAPS   H8R 1648   7.129   1.340   6.675 -0.9621 -1.4011 -1.3485
   13SAPS   C29 1649   7.109   1.419   6.876 -0.4637  0.0273  0.3426
   13SAPS   H9R 1650   7.210   1.461   6.866 -1.5439  2.4356 -1.5814
   13SAPS  C210 1651   7.058   1.407   7.021  0.5581  0.0727 -0.1239
   13SAPS  H10R 1652   6.959   1.356   7.023 -0.1020  1.2712 -0.8859
   13SAPS  H10S 1653   7.043   1.505   7.070 -1.1721  0.8118 -1.9448
   13SAPS  C211 1654   7.147   1.323   7.104  0.1977  0.4989  0.1097
   13SAPS  H11R 1655   7.183   1.230   7.058  0.4718  0.7101 -0.1102
   13SAPS  C212 1656   7.196   1.344   7.232  0.3421 -0.0465  0.1605
   13SAPS  H12R 1657   7.248   1.256   7.273  0.1073 -1.1170 -1.7365
   13SAPS  C213 1658   7.159   1.459   7.320 -0.2950 -0.2271 -0.5980
   13SAPS  H13R 1659   7.065   1.423   7.366  0.8346 -2.4052  0.1758
   13SAPS  H13S 1660   7.135   1.552   7.265  0.4373 -0.1106 -0.7308
   13SAPS  C214 1661   7.271   1.467   7.426  0.0424  0.5043 -0.9382
   13SAPS  H14R 1662   7.369   1.491   7.382 -0.3163  2.9416 -0.5128
   13SAPS  C215 1663   7.250   1.473   7.556  1.1709  0.5849  0.5234
   13SAPS  H15R 1664   7.331   1.478   7.631 -0.3021 -0.8675  2.3001
   13SAPS  C216 1665   7.124   1.456   7.628 -0.0995  0.3139  0.1820
   13SAPS  H16R 1666   7.037   1.442   7.561  0.3561 -0.4398 -0.2622
   13SAPS  H16S 1667   7.104   1.550   7.685  2.0840  0.4810  0.7905
   13SAPS  C217 1668   7.125   1.333   7.721  0.8857  0.1825 -0.1649
   13SAPS  H17R 1669   7.214   1.330   7.789  1.4452 -0.5535 -0.9024
   13SAPS  H17S 1670   7.130   1.249   7.648 -1.5147  2.5532 -3.2920
   13SAPS  C218 1671   7.002   1.315   7.802  0.7903  0.3121 -0.6079
   13SAPS  H18R 1672   6.914   1.321   7.735 -0.2064 -1.5113  0.4587
   13SAPS  H18S 1673   6.985   1.394   7.879 -2.6817 -1.0035  0.1630
   13SAPS  C219 1674   6.993   1.189   7.890 -0.0647 -0.0722 -0.8453
   13SAPS  H19R 1675   7.080   1.174   7.957 -2.6448 -0.2893  2.7402
   13SAPS  H19S 1676   6.990   1.100   7.823 -0.3198 -1.2495  0.6868
   13SAPS  C220 1677   6.872   1.181   7.983 -0.5791  0.3533  0.6121
   13SAPS  H20R 1678   6.866   1.262   8.058 -0.4974  0.3796  0.5906
   13SAPS  H20S 1679   6.880   1.084   8.038  1.2048  0.0529 -0.0826
   13SAPS  H20T 1680   6.786   1.176   7.913  1.8717 -1.2676 -2.5923
   13SAPS   C33 1681   6.387   0.736   7.106 -0.6511  0.3035  0.4570
   13SAPS   H3X 1682   6.279   0.714   7.097 -0.2328 -2.1004  0.5715
   13SAPS   H3Y 1683   6.398   0.845   7.123  2.1144  0.6806 -2.5938
   13SAPS   C34 1684   6.460   0.659   7.222 -0.1972 -0.6338 -0.0922
   13SAPS   H4X 1685   6.569   0.683   7.225 -0.0143 -1.3802 -0.4712
   13SAPS   H4Y 1686   6.448   0.550   7.200 -1.9232 -0.1218 -1.9161
   13SAPS   C35 1687   6.405   0.690   7.353  0.3317 -0.4438  0.6981
   13SAPS   H5X 1688   6.364   0.603   7.408 -0.9273 -0.0687  0.3772
   13SAPS   H5Y 1689   6.313   0.748   7.332  1.7074  2.2081  1.4740
   13SAPS   C36 1690   6.503   0.768   7.434 -0.7837  0.5522  0.1772
   13SAPS   H6X 1691   6.548   0.850   7.375  2.5964 -1.8056 -0.8087
   13SAPS   H6Y 1692   6.587   0.702   7.465 -0.8733  1.7052  3.2982
   13SAPS   C37 1693   6.443   0.833   7.560 -0.1253 -0.2806 -0.7437
   13SAPS   H7X 1694   6.346   0.880   7.531 -0.2606 -0.7948 -1.1256
   13SAPS   H7Y 1695   6.526   0.900   7.592 -1.6179  0.6758  1.3276
   13SAPS   C38 1696   6.411   0.731   7.674  0.3380 -0.3064  0.1560
   13SAPS   H8X 1697   6.494   0.659   7.690 -0.2303 -2.0057 -3.5250
   13SAPS   H8Y 1698   6.332   0.665   7.631 -1.1943  1.6329 -0.1613
   13SAPS   C39 1699   6.346   0.789   7.796 -0.0127 -0.4163 -0.1528
   13SAPS   H9X 1700   6.262   0.860   7.777 -0.1741 -0.4421  0.4703
   13SAPS   H9Y 1701   6.422   0.852   7.848  0.5422 -1.6441  0.5616
   13SAPS  C310 1702   6.305   0.674   7.888  0.1544 -0.1816 -0.4478
   13SAPS  H10X 1703   6.262   0.588   7.832 -0.2461 -0.9564  0.9954
   13SAPS  H10Y 1704   6.224   0.704   7.958  0.5644 -0.9493  0.3679
   13SAPS  C311 1705   6.427   0.616   7.967 -0.8058 -0.0640  0.0546
   13SAPS  H11X 1706   6.465   0.680   8.049  0.3721 -0.5382 -0.1054
   13SAPS  H11Y 1707   6.511   0.598   7.897 -0.0304  0.4472  0.8281
   13SAPS  C312 1708   6.396   0.477   8.029  0.4317  0.1495  0.0880
   13SAPS  H12X 1709   6.483   0.430   8.080  1.0707 -0.2037 -1.2881
   13SAPS  H12Y 1710   6.388   0.410   7.941 -0.4200  2.6856 -1.8730
   13SAPS  C313 1711   6.261   0.464   8.096 -0.0552  0.1845 -0.2274
   13SAPS  H13X 1712   6.254   0.355   8.117  4.1300 -0.7665 -2.5815
   13SAPS  H13Y 1713   6.175   0.491   8.032 -1.0176  0.3955  1.1095
   13SAPS  C314 1714   6.250   0.544   8.232  0.3752 -0.5235 -0.1061
   13SAPS  H14X 1715   6.276   0.647   8.199 -0.7327 -0.3301 -0.4409
   13SAPS  H14Y 1716   6.322   0.504   8.306 -0.0113  1.3436  1.3424
   13SAPS  C315 1717   6.105   0.520   8.287  0.9136 -0.0578 -0.3608
   13SAPS  H15X 1718   6.087   0.412   8.307 -1.7657  0.0781 -1.6360
   13SAPS  H15Y 1719   6.025   0.552   8.216  0.5732  1.9511  0.8538
   13SAPS  C316 1720   6.080   0.614   8.406  0.3384 -0.8340 -0.5292
   13SAPS  H16X 1721   6.106   0.717   8.375 -1.5417  0.2974  1.4266
   13SAPS  H16Y 1722   6.145   0.585   8.491  0.5826 -0.1572 -0.4806
   13SAPS  C317 1723   5.938   0.604   8.459  0.2565  0.0374  0.5084
   13SAPS  H17X 1724   5.868   0.642   8.382  1.0593 -1.2852 -0.9265
   13SAPS  H17Y 1725   5.930   0.670   8.548  1.2454  0.0835  0.5673
   13SAPS  C318 1726   5.889   0.463   8.490 -0.4046 -0.0057  0.0107
   13SAPS  H18X 1727   5.784   0.464   8.525 -0.3725  1.2289  0.1337
   13SAPS  H18Y 1728   5.950   0.420   8.572 -0.7887  2.8007  1.8904
   13SAPS  H18Z 1729   5.910   0.408   8.396  3.3796  1.4859 -0.2055
   14SAPS     N 1730   4.894   4.435   5.991  0.2121 -0.6656 -0.1445
   14SAPS   HN1 1731   4.824   4.500   6.031 -0.0428 -0.2644 -1.2197
   14SAPS   HN2 1732   4.858   4.341   6.017  0.6355 -0.5312  1.0039
   14SAPS   HN3 1733   4.983   4.465   6.036 -0.0283 -0.4023  0.1536
   14SAPS   C12 1734   4.905   4.435   5.842  0.2303  0.2073 -0.3345
   14SAPS  H12A 1735   4.954   4.342   5.820 -0.2809 -0.2672  0.4541
   14SAPS   C13 1736   4.771   4.436   5.761  0.0424  0.0977  0.0175
   14SAPS  O13A 1737   4.664   4.417   5.825  0.1962 -0.0777 -0.0555
   14SAPS  O13B 1738   4.766   4.458   5.640  0.2719 -0.2007  0.3565
   14SAPS   C11 1739   5.001   4.546   5.798  0.0939 -0.5263  0.1630
   14SAPS  H11A 1740   4.965   4.639   5.847  2.9459 -0.4439  2.3037
   14SAPS  H11B 1741   4.992   4.559   5.688 -2.1560  2.1265  0.5100
   14SAPS     P 1742   5.214   4.579   5.956  0.0033  0.0048 -0.0666
   14SAPS   O13 1743   5.359   4.576   5.935 -0.0267  0.3095  0.2757
   14SAPS   O14 1744   5.159   4.714   5.984  0.1461  0.2468 -0.4374
   14SAPS   O12 1745   5.137   4.519   5.831  0.3027  0.3408 -0.5781
   14SAPS   O11 1746   5.158   4.489   6.070 -0.6167  0.2462 -0.0035
   14SAPS    C1 1747   5.216   4.360   6.097  0.0912 -0.9902  0.0742
   14SAPS    HA 1748   5.133   4.291   6.124 -0.1573 -1.2012 -1.1961
   14SAPS    HB 1749   5.271   4.311   6.014 -1.1894  0.2106 -1.5389
   14SAPS    C2 1750   5.317   4.379   6.221 -0.2716 -0.2227  0.0560
   14SAPS    HS 1751   5.403   4.438   6.183 -0.4845  1.1295  1.5252
   14SAPS   O21 1752   5.352   4.250   6.273  0.3879  0.3846 -0.0614
   14SAPS   C21 1753   5.477   4.228   6.297 -1.1548  0.0615 -0.0233
   14SAPS   O22 1754   5.574   4.294   6.263  0.0900  0.3249 -0.0065
   14SAPS   C22 1755   5.485   4.085   6.363  0.4602  0.5076  0.2367
   14SAPS   H2R 1756   5.406   4.078   6.440 -0.6027 -1.1636 -0.9515
   14SAPS   H2S 1757   5.456   4.009   6.287  1.1500  1.2811 -0.8169
   14SAPS    C3 1758   5.257   4.470   6.334 -0.1696  0.5592  0.0501
   14SAPS    HX 1759   5.165   4.417   6.367  0.5487 -0.9980 -0.3518
   14SAPS    HY 1760   5.235   4.573   6.297  0.5529  0.6387 -0.1662
   14SAPS   O31 1761   5.347   4.476   6.450  0.5279 -1.0679  0.3210
   14SAPS   C31 1762   5.458   4.544   6.435 -0.2654 -0.6518  0.7716
   14SAPS   O32 1763   5.488   4.617   6.342 -0.1478 -0.4081  0.3248
   14SAPS   C32 1764   5.541   4.539   6.570  0.5231 -0.0399  0.7503
   14SAPS   H2X 1765   5.619   4.465   6.541  2.1730  2.1198 -0.5963
   14SAPS   H2Y 1766   5.474   4.509   6.653  0.1955  0.7600  0.7774
   14SAPS   C23 1767   5.626   4.057   6.426  0.2747 -0.1552  0.0523
   14SAPS   H3R 1768   5.666   4.155   6.461 -1.8167  0.8455 -0.2578
   14SAPS   H3S 1769   5.705   4.006   6.366 -0.0400  0.6380 -1.0781
   14SAPS   C24 1770   5.620   3.971   6.554 -0.7934 -0.3895 -0.3848
   14SAPS   H4R 1771   5.575   3.873   6.527  0.6903 -1.3436  0.4911
   14SAPS   H4S 1772   5.552   4.021   6.626 -0.6221 -0.4206 -0.2010
   14SAPS   C25 1773   5.746   3.934   6.632  0.8586 -0.6652 -0.3668
   14SAPS   H5R 1774   5.843   3.951   6.584  0.8869 -0.8786 -0.3825
   14SAPS   C26 1775   5.761   3.888   6.753  0.3264 -0.1456  0.1915
   14SAPS   H6R 1776   5.864   3.865   6.782  0.9681  1.4760 -0.6939
   14SAPS   C27 1777   5.650   3.853   6.852  0.0349  0.3385 -0.7952
   14SAPS   H7R 1778   5.554   3.896   6.818 -0.3395  1.9512  1.9802
   14SAPS   H7S 1779   5.662   3.913   6.944  0.0406 -0.5137 -0.2271
   14SAPS   C28 1780   5.646   3.706   6.888 -0.1700 -0.0371  0.0827
   14SAPS   H8R 1781   5.671   3.633   6.808  1.6622  0.6525 -0.0255
   14SAPS   C29 1782   5.641   3.647   7.006  0.2873 -0.0645  0.2384
   14SAPS   H9R 1783   5.660   3.538   7.006 -2.6297 -0.7447  3.3313
   14SAPS  C210 1784   5.610   3.719   7.134  0.4350  0.0184 -0.4309
   14SAPS  H10R 1785   5.509   3.766   7.130 -0.5424 -2.0242 -2.6414
   14SAPS  H10S 1786   5.683   3.799   7.160  1.4103 -0.6295 -1.1219
   14SAPS  C211 1787   5.605   3.612   7.246 -0.2045  0.3056 -0.0169
   14SAPS  H11R 1788   5.637   3.512   7.213  0.4986  0.9472 -1.3884
   14SAPS  C212 1789   5.581   3.631   7.377 -0.2433  0.1823 -0.2811
   14SAPS  H12R 1790   5.582   3.550   7.451  0.6955 -0.0530 -0.5306
   14SAPS  C213 1791   5.530   3.768   7.436  0.0024 -0.2249  0.5242
   14SAPS  H13R 1792   5.439   3.746   7.496 -1.2894  2.8386 -0.1567
   14SAPS  H13S 1793   5.488   3.841   7.364 -0.5779  0.6542  1.7279
   14SAPS  C214 1794   5.639   3.836   7.514 -0.5240 -0.1711  0.2494
   14SAPS  H14R 1795   5.708   3.890   7.448 -1.1093 -3.0153 -3.0119
   14SAPS  C215 1796   5.642   3.844   7.648  0.6748 -0.2908  0.3377
   14SAPS  H15R 1797   5.728   3.898   7.690  1.2052  0.9819 -2.1472
   14SAPS  C216 1798   5.554   3.784   7.753  0.3834  0.3923  0.9441
   14SAPS  H16R 1799   5.453   3.830   7.745  1.4964  2.7207 -1.1881
   14SAPS  H16S 1800   5.598   3.800   7.854  1.5966 -0.6660  0.6217
   14SAPS  C217 1801   5.546   3.633   7.736 -0.1074 -0.3858 -0.3251
   14SAPS  H17R 1802   5.651   3.602   7.721 -0.2874 -0.7599 -0.8166
   14SAPS  H17S 1803   5.481   3.603   7.651  1.7384 -3.1773 -0.8833
   14SAPS  C218 1804   5.496   3.557   7.869  0.7146  0.0762 -0.0514
   14SAPS  H18R 1805   5.512   3.448   7.861 -1.4840 -0.3209  0.4918
   14SAPS  H18S 1806   5.387   3.566   7.887  0.8730 -1.1354  1.7503
   14SAPS  C219 1807   5.569   3.597   7.997 -0.5333  0.0093 -0.0206
   14SAPS  H19R 1808   5.523   3.697   8.018 -1.7607 -0.2888 -1.1443
   14SAPS  H19S 1809   5.673   3.597   7.959  1.0445 -0.6597  3.8511
   14SAPS  C220 1810   5.556   3.508   8.121  0.4091  0.5213 -0.2795
   14SAPS  H20R 1811   5.519   3.406   8.097 -1.7998  1.2087 -0.0199
   14SAPS  H20S 1812   5.484   3.545   8.197  1.2652  0.8220  0.4023
   14SAPS  H20T 1813   5.656   3.503   8.169  0.7159 -2.3669 -1.0487
   14SAPS   C33 1814   5.611   4.672   6.605 -0.4201 -0.4311  0.2146
   14SAPS   H3X 1815   5.549   4.764   6.612  0.3311 -0.0375  2.2591
   14SAPS   H3Y 1816   5.677   4.695   6.518 -0.7804 -0.6146 -0.1112
   14SAPS   C34 1817   5.692   4.671   6.735 -0.3316 -0.0481 -0.4271
   14SAPS   H4X 1818   5.774   4.746   6.731  1.4375 -1.8811 -0.0060
   14SAPS   H4Y 1819   5.745   4.573   6.747 -0.0767  0.1063 -0.2857
   14SAPS   C35 1820   5.627   4.691   6.874 -0.6733 -0.4990 -0.7274
   14SAPS   H5X 1821   5.538   4.625   6.878 -2.4104  1.6833 -1.4081
   14SAPS   H5Y 1822   5.596   4.796   6.890 -0.5151 -0.3815 -1.1567
   14SAPS   C36 1823   5.715   4.645   6.990 -0.4713 -0.5054 -0.1323
   14SAPS   H6X 1824   5.804   4.710   7.004 -0.4772 -0.4394 -0.4036
   14SAPS   H6Y 1825   5.762   4.546   6.972  1.0182  0.3516 -1.1592
   14SAPS   C37 1826   5.638   4.626   7.118 -0.4923  0.0491 -0.0637
   14SAPS   H7X 1827   5.582   4.532   7.103  2.5773 -2.0523  0.6425
   14SAPS   H7Y 1828   5.567   4.710   7.137 -0.0432 -0.1559  2.9533
   14SAPS   C38 1829   5.744   4.600   7.227 -0.1999  0.2724 -0.0822
   14SAPS   H8X 1830   5.814   4.683   7.250  0.7675 -0.3534 -0.6606
   14SAPS   H8Y 1831   5.802   4.510   7.197  0.9951  1.5298 -1.7624
   14SAPS   C39 1832   5.658   4.562   7.355  0.9098  0.5646 -0.2090
   14SAPS   H9X 1833   5.595   4.474   7.332 -0.6588  1.6616 -0.2453
   14SAPS   H9Y 1834   5.585   4.642   7.383  0.8385  0.1441  0.8689
   14SAPS  C310 1835   5.748   4.533   7.476 -0.2061 -0.1680 -0.4689
   14SAPS  H10X 1836   5.819   4.616   7.497 -1.2239  0.7648 -0.6082
   14SAPS  H10Y 1837   5.816   4.449   7.453  0.9350  0.4918  0.3879
   14SAPS  C311 1838   5.653   4.497   7.597 -0.0579  0.1862 -0.6337
   14SAPS  H11X 1839   5.556   4.467   7.554  0.7288 -1.3340 -1.4479
   14SAPS  H11Y 1840   5.641   4.583   7.667  1.5940 -1.2502  1.5399
   14SAPS  C312 1841   5.696   4.373   7.681  0.6336  0.3180  0.4578
   14SAPS  H12X 1842   5.791   4.404   7.730  0.2216  0.0188  1.4937
   14SAPS  H12Y 1843   5.712   4.282   7.620 -1.2827 -0.8927  1.6440
   14SAPS  C313 1844   5.607   4.337   7.796 -0.9301 -0.4414  0.1088
   14SAPS  H13X 1845   5.503   4.309   7.769 -1.0031  0.1888 -0.2723
   14SAPS  H13Y 1846   5.595   4.430   7.856  0.2576 -0.0278 -0.2661
   14SAPS  C314 1847   5.676   4.230   7.883  0.0361  0.3479 -0.6833
   14SAPS  H14X 1848   5.785   4.249   7.897  1.4308 -4.0796 -3.4221
   14SAPS  H14Y 1849   5.690   4.137   7.825  3.1337  0.0829  0.2994
   14SAPS  C315 1850   5.598   4.199   8.015 -0.6663 -0.4787  1.1359
   14SAPS  H15X 1851   5.489   4.202   7.992 -0.7076 -1.9090  1.1078
   14SAPS  H15Y 1852   5.628   4.286   8.078  0.3014 -0.4562  0.6668
   14SAPS  C316 1853   5.650   4.076   8.076 -0.1038 -0.9052  0.5531
   14SAPS  H16X 1854   5.760   4.082   8.087  0.0312  0.0505 -0.9213
   14SAPS  H16Y 1855   5.631   3.997   8.001  0.7560 -1.0211  0.4462
   14SAPS  C317 1856   5.585   4.042   8.210 -0.4012 -0.1815 -0.4302
   14SAPS  H17X 1857   5.601   3.934   8.232  1.0211  0.3215  1.3125
   14SAPS  H17Y 1858   5.477   4.067   8.201  0.1032  3.0002  0.8984
   14SAPS  C318 1859   5.641   4.130   8.321 -0.5320  0.0362 -0.7484
   14SAPS  H18X 1860   5.743   4.089   8.337  0.5178  1.1124 -3.9157
   14SAPS  H18Y 1861   5.584   4.121   8.416  0.6284 -1.3241 -0.1372
   14SAPS  H18Z 1862   5.640   4.237   8.293  0.9746  0.3352  0.2750
   15SAPS     N 1863   0.229   3.175   5.694  0.3618  0.5835 -0.0581
   15SAPS   HN1 1864   0.269   3.249   5.755 -0.2157  1.3376 -0.5752
   15SAPS   HN2 1865   0.267   3.079   5.707  0.1411  0.6230  1.0255
   15SAPS   HN3 1866   0.246   3.202   5.595 -1.0114 -1.0328 -0.7889
   15SAPS   C12 1867   0.080   3.175   5.721  0.4446  0.2388  0.4884
   15SAPS  H12A 1868   0.037   3.268   5.686  0.6205 -0.3662 -1.4429
   15SAPS   C13 1869  -0.002   3.073   5.632 -0.6130 -0.0662  0.1735
   15SAPS  O13A 1870   0.060   3.019   5.533 -0.4319 -0.3863  0.0306
   15SAPS  O13B 1871  -0.130   3.072   5.645  0.0712  0.4233  0.1081
   15SAPS   C11 1872   0.055   3.142   5.870 -0.0224  0.0475  0.1335
   15SAPS  H11A 1873   0.115   3.053   5.897  1.5363  1.3483  1.1617
   15SAPS  H11B 1874  -0.053   3.117   5.880  0.1577 -0.4220  1.0591
   15SAPS     P 1875   0.072   3.256   6.102  0.0851 -0.4766  0.1387
   15SAPS   O13 1876   0.171   3.350   6.158  0.2768 -0.0766  0.2220
   15SAPS   O14 1877  -0.071   3.279   6.132 -0.2704  0.0476  0.2176
   15SAPS   O12 1878   0.088   3.254   5.944  0.0068  0.2209  0.4210
   15SAPS   O11 1879   0.121   3.109   6.140  0.2679  0.4951 -0.4258
   15SAPS    C1 1880   0.023   3.014   6.180  0.3194  0.6784 -0.4335
   15SAPS    HA 1881  -0.072   3.035   6.128  0.7723  2.7773 -0.5071
   15SAPS    HB 1882   0.050   2.909   6.155 -2.5139 -0.0800 -0.6961
   15SAPS    C2 1883  -0.010   3.017   6.335 -0.9773 -0.0545  0.0536
   15SAPS    HS 1884  -0.044   3.122   6.350  3.4597  1.6993 -0.5542
   15SAPS   O21 1885   0.117   2.993   6.407  0.5687 -0.3467  0.4336
   15SAPS   C21 1886   0.121   3.063   6.520  0.4125 -0.6729 -0.1586
   15SAPS   O22 1887   0.046   3.154   6.561  0.8565  0.2074  0.2664
   15SAPS   C22 1888   0.250   3.022   6.591  0.1062  0.1667 -0.1936
   15SAPS   H2R 1889   0.273   2.913   6.587  2.3916  0.5429  1.1482
   15SAPS   H2S 1890   0.332   3.071   6.535  0.8217 -1.1616 -0.3329
   15SAPS    C3 1891  -0.119   2.917   6.375 -0.1629  0.1663  0.6814
   15SAPS    HX 1892  -0.092   2.820   6.329 -0.4975  0.0830  0.6612
   15SAPS    HY 1893  -0.207   2.946   6.313  1.5274 -1.2334 -2.5899
   15SAPS   O31 1894  -0.124   2.901   6.523 -0.1512  0.5834 -0.2691
   15SAPS   C31 1895  -0.222   2.968   6.584  0.9239  0.4281  0.7584
   15SAPS   O32 1896  -0.293   3.050   6.540 -0.0973  0.5983  0.1888
   15SAPS   C32 1897  -0.225   2.921   6.725 -0.4079  0.0320 -0.6004
   15SAPS   H2X 1898  -0.126   2.943   6.770 -0.1117 -3.1170  0.5735
   15SAPS   H2Y 1899  -0.223   2.810   6.723 -0.5563 -0.0222  1.0708
   15SAPS   C23 1900   0.262   3.068   6.739  0.3985  0.0042  0.5263
   15SAPS   H3R 1901   0.166   3.051   6.792 -1.0660  0.7000 -1.7741
   15SAPS   H3S 1902   0.279   3.177   6.741 -0.0517  0.0680  1.0164
   15SAPS   C24 1903   0.390   3.010   6.799 -0.0031  0.4095 -0.2030
   15SAPS   H4R 1904   0.414   3.076   6.886 -3.0815 -0.2122  1.2391
   15SAPS   H4S 1905   0.462   3.030   6.717 -0.8138 -2.7972 -1.8199
   15SAPS   C25 1906   0.379   2.864   6.827  0.6153 -0.7988 -0.2676
   15SAPS   H5R 1907   0.406   2.794   6.746  1.3829  0.3840 -1.0774
   15SAPS   C26 1908   0.347   2.812   6.944  0.1560 -0.4629 -0.1757
   15SAPS   H6R 1909   0.354   2.703   6.950  0.4652 -0.3648  2.8118
   15SAPS   C27 1910   0.316   2.895   7.068  0.4520 -0.4759  0.0070
   15SAPS   H7R 1911   0.212   2.931   7.054 -0.2716 -2.3529  0.2717
   15SAPS   H7S 1912   0.382   2.984   7.074 -0.8757  0.6336 -0.9899
   15SAPS   C28 1913   0.325   2.831   7.202  0.2819  0.2007 -0.1521
   15SAPS   H8R 1914   0.260   2.743   7.213 -1.8261  1.6490 -0.4564
   15SAPS   C29 1915   0.422   2.851   7.297  0.7892  0.4226  0.3032
   15SAPS   H9R 1916   0.412   2.793   7.391  2.1354  0.8982  0.7769
   15SAPS  C210 1917   0.548   2.941   7.287  0.5035  0.7788  0.0583
   15SAPS  H10R 1918   0.581   2.952   7.182  0.6209  1.7442  0.1862
   15SAPS  H10S 1919   0.624   2.884   7.346 -1.3955  0.7558  2.6930
   15SAPS  C211 1920   0.527   3.078   7.339  0.6447  0.6516 -0.1765
   15SAPS  H11R 1921   0.477   3.148   7.271  1.3131  0.5211 -0.8081
   15SAPS  C212 1922   0.560   3.123   7.460  0.3850  0.5185 -0.4680
   15SAPS  H12R 1923   0.536   3.223   7.501  0.8122 -0.5953  2.8202
   15SAPS  C213 1924   0.623   3.038   7.568  0.0792 -0.8620 -0.5984
   15SAPS  H13R 1925   0.661   3.108   7.646 -1.3191 -0.5956 -0.1365
   15SAPS  H13S 1926   0.714   2.988   7.529  0.1358 -0.3676 -1.1208
   15SAPS  C214 1927   0.529   2.934   7.628  0.0462  0.2148 -0.3345
   15SAPS  H14R 1928   0.425   2.938   7.591 -0.5049  0.0001  1.1123
   15SAPS  C215 1929   0.562   2.838   7.715 -0.1284  0.2287 -1.1408
   15SAPS  H15R 1930   0.479   2.783   7.762  0.3846  0.2337 -0.2109
   15SAPS  C216 1931   0.706   2.823   7.777 -1.0366  0.5330  0.2560
   15SAPS  H16R 1932   0.755   2.922   7.768 -0.0255  0.1108  0.9115
   15SAPS  H16S 1933   0.765   2.747   7.723 -1.6208  0.3572 -0.1459
   15SAPS  C217 1934   0.707   2.784   7.932  0.3444 -0.1017  0.2785
   15SAPS  H17R 1935   0.811   2.779   7.971  0.0474 -2.6129  0.8958
   15SAPS  H17S 1936   0.651   2.691   7.953 -0.2049  0.1597 -0.0017
   15SAPS  C218 1937   0.640   2.893   8.012 -0.3381 -0.4065  0.6198
   15SAPS  H18R 1938   0.531   2.884   7.993 -0.3534  0.8133  0.0251
   15SAPS  H18S 1939   0.654   2.993   7.967  0.2295  0.4772  2.6437
   15SAPS  C219 1940   0.673   2.896   8.167  0.2194  0.6245  0.4803
   15SAPS  H19R 1941   0.759   2.964   8.186  0.1732  0.8949 -0.2381
   15SAPS  H19S 1942   0.700   2.794   8.201  0.5079  1.0360  1.5005
   15SAPS  C220 1943   0.551   2.944   8.246  0.2371  1.2102  0.0997
   15SAPS  H20R 1944   0.530   3.044   8.203  3.5215  2.0357  0.1634
   15SAPS  H20S 1945   0.557   2.972   8.354 -3.0165 -0.3341  0.8145
   15SAPS  H20T 1946   0.463   2.877   8.235 -0.1310  1.6090  0.5232
   15SAPS   C33 1947  -0.335   2.976   6.811  0.3189  0.0039 -0.4987
   15SAPS   H3X 1948  -0.440   2.942   6.799  0.8838 -1.0467 -3.0352
   15SAPS   H3Y 1949  -0.341   3.086   6.801  0.3756 -0.1297 -2.1595
   15SAPS   C34 1950  -0.309   2.938   6.959 -0.2092 -0.7095 -0.0331
   15SAPS   H4X 1951  -0.199   2.941   6.970 -0.0792  0.8294 -1.4031
   15SAPS   H4Y 1952  -0.336   2.830   6.964  1.0110 -1.1716 -2.3643
   15SAPS   C35 1953  -0.375   3.012   7.064  0.2544  0.5558 -0.4062
   15SAPS   H5X 1954  -0.367   3.123   7.063 -2.1894  0.8485  1.6581
   15SAPS   H5Y 1955  -0.321   2.983   7.157  0.2365 -0.3355 -0.6603
   15SAPS   C36 1956  -0.523   2.970   7.090 -0.6456 -0.3506  0.4795
   15SAPS   H6X 1957  -0.531   2.864   7.057  0.2429  0.5619 -3.1405
   15SAPS   H6Y 1958  -0.591   3.019   7.018 -1.6783 -0.9365  1.0365
   15SAPS   C37 1959  -0.567   3.006   7.224 -0.1913 -1.0282 -0.9006
   15SAPS   H7X 1960  -0.678   3.011   7.225 -0.1600  1.0842  0.1583
   15SAPS   H7Y 1961  -0.548   3.114   7.245 -0.2672 -1.5224  2.1851
   15SAPS   C38 1962  -0.513   2.934   7.351  0.1480  0.0965 -0.1797
   15SAPS   H8X 1963  -0.402   2.935   7.353  0.1458 -0.0557  0.0912
   15SAPS   H8Y 1964  -0.542   2.827   7.340  2.4067 -0.4527 -1.2762
   15SAPS   C39 1965  -0.576   2.997   7.485 -0.2162 -0.4573  0.0618
   15SAPS   H9X 1966  -0.687   2.993   7.480 -0.3552 -3.0597  2.4696
   15SAPS   H9Y 1967  -0.550   3.105   7.484 -1.2269 -0.1474  2.3088
   15SAPS  C310 1968  -0.525   2.940   7.619 -0.4876  0.7774 -0.4458
   15SAPS  H10X 1969  -0.416   2.962   7.617 -0.1888 -0.3982  1.3064
   15SAPS  H10Y 1970  -0.534   2.829   7.618 -0.6183  0.7752  0.3260
   15SAPS  C311 1971  -0.605   3.002   7.734  0.2884 -0.3753 -0.8461
   15SAPS  H11X 1972  -0.713   3.001   7.711 -0.1900  2.7323  0.6526
   15SAPS  H11Y 1973  -0.578   3.110   7.735 -0.6888 -0.1288 -0.4817
   15SAPS  C312 1974  -0.578   2.943   7.876 -0.0513  0.5894 -0.4062
   15SAPS  H12X 1975  -0.618   3.019   7.947  0.7592 -0.1604  0.8893
   15SAPS  H12Y 1976  -0.469   2.927   7.888 -0.3081 -0.8026  0.2341
   15SAPS  C313 1977  -0.645   2.803   7.904 -0.5342 -0.3048  0.2331
   15SAPS  H13X 1978  -0.608   2.766   8.002 -2.3426 -0.7409  0.7839
   15SAPS  H13Y 1979  -0.593   2.734   7.834  0.4131 -1.1662  1.7409
   15SAPS  C314 1980  -0.794   2.787   7.919  0.1405 -0.0832 -0.2326
   15SAPS  H14X 1981  -0.825   2.814   7.816  0.2616 -0.9866 -0.5173
   15SAPS  H14Y 1982  -0.837   2.849   8.000  0.5864 -0.3161  0.1929
   15SAPS  C315 1983  -0.843   2.638   7.955  0.3134 -1.1711 -0.1289
   15SAPS  H15X 1984  -0.775   2.569   7.900  3.1432  1.9548 -0.9573
   15SAPS  H15Y 1985  -0.944   2.620   7.913 -0.3268  1.2624  0.1914
   15SAPS  C316 1986  -0.829   2.591   8.103  0.1621 -0.2210 -0.0032
   15SAPS  H16X 1987  -0.832   2.681   8.168  3.1942 -1.1131  1.5380
   15SAPS  H16Y 1988  -0.724   2.557   8.117  0.1409 -0.9804 -1.4689
   15SAPS  C317 1989  -0.926   2.495   8.154 -0.0453  0.2375  0.3208
   15SAPS  H17X 1990  -0.917   2.395   8.105 -0.2492  0.5338 -0.3379
   15SAPS  H17Y 1991  -1.024   2.543   8.135 -0.8065 -1.5976 -0.7058
   15SAPS  C318 1992  -0.913   2.489   8.309  0.0461 -0.2595  0.5408
   15SAPS  H18X 1993  -0.935   2.593   8.342 -0.1403  0.2838 -1.2030
   15SAPS  H18Y 1994  -0.809   2.458   8.333 -0.0277 -0.4821  0.5755
   15SAPS  H18Z 1995  -0.981   2.416   8.359  1.8791 -0.5383  2.7980
   16SAPS     N 1996   1.445   3.537   6.560  0.1803 -0.1366 -0.8248
   16SAPS   HN1 1997   1.537   3.520   6.515  0.4775 -0.1154 -0.2374
   16SAPS   HN2 1998   1.469   3.617   6.623  0.0747 -1.4845  1.0331
   16SAPS   HN3 1999   1.412   3.451   6.609  0.5305  1.3774  2.3109
   16SAPS   C12 2000   1.338   3.584   6.467 -0.0239  0.1221  0.1090
   16SAPS  H12A 2001   1.387   3.657   6.406  0.7241  2.8324  3.6188
   16SAPS   C13 2002   1.286   3.471   6.371  0.5412 -0.3133  0.5858
   16SAPS  O13A 2003   1.332   3.358   6.386  0.5545  0.1450  0.2589
   16SAPS  O13B 2004   1.188   3.496   6.293  0.0353  0.1405  0.1110
   16SAPS   C11 2005   1.233   3.639   6.558  0.0618  0.3826  0.1830
   16SAPS  H11A 2006   1.201   3.548   6.613  1.3428 -1.4171 -1.8675
   16SAPS  H11B 2007   1.145   3.662   6.494  0.2789 -1.2658 -0.7635
   16SAPS     P 2008   1.281   3.886   6.588 -0.1548 -0.2641 -0.0860
   16SAPS   O13 2009   1.428   3.905   6.563  0.3954 -0.4022 -0.2169
   16SAPS   O14 2010   1.192   3.901   6.467 -0.1173  0.4192 -0.9166
   16SAPS   O12 2011   1.271   3.744   6.646 -0.4366 -0.1184  0.2645
   16SAPS   O11 2012   1.219   3.979   6.706 -0.1012  0.2700  0.1993
   16SAPS    C1 2013   1.153   3.939   6.825 -0.2816  0.1084 -0.2516
   16SAPS    HA 2014   1.186   3.841   6.866 -1.1390 -0.7482 -1.5342
   16SAPS    HB 2015   1.185   4.013   6.902  0.2065 -1.0152  0.6494
   16SAPS    C2 2016   1.000   3.935   6.823 -0.4570  0.3592 -0.2901
   16SAPS    HS 2017   0.966   3.846   6.767 -0.4969  0.6883 -0.7922
   16SAPS   O21 2018   0.944   4.049   6.756 -0.5856 -0.5602 -0.2856
   16SAPS   C21 2019   0.811   4.075   6.768 -0.1729  0.2094  0.0629
   16SAPS   O22 2020   0.718   3.995   6.787 -0.2772 -1.1653  0.8176
   16SAPS   C22 2021   0.789   4.227   6.753 -0.7382 -0.1237 -0.2621
   16SAPS   H2R 2022   0.882   4.287   6.743 -0.2595 -0.3509  2.2551
   16SAPS   H2S 2023   0.728   4.240   6.661  0.6480  0.0313 -1.1917
   16SAPS    C3 2024   0.960   3.925   6.976 -0.1605  0.1072 -0.0686
   16SAPS    HX 2025   0.851   3.919   6.995 -0.4358  0.4201 -1.4767
   16SAPS    HY 2026   0.983   4.022   7.025 -1.6904  0.2988  0.3132
   16SAPS   O31 2027   1.036   3.829   7.056  0.2322  0.3273  0.1954
   16SAPS   C31 2028   0.973   3.713   7.070 -0.4975 -0.2822  0.2426
   16SAPS   O32 2029   0.863   3.680   7.026 -0.0853 -0.0244  0.1049
   16SAPS   C32 2030   1.065   3.614   7.152  0.5576 -0.0979  0.4909
   16SAPS   H2X 2031   1.165   3.659   7.137  0.1017  0.8015 -0.0274
   16SAPS   H2Y 2032   1.071   3.517   7.099  1.7939 -0.3833  1.1261
   16SAPS   C23 2033   0.702   4.270   6.876 -0.3953 -0.1666  0.1413
   16SAPS   H3R 2034   0.605   4.216   6.870 -0.0379 -1.0635  1.7288
   16SAPS   H3S 2035   0.683   4.377   6.855  0.9386  0.6973  2.7890
   16SAPS   C24 2036   0.754   4.268   7.016 -0.1257  0.7375 -0.3930
   16SAPS   H4R 2037   0.837   4.341   7.020  1.6071 -1.1272 -0.4451
   16SAPS   H4S 2038   0.805   4.171   7.037 -0.1753 -0.0182 -3.2987
   16SAPS   C25 2039   0.647   4.289   7.114  0.0548 -0.3259  0.2757
   16SAPS   H5R 2040   0.619   4.395   7.124  1.7184  0.2283 -0.4725
   16SAPS   C26 2041   0.589   4.199   7.192  0.1597  0.1988  0.2598
   16SAPS   H6R 2042   0.522   4.242   7.268 -0.2785  0.3537 -0.2106
   16SAPS   C27 2043   0.614   4.054   7.194 -0.4233  0.5201 -0.2378
   16SAPS   H7R 2044   0.640   4.013   7.095  2.8944  0.3107  0.6119
   16SAPS   H7S 2045   0.530   3.992   7.232 -0.1451  0.3997  0.1759
   16SAPS   C28 2046   0.740   4.020   7.264 -1.1960 -0.2878  0.3683
   16SAPS   H8R 2047   0.819   4.089   7.233 -1.5973  1.2043  2.4674
   16SAPS   C29 2048   0.765   3.925   7.356  0.2463  0.1761  0.1370
   16SAPS   H9R 2049   0.868   3.908   7.391  0.3396  1.4382  0.5254
   16SAPS  C210 2050   0.654   3.831   7.404 -0.2550  0.3029  0.0233
   16SAPS  H10R 2051   0.559   3.884   7.427  0.4865  1.3667  0.6869
   16SAPS  H10S 2052   0.682   3.788   7.502  0.9834 -1.1343 -0.9050
   16SAPS  C211 2053   0.618   3.713   7.310 -0.2503 -0.6984  0.0471
   16SAPS  H11R 2054   0.632   3.735   7.203 -1.9385 -0.2911 -0.1147
   16SAPS  C212 2055   0.561   3.598   7.349  0.1866  0.0249 -0.3827
   16SAPS  H12R 2056   0.543   3.531   7.265 -0.2412  0.4540 -0.6363
   16SAPS  C213 2057   0.528   3.556   7.492 -0.0507  0.2105  0.4083
   16SAPS  H13R 2058   0.429   3.510   7.511 -1.0641  1.6895 -0.9925
   16SAPS  H13S 2059   0.520   3.648   7.554  2.2680 -0.6596  2.1566
   16SAPS  C214 2060   0.638   3.469   7.560  0.0053 -1.0484  0.1206
   16SAPS  H14R 2061   0.727   3.446   7.500  0.2744  0.7557 -0.2299
   16SAPS  C215 2062   0.624   3.411   7.676  0.6602  0.3969 -1.0860
   16SAPS  H15R 2063   0.699   3.347   7.725  0.3458  2.3740  2.2470
   16SAPS  C216 2064   0.494   3.412   7.755 -0.4136  0.5186 -0.1019
   16SAPS  H16R 2065   0.450   3.310   7.755  0.8815 -0.1879 -3.9212
   16SAPS  H16S 2066   0.430   3.499   7.731 -1.2799 -0.3465 -1.0122
   16SAPS  C217 2067   0.525   3.436   7.903  0.0698 -0.0483  0.8110
   16SAPS  H17R 2068   0.433   3.478   7.948 -1.9523  2.6144 -4.7953
   16SAPS  H17S 2069   0.598   3.520   7.909  0.9715 -0.8129  0.7814
   16SAPS  C218 2070   0.573   3.307   7.983  0.6807  0.1498 -0.8011
   16SAPS  H18R 2071   0.642   3.243   7.925  1.0979 -1.7645  1.6125
   16SAPS  H18S 2072   0.482   3.250   8.010  0.7753  0.1826 -0.4002
   16SAPS  C219 2073   0.637   3.339   8.123  0.8004 -0.2810  0.3986
   16SAPS  H19R 2074   0.735   3.386   8.098 -0.3935  0.3953 -3.8096
   16SAPS  H19S 2075   0.661   3.246   8.178  2.9658  0.4801  0.8345
   16SAPS  C220 2076   0.541   3.431   8.208 -0.5936  0.6535  0.0658
   16SAPS  H20R 2077   0.575   3.432   8.314 -1.7616  1.8208  0.4532
   16SAPS  H20S 2078   0.439   3.386   8.208  0.1442 -1.1110 -0.1458
   16SAPS  H20T 2079   0.544   3.532   8.161  5.1431 -0.0082 -1.6946
   16SAPS   C33 2080   1.026   3.625   7.299  0.4647 -0.4585  0.6735
   16SAPS   H3X 2081   0.916   3.634   7.311  0.5370  0.5880  0.6489
   16SAPS   H3Y 2082   1.080   3.715   7.336  1.5085 -0.1216 -1.5382
   16SAPS   C34 2083   1.071   3.503   7.374  0.2519  0.6641  0.3916
   16SAPS   H4X 2084   1.163   3.463   7.326 -1.5281 -2.8853 -0.4236
   16SAPS   H4Y 2085   0.988   3.430   7.369  1.3870 -0.6996  0.6474
   16SAPS   C35 2086   1.114   3.525   7.521  0.6115  0.5304 -0.5797
   16SAPS   H5X 2087   1.188   3.606   7.542 -0.2336  0.4163  3.6755
   16SAPS   H5Y 2088   1.154   3.435   7.571  2.7591  0.9194 -1.5041
   16SAPS   C36 2089   0.991   3.550   7.610  0.0767  0.2055 -0.6985
   16SAPS   H6X 2090   0.930   3.460   7.588  1.1804 -0.4785 -1.0611
   16SAPS   H6Y 2091   0.931   3.632   7.566  1.0383  0.3083 -1.8683
   16SAPS   C37 2092   1.017   3.562   7.765 -0.0291  0.1235 -0.5302
   16SAPS   H7X 2093   1.110   3.614   7.794 -0.6200  0.6815  0.4149
   16SAPS   H7Y 2094   1.037   3.461   7.806  0.4478  0.3308 -0.2520
   16SAPS   C38 2095   0.910   3.628   7.849  0.4084  0.1854  0.0812
   16SAPS   H8X 2096   0.811   3.579   7.832  0.0134  1.2238 -0.7504
   16SAPS   H8Y 2097   0.892   3.737   7.832 -1.9810  0.4546  3.4313
   16SAPS   C39 2098   0.928   3.612   8.003  0.1679  0.0347 -0.0654
   16SAPS   H9X 2099   1.035   3.622   8.030  0.5322 -0.9573 -1.0448
   16SAPS   H9Y 2100   0.889   3.512   8.034 -0.3188  1.0869  3.0615
   16SAPS  C310 2101   0.832   3.716   8.076  0.2854  0.5217  0.5227
   16SAPS  H10X 2102   0.729   3.697   8.041  0.5338  0.9985 -0.5141
   16SAPS  H10Y 2103   0.858   3.815   8.033  2.0513 -0.9478 -2.1325
   16SAPS  C311 2104   0.827   3.703   8.234 -0.2503  0.0125  0.8625
   16SAPS  H11X 2105   0.925   3.736   8.275  0.7676  1.1432 -2.2054
   16SAPS  H11Y 2106   0.814   3.599   8.271  1.3143 -0.0673  1.2540
   16SAPS  C312 2107   0.726   3.806   8.290 -0.0088 -0.0463 -0.8063
   16SAPS  H12X 2108   0.627   3.774   8.253 -1.2128  2.5971 -0.1356
   16SAPS  H12Y 2109   0.744   3.912   8.261  0.5078  0.3417  0.7844
   16SAPS  C313 2110   0.711   3.794   8.445  0.9499 -0.7866  0.0090
   16SAPS  H13X 2111   0.803   3.825   8.499 -0.5576 -2.7502  4.1453
   16SAPS  H13Y 2112   0.682   3.689   8.463 -3.3972 -0.1511 -2.0905
   16SAPS  C314 2113   0.599   3.891   8.498 -0.8207  0.0482 -0.9224
   16SAPS  H14X 2114   0.494   3.866   8.474 -1.4191  1.2698  0.2381
   16SAPS  H14Y 2115   0.613   3.991   8.452  0.0780  0.2629 -0.2124
   16SAPS  C315 2116   0.610   3.901   8.647  0.2020  0.0698  0.5835
   16SAPS  H15X 2117   0.710   3.877   8.689  0.4070  1.0216  0.6729
   16SAPS  H15Y 2118   0.536   3.836   8.698 -0.2349 -1.6437 -2.0509
   16SAPS  C316 2119   0.577   4.042   8.693  0.3350  0.7970 -0.2762
   16SAPS  H16X 2120   0.476   4.073   8.660 -0.8155 -2.4915 -0.1385
   16SAPS  H16Y 2121   0.654   4.117   8.664  1.5123  0.0896  0.9017
   16SAPS  C317 2122   0.575   4.053   8.852  0.2247  0.3626  0.3243
   16SAPS  H17X 2123   0.659   4.002   8.904  0.4066 -2.6389 -2.5659
   16SAPS  H17Y 2124   0.482   3.998   8.878 -0.9117  2.1832  0.2975
   16SAPS  C318 2125   0.568   4.197   8.895 -0.2747 -0.1115 -0.4186
   16SAPS  H18X 2126   0.522   4.260   8.815 -0.2720  0.0135 -0.3232
   16SAPS  H18Y 2127   0.671   4.231   8.919  0.2018 -1.5529 -0.3401
   16SAPS  H18Z 2128   0.511   4.207   8.990 -0.7433  0.0820 -0.7194
   17SAPC     N 2129   1.647   2.038  10.666  0.1355  0.4911  0.3050
   17SAPC   C12 2130   1.689   2.136  10.771  0.4847  0.6219 -0.9753
   17SAPC  H12A 2131   1.693   2.082  10.864  0.5476  0.0054 -1.3341
   17SAPC  H12B 2132   1.618   2.216  10.786 -1.3550 -1.3540  2.0296
   17SAPC   C13 2133   1.635   2.116  10.535 -0.2016  0.5685 -0.6291
   17SAPC  H13A 2134   1.707   2.070  10.468 -0.3552  0.4208 -0.6942
   17SAPC  H13B 2135   1.537   2.107  10.491  0.3623 -0.9970 -1.6882
   17SAPC  H13C 2136   1.653   2.220  10.557 -2.0142  0.4155  1.9570
   17SAPC   C14 2137   1.743   1.917  10.646  0.1656 -0.4502  0.2486
   17SAPC  H14A 2138   1.841   1.955  10.621 -0.0362  0.0870  0.2535
   17SAPC  H14B 2139   1.736   1.851  10.731  1.9553  0.0093  0.7990
   17SAPC  H14C 2140   1.704   1.867  10.559  1.1601 -2.0919  0.6991
   17SAPC   C15 2141   1.513   1.987  10.702 -0.4460  1.1109  0.2075
   17SAPC  H15A 2142   1.432   2.059  10.713 -0.0945  1.1619  3.3805
   17SAPC  H15B 2143   1.467   1.931  10.622 -1.1089 -0.7932  1.8367
   17SAPC  H15C 2144   1.518   1.931  10.794  0.5566  0.0310 -0.4769
   17SAPC   C11 2145   1.830   2.201  10.761 -0.1506  0.1880 -0.2619
   17SAPC  H11A 2146   1.896   2.112  10.757 -1.8330 -1.2221  1.7139
   17SAPC  H11B 2147   1.873   2.251  10.851  1.2325  2.8406 -2.2677
   17SAPC     P 2148   1.982   2.276  10.566 -0.2402  0.4004  0.0698
   17SAPC   O13 2149   2.096   2.340  10.641  0.7187  0.3862 -0.3333
   17SAPC   O14 2150   2.003   2.133  10.526 -0.4106 -0.1834 -0.1182
   17SAPC   O12 2151   1.849   2.291  10.652 -0.4805  0.2846  0.1339
   17SAPC   O11 2152   1.964   2.356  10.427  0.3409 -0.1113 -0.4463
   17SAPC    C1 2153   1.911   2.493  10.442  0.2861  0.8602 -0.0593
   17SAPC    HA 2154   1.921   2.533  10.545  2.9218 -0.5397  0.3290
   17SAPC    HB 2155   1.984   2.558  10.390  1.1007  0.0473  0.0345
   17SAPC    C2 2156   1.760   2.510  10.401  0.1382  0.2388 -0.5522
   17SAPC    HS 2157   1.703   2.458  10.482  0.5548  0.5935 -0.0210
   17SAPC   O21 2158   1.735   2.451  10.277  0.3413 -0.0727  0.0636
   17SAPC   C21 2159   1.611   2.420  10.249 -0.7036  0.3660  0.2092
   17SAPC   O22 2160   1.522   2.432  10.330  0.6835 -0.4357 -0.2225
   17SAPC   C22 2161   1.599   2.348  10.116  0.6732 -0.1286 -0.0748
   17SAPC   H2R 2162   1.688   2.363  10.050  0.7374 -2.9119 -0.7487
   17SAPC   H2S 2163   1.579   2.244  10.149 -1.4190  0.4244  0.5246
   17SAPC    C3 2164   1.723   2.656  10.409 -0.0849 -0.4824 -0.7696
   17SAPC    HX 2165   1.731   2.693  10.513 -0.0889 -0.6294 -0.7164
   17SAPC    HY 2166   1.616   2.673  10.384 -0.3350 -1.1711 -0.1944
   17SAPC   O31 2167   1.804   2.742  10.331  0.0656  0.6418 -0.1349
   17SAPC   C31 2168   1.780   2.753  10.204 -0.0595  0.3189 -0.4634
   17SAPC   O32 2169   1.725   2.669  10.135  0.0537  0.5192  0.6808
   17SAPC   C32 2170   1.849   2.881  10.150  0.8622  0.2245 -0.4606
   17SAPC   H2X 2171   1.955   2.855  10.131  1.2438  2.2324 -1.3412
   17SAPC   H2Y 2172   1.844   2.959  10.229 -0.8504  0.2601 -0.5661
   17SAPC   C23 2173   1.473   2.372  10.032 -0.1194  0.0113  1.0092
   17SAPC   H3R 2174   1.446   2.478  10.048 -0.1249  0.4152 -1.3491
   17SAPC   H3S 2175   1.378   2.324  10.065  0.1320 -0.7388  0.6843
   17SAPC   C24 2176   1.499   2.348   9.881 -0.5876 -0.0245  0.1449
   17SAPC   H4R 2177   1.412   2.304   9.827  1.0845 -2.8850 -0.4244
   17SAPC   H4S 2178   1.565   2.258   9.885 -0.3650  0.0856 -0.9561
   17SAPC   C25 2179   1.575   2.458   9.806 -0.1723  0.3379 -0.2206
   17SAPC   H5R 2180   1.601   2.545   9.868 -0.3732  0.5323 -0.4112
   17SAPC   C26 2181   1.595   2.466   9.674 -0.2735 -0.5714 -0.1191
   17SAPC   H6R 2182   1.665   2.543   9.639 -0.8636  0.2364  0.4307
   17SAPC   C27 2183   1.549   2.366   9.572 -0.0588 -0.4582 -0.6506
   17SAPC   H7R 2184   1.460   2.407   9.519 -1.0174 -0.8393  0.6195
   17SAPC   H7S 2185   1.522   2.270   9.621  0.1809  1.5194  3.7688
   17SAPC   C28 2186   1.657   2.336   9.471  0.6186 -0.3837  0.5006
   17SAPC   H8R 2187   1.760   2.360   9.503  0.4274 -0.4067  1.1575
   17SAPC   C29 2188   1.633   2.266   9.359  0.9523  0.3390 -0.7668
   17SAPC   H9R 2189   1.723   2.251   9.296 -1.0826 -2.1774 -3.3539
   17SAPC  C210 2190   1.498   2.212   9.320 -0.1644 -0.3246 -0.0456
   17SAPC  H10R 2191   1.422   2.211   9.401  0.6256  3.2081  0.8932
   17SAPC  H10S 2192   1.511   2.102   9.308  1.4467 -0.2196  0.5378
   17SAPC  C211 2193   1.444   2.280   9.197 -0.4889  0.1204  0.3620
   17SAPC  H11R 2194   1.505   2.272   9.105  0.1631 -2.2333  0.9259
   17SAPC  C212 2195   1.327   2.353   9.185 -0.4153 -0.8815  0.1251
   17SAPC  H12R 2196   1.322   2.403   9.087 -1.8712  1.7368  1.4463
   17SAPC  C213 2197   1.217   2.391   9.282  0.0425  0.7456  0.4727
   17SAPC  H13R 2198   1.235   2.500   9.277 -0.6754  0.8212 -2.7081
   17SAPC  H13S 2199   1.252   2.367   9.385 -1.9616 -0.0127  1.0394
   17SAPC  C214 2200   1.074   2.355   9.240  0.1402  0.9008  0.0122
   17SAPC  H14R 2201   1.061   2.289   9.153  1.0472  0.3499  0.2709
   17SAPC  C215 2202   0.960   2.401   9.309  0.3641 -1.3051  0.8903
   17SAPC  H15R 2203   0.859   2.365   9.286  0.4692 -3.3031  3.1751
   17SAPC  C216 2204   0.974   2.491   9.426 -0.4109  0.0542 -0.6838
   17SAPC  H16R 2205   0.931   2.590   9.400  0.0363  1.6253  3.6835
   17SAPC  H16S 2206   1.077   2.522   9.451 -1.0470  0.6580  1.3724
   17SAPC  C217 2207   0.914   2.451   9.555  0.1631 -0.1759  0.3019
   17SAPC  H17R 2208   0.819   2.394   9.548 -0.5380  1.0308 -0.3168
   17SAPC  H17S 2209   0.875   2.535   9.616 -3.0872 -1.4397  0.1582
   17SAPC  C218 2210   1.015   2.367   9.648 -0.3813  0.3452 -0.1309
   17SAPC  H18R 2211   1.088   2.322   9.578  1.1213  0.0190  1.5978
   17SAPC  H18S 2212   0.955   2.285   9.695 -1.5272  0.6840 -0.9449
   17SAPC  C219 2213   1.078   2.443   9.765 -0.6276 -0.1945 -0.3124
   17SAPC  H19R 2214   1.113   2.542   9.727  0.2583 -0.3881 -0.0344
   17SAPC  H19S 2215   1.169   2.388   9.796 -1.2908 -1.7938 -1.1268
   17SAPC  C220 2216   0.987   2.462   9.886 -0.1512  0.2115  0.6548
   17SAPC  H20R 2217   0.897   2.517   9.852 -0.7578 -1.2733 -0.2408
   17SAPC  H20S 2218   1.046   2.519   9.961  3.5666  0.5573 -2.2353
   17SAPC  H20T 2219   0.966   2.361   9.928 -0.5063  0.1920  0.4316
   17SAPC   C33 2220   1.774   2.932  10.024  0.0317  0.2893 -0.2582
   17SAPC   H3X 2221   1.668   2.964  10.037  0.5388  1.8297  0.4086
   17SAPC   H3Y 2222   1.775   2.843   9.958 -0.5016  0.0479  0.0567
   17SAPC   C34 2223   1.849   3.057   9.956  0.0990 -0.5875  0.1178
   17SAPC   H4X 2224   1.956   3.030   9.941  0.1699  0.4582 -1.4819
   17SAPC   H4Y 2225   1.828   3.141  10.025  1.7752 -0.3031  0.3201
   17SAPC   C35 2226   1.802   3.088   9.821 -0.2536  0.2311  0.6246
   17SAPC   H5X 2227   1.696   3.121   9.816 -0.3405 -0.1931 -0.4087
   17SAPC   H5Y 2228   1.794   2.995   9.761  1.2592  0.3684  0.1584
   17SAPC   C36 2229   1.882   3.194   9.739 -0.2966 -0.3071  0.2228
   17SAPC   H6X 2230   1.897   3.293   9.786 -1.0421  1.1839 -2.4435
   17SAPC   H6Y 2231   1.828   3.214   9.644 -0.8829  0.1987  0.6604
   17SAPC   C37 2232   2.024   3.135   9.710 -0.3566 -0.6470 -0.8937
   17SAPC   H7X 2233   1.994   3.047   9.649 -1.4151  0.5438 -2.1541
   17SAPC   H7Y 2234   2.092   3.108   9.794 -3.3324  1.0799  2.3334
   17SAPC   C38 2235   2.112   3.228   9.627 -0.3853  0.8908 -0.6128
   17SAPC   H8X 2236   2.218   3.195   9.625  1.0096  4.5080  2.4741
   17SAPC   H8Y 2237   2.109   3.323   9.684 -2.7406  0.5914 -0.1197
   17SAPC   C39 2238   2.054   3.247   9.492 -0.7116 -0.1028 -0.1569
   17SAPC   H9X 2239   1.978   3.327   9.487  0.8291  1.5104  1.0683
   17SAPC   H9Y 2240   2.017   3.146   9.462  1.1522 -1.5913  2.2410
   17SAPC  C310 2241   2.163   3.292   9.391 -0.6112  0.1746  0.3702
   17SAPC  H10X 2242   2.263   3.243   9.398 -0.2074  0.5964 -1.7330
   17SAPC  H10Y 2243   2.179   3.399   9.414 -0.2748  0.8153 -2.4585
   17SAPC  C311 2244   2.101   3.294   9.253  0.4933  0.4073 -0.1254
   17SAPC  H11X 2245   2.002   3.343   9.263  1.5791  2.2384  3.1803
   17SAPC  H11Y 2246   2.076   3.191   9.219 -0.6349  0.6568 -0.1121
   17SAPC  C312 2247   2.183   3.364   9.143 -0.0067  0.2021  0.2448
   17SAPC  H12X 2248   2.284   3.322   9.128  0.1146  0.5142  0.1952
   17SAPC  H12Y 2249   2.191   3.472   9.169 -0.4210  0.0253  1.1369
   17SAPC  C313 2250   2.119   3.337   9.008 -0.1006  0.6159  0.2761
   17SAPC  H13X 2251   2.010   3.347   9.029 -0.3685 -1.8890  0.4357
   17SAPC  H13Y 2252   2.132   3.229   8.988 -0.6352  0.6604 -0.3733
   17SAPC  C314 2253   2.174   3.420   8.897  0.0437 -0.0675 -1.1897
   17SAPC  H14X 2254   2.281   3.395   8.886 -0.2083 -1.7867 -0.0983
   17SAPC  H14Y 2255   2.155   3.523   8.936 -0.8810 -0.7200  0.1760
   17SAPC  C315 2256   2.103   3.410   8.761 -0.4982 -0.2510 -0.1704
   17SAPC  H15X 2257   2.086   3.304   8.731 -0.3668 -0.0101 -1.1345
   17SAPC  H15Y 2258   2.166   3.461   8.685 -0.6724  1.5915  0.8802
   17SAPC  C316 2259   1.978   3.494   8.746 -0.0835 -0.5612 -0.3115
   17SAPC  H16X 2260   2.005   3.597   8.779 -0.6121 -0.0787 -1.2973
   17SAPC  H16Y 2261   1.892   3.459   8.807  1.5774 -1.9701  1.3120
   17SAPC  C317 2262   1.924   3.506   8.603 -0.5787  0.2171 -0.5356
   17SAPC  H17X 2263   1.825   3.555   8.618 -0.4502  0.2093  0.3861
   17SAPC  H17Y 2264   1.915   3.408   8.550 -0.0998  0.0689 -0.3488
   17SAPC  C318 2265   2.007   3.593   8.506 -0.6936 -0.5884  0.1716
   17SAPC  H18X 2266   1.951   3.616   8.413 -2.0364  2.1130  1.5024
   17SAPC  H18Y 2267   2.028   3.696   8.543 -0.9590 -0.9420  1.3493
   17SAPC  H18Z 2268   2.109   3.560   8.479  0.0203  2.2671 -1.0183
   18SAPC     N 2269   0.452   1.675  11.175  0.5206 -0.3745  0.3585
   18SAPC   C12 2270   0.467   1.658  11.021  0.1795  0.0455 -0.2040
   18SAPC  H12A 2271   0.373   1.688  10.978  1.2779  2.2587 -1.2391
   18SAPC  H12B 2272   0.481   1.556  10.988 -0.5832  0.5619 -2.2004
   18SAPC   C13 2273   0.569   1.638  11.257 -0.6052 -0.6091  0.7051
   18SAPC  H13A 2274   0.659   1.689  11.224 -1.2232  0.5154  0.6957
   18SAPC  H13B 2275   0.556   1.649  11.364 -2.2376 -0.6167  0.5281
   18SAPC  H13C 2276   0.592   1.534  11.242 -1.5716 -0.8640  0.9838
   18SAPC   C14 2277   0.414   1.816  11.208  0.4145  0.3195  0.3521
   18SAPC  H14A 2278   0.406   1.820  11.315 -0.9056  0.5890  0.2639
   18SAPC  H14B 2279   0.489   1.884  11.168  1.4243 -0.0169  1.6356
   18SAPC  H14C 2280   0.320   1.845  11.162  0.5491 -0.2231 -0.2821
   18SAPC   C15 2281   0.339   1.596  11.216 -0.1726  0.0292 -0.2504
   18SAPC  H15A 2282   0.247   1.638  11.179 -0.1432 -0.4642 -0.9159
   18SAPC  H15B 2283   0.332   1.495  11.176 -1.2741 -0.2417  0.5866
   18SAPC  H15C 2284   0.318   1.589  11.321 -0.9680 -1.1903 -0.4686
   18SAPC   C11 2285   0.582   1.731  10.944 -0.0823  0.0118 -0.3659
   18SAPC  H11A 2286   0.588   1.683  10.844 -0.6755 -1.5413  0.3092
   18SAPC  H11B 2287   0.668   1.698  11.006 -1.2997  1.8289  2.4731
   18SAPC     P 2288   0.451   1.948  10.874  0.2609 -0.0929  0.0992
   18SAPC   O13 2289   0.326   1.903  10.939  0.1611  0.5617  0.0519
   18SAPC   O14 2290   0.481   2.096  10.869 -0.2158 -0.4955  0.2069
   18SAPC   O12 2291   0.570   1.874  10.949 -0.3833 -0.0205 -0.3210
   18SAPC   O11 2292   0.457   1.887  10.724  0.0283 -0.3578 -0.0163
   18SAPC    C1 2293   0.355   1.812  10.665 -0.5283 -0.0823 -0.8935
   18SAPC    HA 2294   0.400   1.754  10.582 -0.5479  0.3726 -1.2279
   18SAPC    HB 2295   0.305   1.751  10.744  0.2795  1.4339  0.8613
   18SAPC    C2 2296   0.253   1.900  10.594  0.2357 -0.1447  0.2425
   18SAPC    HS 2297   0.174   1.841  10.543  0.9110 -0.1304 -0.8422
   18SAPC   O21 2298   0.310   1.984  10.490 -0.3917 -0.1659 -0.4500
   18SAPC   C21 2299   0.329   1.929  10.370 -0.7931  0.8564 -0.2363
   18SAPC   O22 2300   0.298   1.815  10.346  1.0416 -0.3413  0.4071
   18SAPC   C22 2301   0.382   2.029  10.263 -0.3709 -0.2475 -0.7803
   18SAPC   H2R 2302   0.343   2.131  10.285  1.9764  0.2953  1.3820
   18SAPC   H2S 2303   0.492   2.038  10.259 -0.1906 -1.6533  0.2517
   18SAPC    C3 2304   0.159   1.991  10.680  0.3155 -0.1852  0.3967
   18SAPC    HX 2305   0.217   2.078  10.717  1.0634  0.1937 -1.5453
   18SAPC    HY 2306   0.125   1.942  10.773  0.9098  0.5820  1.0246
   18SAPC   O31 2307   0.030   2.021  10.612  0.0398 -0.1883  0.2779
   18SAPC   C31 2308   0.033   2.126  10.543  0.1666 -0.9718 -0.9204
   18SAPC   O32 2309   0.122   2.210  10.540 -0.3310 -0.0064 -0.1949
   18SAPC   C32 2310  -0.083   2.153  10.451 -0.5665  0.4788 -0.5643
   18SAPC   H2X 2311  -0.117   2.256  10.471 -0.6917  0.2991  0.1747
   18SAPC   H2Y 2312  -0.172   2.088  10.468 -1.5961  1.9564 -0.1858
   18SAPC   C23 2313   0.336   1.998  10.121 -0.4486  0.4080  0.9446
   18SAPC   H3R 2314   0.352   2.084  10.053  1.3801 -0.7355 -0.1723
   18SAPC   H3S 2315   0.226   1.989  10.115 -0.3911 -0.8577  1.2945
   18SAPC   C24 2316   0.391   1.861  10.063  0.1259  0.1085  0.4440
   18SAPC   H4R 2317   0.369   1.846   9.955  2.0300 -1.6882  0.2269
   18SAPC   H4S 2318   0.346   1.770  10.109 -0.5197 -0.8303 -1.9095
   18SAPC   C25 2319   0.540   1.847  10.079  0.2108  0.2538 -0.4425
   18SAPC   H5R 2320   0.563   1.829  10.186 -0.8578 -1.2446 -0.4242
   18SAPC   C26 2321   0.639   1.850   9.996 -0.2503  0.0591  0.1795
   18SAPC   H6R 2322   0.742   1.834  10.032 -0.3845 -0.7835  0.2177
   18SAPC   C27 2323   0.621   1.871   9.846  0.4713  0.4352 -0.1070
   18SAPC   H7R 2324   0.573   1.970   9.832 -2.5948 -1.0594 -1.1428
   18SAPC   H7S 2325   0.536   1.805   9.816  1.3256 -1.0100  0.5196
   18SAPC   C28 2326   0.723   1.854   9.736 -0.0618 -0.0700 -0.3248
   18SAPC   H8R 2327   0.752   1.954   9.700 -0.6710 -0.0014 -0.6255
   18SAPC   C29 2328   0.788   1.752   9.679 -0.0405  0.3639  0.0215
   18SAPC   H9R 2329   0.861   1.775   9.600 -0.3608 -1.8830 -1.0019
   18SAPC  C210 2330   0.779   1.604   9.717 -0.2960 -0.0206  0.6159
   18SAPC  H10R 2331   0.726   1.551   9.635 -0.1774  2.1972 -1.0031
   18SAPC  H10S 2332   0.728   1.587   9.815  1.9874 -0.2128  1.8344
   18SAPC  C211 2333   0.919   1.558   9.728  0.1145  0.5961 -0.3295
   18SAPC  H11R 2334   0.974   1.575   9.822 -1.5184 -2.9370  1.4414
   18SAPC  C212 2335   0.994   1.488   9.643 -0.1992 -0.4425 -0.3337
   18SAPC  H12R 2336   1.103   1.478   9.660 -0.3251  0.6316  1.3533
   18SAPC  C213 2337   0.959   1.443   9.500 -0.7061  0.1312 -0.3624
   18SAPC  H13R 2338   0.851   1.439   9.477 -0.8324 -0.4457  0.2968
   18SAPC  H13S 2339   0.997   1.339   9.491 -1.0114 -0.1672  1.3648
   18SAPC  C214 2340   1.028   1.534   9.395  0.0713 -0.2039  0.2047
   18SAPC  H14R 2341   1.048   1.634   9.437  2.7519 -1.2486  1.6469
   18SAPC  C215 2342   1.064   1.499   9.269  0.3695 -0.7992  0.3716
   18SAPC  H15R 2343   1.115   1.574   9.206 -0.0414 -1.3801 -0.6742
   18SAPC  C216 2344   1.043   1.357   9.212  0.3330 -0.8203 -0.1157
   18SAPC  H16R 2345   0.945   1.359   9.160 -0.4743  3.0150  1.2677
   18SAPC  H16S 2346   1.039   1.272   9.284 -3.1609 -1.9571 -1.4260
   18SAPC  C217 2347   1.136   1.328   9.095  0.0881  0.5460  0.1383
   18SAPC  H17R 2348   1.128   1.220   9.071  2.3838  0.3781 -0.0764
   18SAPC  H17S 2349   1.239   1.347   9.132  1.1667  0.3659 -2.5113
   18SAPC  C218 2350   1.119   1.406   8.965  0.0959  0.0722 -0.4192
   18SAPC  H18R 2351   1.115   1.515   8.985 -0.5379 -0.0028 -0.1008
   18SAPC  H18S 2352   1.015   1.388   8.930 -0.6461  1.3651  1.0166
   18SAPC  C219 2353   1.222   1.377   8.856 -0.1039  0.5469 -0.6314
   18SAPC  H19R 2354   1.218   1.266   8.846  0.7700  0.4967 -0.5204
   18SAPC  H19S 2355   1.325   1.394   8.896 -0.3701  0.3559  0.1477
   18SAPC  C220 2356   1.201   1.438   8.723  0.6520  0.0301  0.1063
   18SAPC  H20R 2357   1.102   1.408   8.683  0.6603 -0.2794  0.3147
   18SAPC  H20S 2358   1.274   1.408   8.645  0.6041 -0.5606  0.2849
   18SAPC  H20T 2359   1.207   1.549   8.723 -0.5914  0.1141 -0.7114
   18SAPC   C33 2360  -0.050   2.141  10.296 -0.2728 -0.1435  0.0098
   18SAPC   H3X 2361  -0.147   2.135  10.243 -0.5503 -1.3555  0.6336
   18SAPC   H3Y 2362  -0.002   2.043  10.279 -0.7939 -0.3641 -0.2010
   18SAPC   C34 2363   0.029   2.268  10.258  0.8181 -0.2559  0.4053
   18SAPC   H4X 2364   0.126   2.262  10.312  0.4152 -3.4077  1.0150
   18SAPC   H4Y 2365  -0.025   2.359  10.290 -0.6053 -1.5226  1.8138
   18SAPC   C35 2366   0.043   2.284  10.100  0.1809 -0.3675 -0.2328
   18SAPC   H5X 2367  -0.056   2.291  10.049  0.8685 -1.3918 -1.7530
   18SAPC   H5Y 2368   0.087   2.188  10.067  0.7576 -0.5183  0.9042
   18SAPC   C36 2369   0.137   2.404  10.062  0.3030  0.9761 -0.1687
   18SAPC   H6X 2370   0.238   2.384  10.105  0.8586  1.7676 -1.0751
   18SAPC   H6Y 2371   0.091   2.481  10.126 -1.7777 -0.7050  0.4693
   18SAPC   C37 2372   0.144   2.447   9.923 -0.5880 -0.5623 -0.3521
   18SAPC   H7X 2373   0.192   2.373   9.855  0.8416  0.4100 -0.4582
   18SAPC   H7Y 2374   0.207   2.539   9.914 -1.1074  0.2191  2.8639
   18SAPC   C38 2375   0.013   2.491   9.865  1.0573 -0.4128 -0.5144
   18SAPC   H8X 2376  -0.057   2.533   9.940 -0.9101  1.3693 -3.1536
   18SAPC   H8Y 2377  -0.043   2.403   9.826  1.1172 -1.5868  1.8519
   18SAPC   C39 2378   0.020   2.601   9.753  0.0046 -0.2178 -0.2965
   18SAPC   H9X 2379   0.068   2.696   9.785  0.2782 -0.2211 -0.6808
   18SAPC   H9Y 2380  -0.086   2.626   9.730  0.0916  1.0453  0.5672
   18SAPC  C310 2381   0.090   2.558   9.622  0.0834 -0.8310 -0.1399
   18SAPC  H10X 2382   0.038   2.469   9.581  0.0449 -1.1173  0.5164
   18SAPC  H10Y 2383   0.198   2.543   9.642  0.6448  1.5635 -1.0074
   18SAPC  C311 2384   0.079   2.668   9.514  0.3258 -0.2098  0.3025
   18SAPC  H11X 2385   0.122   2.766   9.545  1.5983 -0.9396  0.9007
   18SAPC  H11Y 2386  -0.024   2.691   9.481 -0.0935 -0.3012  1.4863
   18SAPC  C312 2387   0.161   2.625   9.391  0.0389 -0.6155 -0.2557
   18SAPC  H12X 2388   0.266   2.611   9.425  0.5518 -2.3185 -2.3911
   18SAPC  H12Y 2389   0.159   2.716   9.328 -0.0309  0.5929  1.3968
   18SAPC  C313 2390   0.114   2.498   9.310 -0.0879 -0.5260  0.5675
   18SAPC  H13X 2391   0.003   2.493   9.316 -0.0335 -0.9193  1.5003
   18SAPC  H13Y 2392   0.149   2.401   9.352 -0.5518 -0.9007  0.1030
   18SAPC  C314 2393   0.166   2.498   9.164  0.2598 -0.4901 -0.0604
   18SAPC  H14X 2394   0.158   2.398   9.117 -3.7141 -0.5055  0.3264
   18SAPC  H14Y 2395   0.267   2.544   9.174 -0.5133  1.9568 -2.3235
   18SAPC  C315 2396   0.093   2.604   9.073  0.7638  0.1276  0.2671
   18SAPC  H15X 2397   0.162   2.615   8.986  2.4441 -0.5270  1.4624
   18SAPC  H15Y 2398   0.087   2.704   9.120  0.8471  0.1538  0.2220
   18SAPC  C316 2399  -0.041   2.554   9.013  0.8157  0.0441  0.3608
   18SAPC  H16X 2400  -0.115   2.557   9.095 -2.0878  0.4529 -2.1016
   18SAPC  H16Y 2401  -0.019   2.453   8.972  1.5741  0.3678 -0.0593
   18SAPC  C317 2402  -0.083   2.644   8.903 -0.2483  0.3342  0.8200
   18SAPC  H17X 2403   0.000   2.662   8.832  1.2258 -0.7502  2.2116
   18SAPC  H17Y 2404  -0.112   2.750   8.923  1.9194  1.7022 -2.3895
   18SAPC  C318 2405  -0.215   2.583   8.835 -0.3607  0.5762 -0.6094
   18SAPC  H18X 2406  -0.294   2.585   8.914  0.6304  3.0258  0.4053
   18SAPC  H18Y 2407  -0.205   2.474   8.813  0.0202  0.1696  1.3648
   18SAPC  H18Z 2408  -0.240   2.638   8.742  1.3147 -0.5107 -1.7417
   19SAPC     N 2409   6.070   2.699  10.934  0.3427 -0.2083 -0.2991
   19SAPC   C12 2410   6.003   2.672  10.799 -0.2745  0.4897 -0.6486
   19SAPC  H12A 2411   6.032   2.571  10.774  0.3113  0.6283 -0.5597
   19SAPC  H12B 2412   6.046   2.729  10.719  2.1615  0.4801  0.5404
   19SAPC   C13 2413   6.068   2.845  10.961 -0.4142  0.0047 -0.3337
   19SAPC  H13A 2414   6.109   2.870  11.058 -1.7512  0.1630  0.2032
   19SAPC  H13B 2415   6.125   2.900  10.887 -0.2059 -0.4090 -0.4871
   19SAPC  H13C 2416   5.966   2.880  10.967  0.2007  1.8679 -0.1385
   19SAPC   C14 2417   6.006   2.629  11.050 -0.2648 -0.0759 -0.2132
   19SAPC  H14A 2418   5.907   2.671  11.067 -0.3348 -0.6557  0.9635
   19SAPC  H14B 2419   5.983   2.529  11.018  0.1516 -0.9306  1.9597
   19SAPC  H14C 2420   6.057   2.622  11.145 -0.0766  0.2630 -0.2896
   19SAPC   C15 2421   6.217   2.657  10.936 -0.2890 -0.3100 -0.1967
   19SAPC  H15A 2422   6.215   2.549  10.939  2.1034 -0.4517 -1.5195
   19SAPC  H15B 2423   6.262   2.691  10.844  0.2525  2.6582  1.0518
   19SAPC  H15C 2424   6.263   2.703  11.023 -1.7006 -0.1733  0.5100
   19SAPC   C11 2425   5.854   2.696  10.800  0.0822  0.0664  0.4086
   19SAPC  H11A 2426   5.796   2.656  10.886 -0.4516 -0.1303 -0.0367
   19SAPC  H11B 2427   5.805   2.651  10.711  0.8312 -1.4519  0.7238
   19SAPC     P 2428   5.812   2.910  10.658 -0.1066  0.4440  0.2263
   19SAPC   O13 2429   5.684   2.875  10.593  0.4187  0.3620  0.1938
   19SAPC   O14 2430   5.848   3.053  10.671  0.2048  0.7798 -0.2561
   19SAPC   O12 2431   5.810   2.835  10.801 -0.2319  0.3475 -0.2913
   19SAPC   O11 2432   5.934   2.844  10.592 -0.0928  0.1473 -0.0779
   19SAPC    C1 2433   5.937   2.757  10.477 -0.0858 -0.8063  0.2137
   19SAPC    HA 2434   6.042   2.726  10.455 -0.7526 -2.4605 -0.7719
   19SAPC    HB 2435   5.865   2.675  10.497 -0.7718 -0.3587 -0.3798
   19SAPC    C2 2436   5.884   2.821  10.343  0.2779  0.1376  0.0970
   19SAPC    HS 2437   5.775   2.843  10.342 -0.2867 -1.9386 -3.7735
   19SAPC   O21 2438   5.919   2.739  10.232  0.2850  0.3873  0.0185
   19SAPC   C21 2439   5.836   2.630  10.227 -0.2460 -0.3326 -0.4942
   19SAPC   O22 2440   5.734   2.620  10.293 -0.4497 -0.1888  0.2207
   19SAPC   C22 2441   5.895   2.515  10.147  0.3090 -0.2126  0.3265
   19SAPC   H2R 2442   5.930   2.570  10.057 -2.8228  2.5235  0.6122
   19SAPC   H2S 2443   5.975   2.460  10.202 -0.9611 -0.5674  1.8548
   19SAPC    C3 2444   5.956   2.952  10.321 -0.0828 -0.2540 -0.5183
   19SAPC    HX 2445   6.066   2.937  10.328  0.5437  1.6378 -4.0068
   19SAPC    HY 2446   5.928   3.022  10.402  0.4366 -0.3396 -0.2632
   19SAPC   O31 2447   5.929   3.014  10.192  0.4322  0.5116  0.0766
   19SAPC   C31 2448   5.801   3.050  10.171 -0.0615 -0.1977  0.0289
   19SAPC   O32 2449   5.722   3.059  10.266  0.2174  0.0368  0.6117
   19SAPC   C32 2450   5.780   3.077  10.023 -0.0951 -0.2887  0.6662
   19SAPC   H2X 2451   5.785   3.184   9.994  1.7090 -0.3349  0.6869
   19SAPC   H2Y 2452   5.675   3.047  10.001 -0.8485  1.6135  1.4300
   19SAPC   C23 2453   5.799   2.401  10.111  0.9266  0.6067 -0.3619
   19SAPC   H3R 2454   5.710   2.437  10.055  1.3499  0.1411 -1.3701
   19SAPC   H3S 2455   5.760   2.363  10.207  0.3135  2.8300  0.3403
   19SAPC   C24 2456   5.878   2.290  10.038 -0.3249 -0.3836 -0.4974
   19SAPC   H4R 2457   5.921   2.220  10.113  2.5466  0.3788 -1.3188
   19SAPC   H4S 2458   5.973   2.331  10.000 -0.8398  0.5419 -0.8136
   19SAPC   C25 2459   5.825   2.201   9.934  0.1787  0.3510 -0.2801
   19SAPC   H5R 2460   5.780   2.109   9.975  1.3177  0.2262  0.7665
   19SAPC   C26 2461   5.826   2.233   9.804 -0.5031  0.6882  0.0750
   19SAPC   H6R 2462   5.795   2.149   9.740 -2.2132  0.5791  0.9706
   19SAPC   C27 2463   5.894   2.345   9.738 -0.2038 -0.6823 -0.3322
   19SAPC   H7R 2464   5.991   2.310   9.699  0.1467 -0.0876 -0.0091
   19SAPC   H7S 2465   5.929   2.423   9.809 -1.0949 -1.1649  0.6658
   19SAPC   C28 2466   5.807   2.400   9.634 -0.4785 -0.2462  0.4144
   19SAPC   H8R 2467   5.707   2.431   9.668 -0.2093 -0.1963  1.1897
   19SAPC   C29 2468   5.829   2.408   9.500 -0.0046 -0.7214 -0.8775
   19SAPC   H9R 2469   5.756   2.458   9.435  0.8509 -0.3580 -1.5609
   19SAPC  C210 2470   5.953   2.357   9.431 -0.3881  0.1443  0.1483
   19SAPC  H10R 2471   6.048   2.378   9.484 -1.5132  2.4097  1.4085
   19SAPC  H10S 2472   5.962   2.381   9.323 -1.9759 -0.7437 -0.2095
   19SAPC  C211 2473   5.953   2.210   9.416  0.0109 -0.6720  0.3907
   19SAPC  H11R 2474   5.889   2.146   9.478  0.4886 -1.0031  0.5404
   19SAPC  C212 2475   6.021   2.141   9.320 -0.3641 -0.1275  0.2768
   19SAPC  H12R 2476   6.030   2.032   9.333  0.6664 -0.3292 -1.7289
   19SAPC  C213 2477   6.110   2.196   9.218  0.1827  0.0110  0.9801
   19SAPC  H13R 2478   6.207   2.229   9.262  0.9638  1.7178 -1.7665
   19SAPC  H13S 2479   6.065   2.284   9.167  0.7037 -0.9596 -1.2372
   19SAPC  C214 2480   6.147   2.098   9.108  0.1656  0.2547  0.1458
   19SAPC  H14R 2481   6.250   2.061   9.119 -0.0910 -0.7785 -0.7542
   19SAPC  C215 2482   6.070   2.034   9.017  0.4813 -0.6424 -0.2657
   19SAPC  H15R 2483   6.124   1.973   8.943 -1.0343 -2.9647  0.4416
   19SAPC  C216 2484   5.920   2.060   8.983  0.0970  0.6729  0.5835
   19SAPC  H16R 2485   5.872   2.098   9.076  1.1096  0.2027  1.3316
   19SAPC  H16S 2486   5.861   1.968   8.965  0.1119  1.1438 -2.3337
   19SAPC  C217 2487   5.900   2.153   8.860  0.3506 -0.4013 -0.3139
   19SAPC  H17R 2488   5.972   2.236   8.866 -1.8477  1.5691  0.3370
   19SAPC  H17S 2489   5.799   2.199   8.870  1.1043  0.9215  2.0287
   19SAPC  C218 2490   5.916   2.073   8.730  0.2820 -0.2830 -0.4407
   19SAPC  H18R 2491   5.854   1.982   8.745  0.2699 -0.0560  1.0384
   19SAPC  H18S 2492   6.022   2.041   8.724  0.4307 -0.1460  1.1761
   19SAPC  C219 2493   5.885   2.157   8.607  0.2051 -0.1919 -0.0839
   19SAPC  H19R 2494   5.964   2.235   8.605  0.3876 -0.3789 -1.6020
   19SAPC  H19S 2495   5.779   2.190   8.605 -0.4503 -2.1831 -0.6661
   19SAPC  C220 2496   5.904   2.081   8.481 -0.4392 -0.0440 -0.5640
   19SAPC  H20R 2497   5.835   1.994   8.478 -1.4957  0.8008 -1.3499
   19SAPC  H20S 2498   6.006   2.038   8.468 -0.1322  0.1872  0.8831
   19SAPC  H20T 2499   5.870   2.144   8.396 -0.3857 -0.8706 -1.2071
   19SAPC   C33 2500   5.875   3.002   9.927 -0.1890 -0.0816 -0.6921
   19SAPC   H3X 2501   5.878   2.896   9.959 -2.0247  0.0386 -0.0210
   19SAPC   H3Y 2502   5.978   3.029   9.961 -1.3997  2.1066  1.5832
   19SAPC   C34 2503   5.832   3.019   9.782  0.2143 -0.1682 -0.0052
   19SAPC   H4X 2504   5.847   3.123   9.744 -0.8803 -0.9648 -2.9097
   19SAPC   H4Y 2505   5.721   3.011   9.782  0.1585  0.4497 -0.7737
   19SAPC   C35 2506   5.886   2.913   9.687 -1.0308  0.5911  0.1823
   19SAPC   H5X 2507   5.867   2.814   9.733  0.2198 -0.0739 -0.6797
   19SAPC   H5Y 2508   5.995   2.930   9.673 -1.2307  1.0875 -0.8448
   19SAPC   C36 2509   5.830   2.911   9.544  0.8034  0.2149  0.7385
   19SAPC   H6X 2510   5.853   3.007   9.493 -0.4893  0.0673 -0.1650
   19SAPC   H6Y 2511   5.719   2.903   9.552  0.6062  1.8227  0.0085
   19SAPC   C37 2512   5.881   2.796   9.452  0.3223  0.2402  0.7721
   19SAPC   H7X 2513   5.805   2.791   9.371  0.5565  4.1627  0.0901
   19SAPC   H7Y 2514   5.868   2.696   9.500 -1.6320 -0.6211 -1.3605
   19SAPC   C38 2515   6.019   2.824   9.399 -0.0511 -0.0442  0.2061
   19SAPC   H8X 2516   6.091   2.832   9.484  0.7105 -1.9735 -0.2037
   19SAPC   H8Y 2517   6.018   2.912   9.331 -1.3908 -0.0028  0.2670
   19SAPC   C39 2518   6.073   2.705   9.307 -0.5380 -0.1584  0.4408
   19SAPC   H9X 2519   5.985   2.680   9.244  0.2760 -0.5986 -0.5420
   19SAPC   H9Y 2520   6.083   2.606   9.355 -0.4494 -0.7770 -0.8208
   19SAPC  C310 2521   6.204   2.736   9.222  0.0892 -0.1832  0.2506
   19SAPC  H10X 2522   6.283   2.658   9.229  1.5032  1.2633  0.7912
   19SAPC  H10Y 2523   6.249   2.833   9.249  1.4858 -1.0532  1.1644
   19SAPC  C311 2524   6.175   2.751   9.074 -0.8077 -0.2288  0.3026
   19SAPC  H11X 2525   6.086   2.812   9.047 -0.5594  0.3348  0.7486
   19SAPC  H11Y 2526   6.160   2.653   9.024 -0.9960 -0.6722  1.2246
   19SAPC  C312 2527   6.295   2.820   9.001  0.0058 -0.3031  0.3812
   19SAPC  H12X 2528   6.384   2.769   9.043  0.7791  1.0088  0.3872
   19SAPC  H12Y 2529   6.285   2.926   9.034 -1.6085  0.3372 -1.9249
   19SAPC  C313 2530   6.283   2.810   8.847 -0.2706  0.2264 -0.7735
   19SAPC  H13X 2531   6.180   2.850   8.830  0.9592  3.2562 -1.7990
   19SAPC  H13Y 2532   6.288   2.704   8.813  0.8558 -1.0326  2.9238
   19SAPC  C314 2533   6.378   2.903   8.767 -0.4279  0.4368  0.1157
   19SAPC  H14X 2534   6.480   2.909   8.812 -0.0767 -1.6404 -0.3451
   19SAPC  H14Y 2535   6.334   3.004   8.787 -0.1179  0.8216 -1.0826
   19SAPC  C315 2536   6.376   2.911   8.616  0.0892 -0.2122 -0.2111
   19SAPC  H15X 2537   6.426   2.822   8.570 -0.3345 -0.3037 -0.5027
   19SAPC  H15Y 2538   6.434   3.000   8.585  0.0540 -0.4646 -1.0295
   19SAPC  C316 2539   6.228   2.932   8.565 -0.5685 -0.4272  0.0800
   19SAPC  H16X 2540   6.184   3.031   8.590 -0.6579  0.1205 -2.0354
   19SAPC  H16Y 2541   6.154   2.853   8.593 -2.1152  0.1638 -2.0327
   19SAPC  C317 2542   6.228   2.943   8.402 -0.2132 -0.7658 -0.8895
   19SAPC  H17X 2543   6.318   2.991   8.358  1.2191 -3.5387 -1.1807
   19SAPC  H17Y 2544   6.142   3.009   8.377 -0.4981 -0.0062  1.7601
   19SAPC  C318 2545   6.207   2.807   8.336 -0.2091 -0.1597  0.2781
   19SAPC  H18X 2546   6.107   2.768   8.363 -1.3505  0.2807 -2.8332
   19SAPC  H18Y 2547   6.284   2.738   8.378  0.1457  1.0718  1.7301
   19SAPC  H18Z 2548   6.212   2.811   8.225 -1.1954 -1.0491  0.1957
   20SAPC     N 2549   4.149   0.954  11.085 -0.0341  0.2184  0.2949
   20SAPC   C12 2550   4.149   1.025  10.949 -0.2168  0.4648 -0.2899
   20SAPC  H12A 2551   4.183   1.124  10.974 -1.7270  1.3309 -1.4980
   20SAPC  H12B 2552   4.047   1.042  10.920 -1.4504 -0.2285  3.1670
   20SAPC   C13 2553   4.065   1.027  11.180  0.4932  0.1859  0.4828
   20SAPC  H13A 2554   3.971   1.045  11.130  1.6197  1.7985 -1.2069
   20SAPC  H13B 2555   4.036   0.973  11.268 -1.3889 -0.7270 -0.6161
   20SAPC  H13C 2556   4.112   1.121  11.205  1.1059  0.4228 -1.3976
   20SAPC   C14 2557   4.103   0.819  11.080  0.1562  1.4099  0.4953
   20SAPC  H14A 2558   4.143   0.760  10.999  0.9863  0.9526  1.2309
   20SAPC  H14B 2559   4.120   0.764  11.171 -0.1560 -2.2862 -1.4887
   20SAPC  H14C 2560   3.996   0.809  11.067  0.1592 -2.1241  1.9711
   20SAPC   C15 2561   4.285   0.948  11.150 -0.6569 -0.0381 -0.2200
   20SAPC  H15A 2562   4.288   0.865  11.218  1.5283 -1.3595 -1.8340
   20SAPC  H15B 2563   4.365   0.946  11.078  0.3857  1.9278  0.7953
   20SAPC  H15C 2564   4.308   1.036  11.208  0.1712 -0.2107 -0.2784
   20SAPC   C11 2565   4.229   0.966  10.837 -0.2545  1.2199  0.1169
   20SAPC  H11A 2566   4.219   1.015  10.738  0.3526 -3.6108 -2.6384
   20SAPC  H11B 2567   4.187   0.865  10.818  1.8565  0.0928  1.0343
   20SAPC     P 2568   4.458   1.086  10.858  0.2323 -0.1708 -0.4542
   20SAPC   O13 2569   4.395   1.193  10.933 -0.0485 -0.3936  0.0757
   20SAPC   O14 2570   4.598   1.049  10.899  0.2660  0.1680  0.1483
   20SAPC   O12 2571   4.364   0.960  10.870 -0.1648 -0.8872  0.0463
   20SAPC   O11 2572   4.451   1.111  10.701  0.2321 -0.2787  0.1152
   20SAPC    C1 2573   4.492   1.000  10.611  0.1367  0.2335 -0.4511
   20SAPC    HA 2574   4.568   0.933  10.657  1.9055  1.3037 -1.7255
   20SAPC    HB 2575   4.403   0.938  10.585 -0.2473 -0.7111  2.6673
   20SAPC    C2 2576   4.546   1.057  10.474 -0.3283 -0.2688  0.2564
   20SAPC    HS 2577   4.598   1.151  10.500 -2.6478  1.8829 -2.3385
   20SAPC   O21 2578   4.433   1.085  10.386  0.5087  1.0823  0.8407
   20SAPC   C21 2579   4.453   1.186  10.309  0.2167  0.0309  0.0062
   20SAPC   O22 2580   4.549   1.260  10.304 -0.5291  0.1985 -0.2231
   20SAPC   C22 2581   4.323   1.197  10.231  0.0899 -0.1422 -0.0277
   20SAPC   H2R 2582   4.295   1.094  10.199 -1.4019  0.0594  0.5519
   20SAPC   H2S 2583   4.252   1.240  10.304  2.3168 -0.1696  2.2696
   20SAPC    C3 2584   4.640   0.949  10.409 -0.0937  0.3736 -0.1584
   20SAPC    HX 2585   4.577   0.865  10.374 -0.8897  0.5319  0.8423
   20SAPC    HY 2586   4.718   0.919  10.482  0.4615 -0.8756 -1.2186
   20SAPC   O31 2587   4.712   1.004  10.294  0.0997  0.4505  0.3561
   20SAPC   C31 2588   4.802   1.098  10.328 -0.2220 -0.0048  0.6584
   20SAPC   O32 2589   4.855   1.113  10.438  0.5492  0.6207 -0.0191
   20SAPC   C32 2590   4.835   1.191  10.205 -0.0074 -0.1588 -0.3843
   20SAPC   H2X 2591   4.941   1.222  10.213 -0.7223  3.4649 -2.6501
   20SAPC   H2Y 2592   4.776   1.283  10.227 -0.8289 -1.0066  1.1817
   20SAPC   C23 2593   4.322   1.292  10.106  0.7543 -0.5038 -0.8895
   20SAPC   H3R 2594   4.318   1.391  10.155  1.9591 -1.6979  1.8816
   20SAPC   H3S 2595   4.227   1.267  10.055  0.9925 -0.0193 -1.5856
   20SAPC   C24 2596   4.434   1.283  10.008 -0.6974  0.2823  0.2304
   20SAPC   H4R 2597   4.535   1.283  10.055 -0.9721  2.0560  0.9125
   20SAPC   H4S 2598   4.417   1.377   9.950 -1.9701  0.9060  1.5547
   20SAPC   C25 2599   4.431   1.159   9.929  0.5789 -0.1497 -0.6487
   20SAPC   H5R 2600   4.455   1.070   9.990  1.1663  1.4018  1.4945
   20SAPC   C26 2601   4.392   1.150   9.799 -0.3163  0.8995  1.0929
   20SAPC   H6R 2602   4.383   1.052   9.749 -1.6881  0.5458  1.9708
   20SAPC   C27 2603   4.347   1.269   9.715 -0.3517  0.4097  0.8445
   20SAPC   H7R 2604   4.406   1.281   9.622 -0.4401 -0.1728  0.7108
   20SAPC   H7S 2605   4.376   1.367   9.759 -2.2096  1.6231 -0.5051
   20SAPC   C28 2606   4.200   1.260   9.684 -0.9151 -0.5802  0.2320
   20SAPC   H8R 2607   4.134   1.247   9.770 -2.1698  0.3433 -0.5620
   20SAPC   C29 2608   4.147   1.244   9.562 -0.4919 -1.1302 -0.1252
   20SAPC   H9R 2609   4.038   1.228   9.559 -1.2832  3.2136 -2.4898
   20SAPC  C210 2610   4.206   1.244   9.426 -0.5223 -0.1153  0.1138
   20SAPC  H10R 2611   4.305   1.296   9.423  0.3613 -1.7554 -1.1225
   20SAPC  H10S 2612   4.140   1.300   9.357 -0.1592 -2.0159 -1.8988
   20SAPC  C211 2613   4.240   1.105   9.364  0.6877 -0.2976 -0.7967
   20SAPC  H11R 2614   4.223   1.011   9.418  1.0743 -0.3022 -0.6831
   20SAPC  C212 2615   4.313   1.093   9.253  0.3721 -0.6058 -0.4113
   20SAPC  H12R 2616   4.338   0.993   9.216  2.6055  0.7229 -2.7930
   20SAPC  C213 2617   4.363   1.200   9.154 -1.2476 -0.2972 -0.0565
   20SAPC  H13R 2618   4.323   1.303   9.170 -0.2791 -0.0027  0.5043
   20SAPC  H13S 2619   4.336   1.180   9.047  1.4201 -4.0983 -0.2045
   20SAPC  C214 2620   4.516   1.210   9.152  0.3885  0.4112  0.8308
   20SAPC  H14R 2621   4.554   1.234   9.252  1.1897 -3.4003  1.6172
   20SAPC  C215 2622   4.598   1.192   9.049  0.2877  0.2884 -0.2528
   20SAPC  H15R 2623   4.707   1.203   9.062  0.2364  1.9446 -0.9199
   20SAPC  C216 2624   4.564   1.168   8.905  0.5322 -0.1042 -0.6152
   20SAPC  H16R 2625   4.493   1.247   8.871  0.6628  0.4903  0.4640
   20SAPC  H16S 2626   4.503   1.076   8.890 -0.9398  0.1531  2.8523
   20SAPC  C217 2627   4.685   1.173   8.819  0.2707 -0.2959 -0.3314
   20SAPC  H17R 2628   4.739   1.078   8.837 -0.2903 -0.5468  0.0607
   20SAPC  H17S 2629   4.756   1.258   8.832  0.4703 -0.5656  0.4252
   20SAPC  C218 2630   4.636   1.182   8.674  0.1091 -0.2406  0.4365
   20SAPC  H18R 2631   4.579   1.277   8.660  2.0290  0.9570  0.3337
   20SAPC  H18S 2632   4.570   1.095   8.654  2.2728 -1.8375 -0.1380
   20SAPC  C219 2633   4.753   1.189   8.571 -0.1680 -0.2559  0.4144
   20SAPC  H19R 2634   4.832   1.114   8.594  1.0999  1.0136  0.3371
   20SAPC  H19S 2635   4.795   1.291   8.585  1.2439 -0.9340  1.3911
   20SAPC  C220 2636   4.704   1.160   8.430  0.6315 -0.2204 -0.3383
   20SAPC  H20R 2637   4.610   1.214   8.406  1.5839  2.0768  0.7371
   20SAPC  H20S 2638   4.689   1.052   8.415 -2.4841 -0.0675  0.9249
   20SAPC  H20T 2639   4.778   1.189   8.352 -1.6664 -0.6583 -2.8220
   20SAPC   C33 2640   4.793   1.138  10.062 -0.9469 -0.2745 -0.8639
   20SAPC   H3X 2641   4.684   1.116  10.053 -1.0881  0.9549 -2.6254
   20SAPC   H3Y 2642   4.851   1.045  10.043  1.3946  1.0951 -0.7174
   20SAPC   C34 2643   4.807   1.243   9.949  0.1106  0.3112 -0.0219
   20SAPC   H4X 2644   4.908   1.291   9.954  0.5263 -0.6264  0.7662
   20SAPC   H4Y 2645   4.747   1.330   9.982 -0.1417  0.6349 -1.2631
   20SAPC   C35 2646   4.781   1.189   9.805  0.4725 -0.3013 -0.4799
   20SAPC   H5X 2647   4.675   1.153   9.807  0.4685 -0.3025  1.4126
   20SAPC   H5Y 2648   4.825   1.088   9.790  0.6380 -0.5473  1.3841
   20SAPC   C36 2649   4.810   1.296   9.691 -0.2451  0.6270  0.2741
   20SAPC   H6X 2650   4.765   1.394   9.719 -0.5951  1.0793 -1.6763
   20SAPC   H6Y 2651   4.758   1.269   9.597  1.3596  0.4846 -0.6195
   20SAPC   C37 2652   4.955   1.316   9.657 -0.1258  0.4620  0.0760
   20SAPC   H7X 2653   4.993   1.216   9.626 -0.4363  0.3930 -0.0880
   20SAPC   H7Y 2654   5.001   1.343   9.754  1.5744 -0.0093 -0.5669
   20SAPC   C38 2655   5.005   1.422   9.569  0.0626 -0.1725  0.6197
   20SAPC   H8X 2656   5.113   1.445   9.576 -0.0780  0.4464  0.8430
   20SAPC   H8Y 2657   4.964   1.522   9.593  0.7749  0.5618 -1.0417
   20SAPC   C39 2658   4.964   1.398   9.418 -0.8423  0.3102 -0.3758
   20SAPC   H9X 2659   4.866   1.348   9.403 -1.0447  0.6939 -0.3456
   20SAPC   H9Y 2660   5.031   1.327   9.365  1.9504  1.6525  1.1477
   20SAPC  C310 2661   4.955   1.525   9.336  0.0334  0.1646  0.0031
   20SAPC  H10X 2662   5.040   1.596   9.350 -0.2002  0.5921 -0.7280
   20SAPC  H10Y 2663   4.870   1.586   9.373  0.5011  2.7802 -2.7960
   20SAPC  C311 2664   4.933   1.500   9.187  0.7375  0.2950 -0.2335
   20SAPC  H11X 2665   4.842   1.437   9.189 -0.6146  1.9579 -2.8139
   20SAPC  H11Y 2666   5.020   1.439   9.154 -0.6553 -0.2865 -3.1207
   20SAPC  C312 2667   4.905   1.616   9.092  0.5306  0.0365  0.5510
   20SAPC  H12X 2668   4.869   1.596   8.989  1.8838 -0.7477  0.2026
   20SAPC  H12Y 2669   4.999   1.673   9.072 -0.6766  1.5346 -1.2974
   20SAPC  C313 2670   4.799   1.717   9.141  0.2497  0.3666 -0.1591
   20SAPC  H13X 2671   4.783   1.801   9.070 -0.0741  0.5225  0.0966
   20SAPC  H13Y 2672   4.837   1.757   9.237 -2.0170  0.4151  0.7922
   20SAPC  C314 2673   4.664   1.659   9.177  0.4482 -0.4668 -0.2367
   20SAPC  H14X 2674   4.681   1.582   9.255  0.9089 -0.5288 -0.3992
   20SAPC  H14Y 2675   4.613   1.611   9.090 -0.4961 -1.1527  0.6679
   20SAPC  C315 2676   4.581   1.771   9.248 -0.2240  0.9871 -0.0200
   20SAPC  H15X 2677   4.569   1.862   9.186 -0.2300  0.8136 -0.2746
   20SAPC  H15Y 2678   4.631   1.802   9.343 -3.4245  4.0023  0.8845
   20SAPC  C316 2679   4.430   1.739   9.267  0.2723 -0.2684 -0.6103
   20SAPC  H16X 2680   4.387   1.699   9.172 -0.5418 -0.4575 -0.1762
   20SAPC  H16Y 2681   4.385   1.838   9.288  4.0692  1.4336  0.3350
   20SAPC  C317 2682   4.407   1.642   9.385  0.4342  0.3377  0.5809
   20SAPC  H17X 2683   4.424   1.706   9.474 -1.7535  2.0182 -0.1332
   20SAPC  H17Y 2684   4.471   1.552   9.372 -0.5807 -0.2819 -0.2818
   20SAPC  C318 2685   4.262   1.596   9.398  0.4373 -0.2311  0.3069
   20SAPC  H18X 2686   4.176   1.666   9.388  1.3466  1.0812  1.2142
   20SAPC  H18Y 2687   4.241   1.550   9.497 -1.6372  0.9338  0.4733
   20SAPC  H18Z 2688   4.245   1.513   9.327 -0.8187 -0.8332  1.2845
   21SAPC     N 2689   5.914   6.466  10.635  0.9089 -0.2488  0.1468
   21SAPC   C12 2690   6.002   6.348  10.613 -0.6705 -1.1066 -0.3751
   21SAPC  H12A 2691   5.944   6.275  10.559 -0.1125 -1.3946 -0.6057
   21SAPC  H12B 2692   6.035   6.312  10.709  1.4604  1.6757  0.0603
   21SAPC   C13 2693   5.860   6.515  10.502  0.7667 -0.1221 -0.8902
   21SAPC  H13A 2694   5.781   6.587  10.511 -0.4400 -1.5780  1.0661
   21SAPC  H13B 2695   5.944   6.550  10.443  0.6444 -0.9242 -1.5539
   21SAPC  H13C 2696   5.810   6.431  10.456  1.8618 -1.5523  0.4090
   21SAPC   C14 2697   5.791   6.422  10.705  0.0773 -0.0923 -0.3453
   21SAPC  H14A 2698   5.806   6.421  10.812 -1.3798 -0.8039 -0.1373
   21SAPC  H14B 2699   5.712   6.494  10.693  1.6249  1.6521 -0.6929
   21SAPC  H14C 2700   5.758   6.331  10.658  0.9010 -0.6595  0.1366
   21SAPC   C15 2701   5.987   6.577  10.699 -0.2430  0.2958  0.1471
   21SAPC  H15A 2702   5.923   6.664  10.691 -1.4695 -0.6772 -1.0187
   21SAPC  H15B 2703   6.011   6.566  10.803  0.6040  0.3381 -0.0362
   21SAPC  H15C 2704   6.076   6.601  10.643 -0.9039 -0.4103 -1.2570
   21SAPC   C11 2705   6.128   6.374  10.535  0.1413 -0.1934  1.5866
   21SAPC  H11A 2706   6.095   6.413  10.436 -0.3289 -0.6841  1.5477
   21SAPC  H11B 2707   6.174   6.277  10.509 -1.9973 -0.2414 -2.8623
   21SAPC     P 2708   6.343   6.417  10.680 -0.4215  0.2566  0.0364
   21SAPC   O13 2709   6.332   6.464  10.818 -0.2207 -0.2551 -0.2358
   21SAPC   O14 2710   6.360   6.272  10.653  0.0072  0.4368  0.5537
   21SAPC   O12 2711   6.221   6.474  10.588  0.0955 -0.5012  0.7744
   21SAPC   O11 2712   6.459   6.495  10.611 -0.2334  0.4550 -0.0370
   21SAPC    C1 2713   6.585   6.449  10.561  0.8271 -0.6112 -0.4045
   21SAPC    HA 2714   6.663   6.525  10.584 -1.2158  1.6331 -0.5768
   21SAPC    HB 2715   6.634   6.360  10.607  2.3466  1.1004  1.5014
   21SAPC    C2 2716   6.586   6.438  10.404 -0.5828 -0.5175  0.2499
   21SAPC    HS 2717   6.689   6.404  10.380  0.5176  2.3707  0.5025
   21SAPC   O21 2718   6.552   6.554  10.335  0.0136 -0.6216  0.6362
   21SAPC   C21 2719   6.652   6.633  10.300 -0.1652 -0.0767  0.3130
   21SAPC   O22 2720   6.772   6.627  10.333  0.1972 -0.0946 -0.2042
   21SAPC   C22 2721   6.604   6.739  10.202  1.1117  0.5332 -0.6800
   21SAPC   H2R 2722   6.520   6.796  10.248  2.1204  2.4655 -1.1071
   21SAPC   H2S 2723   6.694   6.804  10.198  1.7972  0.6172  5.6145
   21SAPC    C3 2724   6.489   6.329  10.358 -0.2114  0.7775  0.7065
   21SAPC    HX 2725   6.385   6.352  10.389  0.0133 -0.3833  2.5012
   21SAPC    HY 2726   6.506   6.235  10.415 -1.7710 -0.7556 -1.1979
   21SAPC   O31 2727   6.508   6.294  10.210 -0.1604  0.0555  0.3014
   21SAPC   C31 2728   6.408   6.317  10.135  0.5974 -0.4838 -0.0825
   21SAPC   O32 2729   6.301   6.371  10.177  0.2776  0.6086  0.2923
   21SAPC   C32 2730   6.425   6.268   9.994  0.1701  0.1420  0.0427
   21SAPC   H2X 2731   6.334   6.206   9.979  0.7594 -0.9827  0.9143
   21SAPC   H2Y 2732   6.512   6.198   9.994  0.4005  0.3734  1.9907
   21SAPC   C23 2733   6.549   6.678  10.068 -0.5348  0.3108 -0.4129
   21SAPC   H3R 2734   6.444   6.646  10.081 -0.0666 -0.9244  0.6194
   21SAPC   H3S 2735   6.608   6.587  10.043 -0.4446  0.1636  0.3209
   21SAPC   C24 2736   6.551   6.786   9.953 -0.0335  0.4677 -0.0196
   21SAPC   H4R 2737   6.653   6.821   9.928  0.1087 -0.0742 -0.2218
   21SAPC   H4S 2738   6.502   6.875   9.997 -1.1916 -0.0808 -0.1408
   21SAPC   C25 2739   6.497   6.733   9.825 -0.1991 -0.2397  0.1730
   21SAPC   H5R 2740   6.418   6.656   9.836 -3.2224  2.1972 -2.4193
   21SAPC   C26 2741   6.527   6.771   9.699 -0.1010 -0.9511  0.2478
   21SAPC   H6R 2742   6.474   6.717   9.619 -0.7890 -0.2800  0.2369
   21SAPC   C27 2743   6.617   6.887   9.663  0.4267 -0.4059 -0.2605
   21SAPC   H7R 2744   6.665   6.865   9.565  1.0402 -0.5160  0.0581
   21SAPC   H7S 2745   6.706   6.896   9.730  0.1796  0.0564  0.0116
   21SAPC   C28 2746   6.538   7.015   9.664  0.0343  0.4762 -0.6460
   21SAPC   H8R 2747   6.500   7.057   9.758  0.3807  1.3156 -0.8737
   21SAPC   C29 2748   6.536   7.109   9.570  0.1671  0.1025  0.0781
   21SAPC   H9R 2749   6.477   7.200   9.587  0.5740  0.2636  0.6836
   21SAPC  C210 2750   6.598   7.089   9.433  0.3379  0.8109  0.3897
   21SAPC  H10R 2751   6.697   7.038   9.436  0.1972  0.3657 -1.5234
   21SAPC  H10S 2752   6.628   7.190   9.399 -0.3912  2.0101  2.9853
   21SAPC  C211 2753   6.512   7.025   9.329 -0.5652  0.5351 -0.1467
   21SAPC  H11R 2754   6.440   6.951   9.365 -0.1213  0.2745  0.2227
   21SAPC  C212 2755   6.508   7.064   9.197 -0.2620  0.3941 -0.6055
   21SAPC  H12R 2756   6.436   7.016   9.130  1.4242 -0.7030 -1.7353
   21SAPC  C213 2757   6.588   7.180   9.131 -0.4097 -0.5646  0.7344
   21SAPC  H13R 2758   6.625   7.155   9.029 -0.2591  0.7297  0.4525
   21SAPC  H13S 2759   6.679   7.208   9.187 -0.4807  1.7249 -0.2102
   21SAPC  C214 2760   6.505   7.306   9.148  0.7542  0.7324  0.2322
   21SAPC  H14R 2761   6.407   7.297   9.197  0.4493  3.1575  0.2096
   21SAPC  C215 2762   6.528   7.427   9.097 -0.0096 -0.2788  0.3188
   21SAPC  H15R 2763   6.460   7.510   9.120  2.1529  1.8463 -0.5273
   21SAPC  C216 2764   6.653   7.461   9.011 -0.1474 -0.2330 -0.3486
   21SAPC  H16R 2765   6.727   7.378   9.006  0.0939  0.0192 -0.9840
   21SAPC  H16S 2766   6.710   7.538   9.066  0.9620 -1.1784 -0.1282
   21SAPC  C217 2767   6.613   7.510   8.877 -0.0361  0.3357  0.2415
   21SAPC  H17R 2768   6.699   7.553   8.822  0.0185 -1.5265 -1.2507
   21SAPC  H17S 2769   6.531   7.585   8.888 -0.3864  0.1516 -0.9543
   21SAPC  C218 2770   6.571   7.394   8.783  0.0266 -0.1234  0.0979
   21SAPC  H18R 2771   6.476   7.345   8.815  0.2361 -0.6106 -0.0189
   21SAPC  H18S 2772   6.649   7.316   8.795  0.0267  0.1433  2.0418
   21SAPC  C219 2773   6.551   7.443   8.639 -0.0574 -0.0697 -0.2192
   21SAPC  H19R 2774   6.650   7.475   8.599  0.9090 -1.9211  0.5252
   21SAPC  H19S 2775   6.476   7.524   8.651 -2.2610 -2.0900  0.5905
   21SAPC  C220 2776   6.495   7.342   8.540 -0.0077  0.6657 -0.8329
   21SAPC  H20R 2777   6.407   7.288   8.581 -1.0499  1.8094 -1.4866
   21SAPC  H20S 2778   6.576   7.274   8.505  0.5781  0.3126  1.0584
   21SAPC  H20T 2779   6.461   7.403   8.454  2.1832 -1.6340 -3.5068
   21SAPC   C33 2780   6.424   6.378   9.884  0.2413  0.2675 -0.5310
   21SAPC   H3X 2781   6.525   6.424   9.881  0.4417  0.7781  4.4884
   21SAPC   H3Y 2782   6.354   6.461   9.906 -0.6381  0.4433 -3.5693
   21SAPC   C34 2783   6.391   6.315   9.750 -0.4247 -0.1560  0.0933
   21SAPC   H4X 2784   6.298   6.257   9.767 -0.1070 -0.4511  0.8490
   21SAPC   H4Y 2785   6.464   6.240   9.715 -1.1180 -2.0697  2.5204
   21SAPC   C35 2786   6.359   6.420   9.645 -0.3420 -0.3160 -0.4663
   21SAPC   H5X 2787   6.445   6.489   9.627  1.1461 -1.7336  0.8614
   21SAPC   H5Y 2788   6.274   6.479   9.686  1.5718  2.0235  0.3585
   21SAPC   C36 2789   6.327   6.356   9.510  0.3243  0.4957 -1.0318
   21SAPC   H6X 2790   6.253   6.275   9.527  1.6144 -0.7452 -1.1146
   21SAPC   H6Y 2791   6.416   6.307   9.465  0.6448 -0.5759  0.6808
   21SAPC   C37 2792   6.268   6.459   9.418 -0.2079  0.2534 -0.5739
   21SAPC   H7X 2793   6.343   6.540   9.402  1.8989 -1.9164 -2.6805
   21SAPC   H7Y 2794   6.174   6.502   9.458 -0.4566  1.3430 -2.2468
   21SAPC   C38 2795   6.239   6.393   9.289 -0.4875  0.1229 -0.3265
   21SAPC   H8X 2796   6.181   6.300   9.303  1.2596 -1.1752 -1.2615
   21SAPC   H8Y 2797   6.332   6.356   9.240 -0.0272  1.0437 -0.1760
   21SAPC   C39 2798   6.178   6.489   9.191  0.1667 -0.0148 -0.1259
   21SAPC   H9X 2799   6.247   6.573   9.169 -0.4250  1.4917  3.2619
   21SAPC   H9Y 2800   6.091   6.535   9.242  1.2722 -0.8867  2.7456
   21SAPC  C310 2801   6.130   6.418   9.066  0.5495 -0.2704 -0.0650
   21SAPC  H10X 2802   6.064   6.330   9.084  0.9204 -1.5311 -3.9978
   21SAPC  H10Y 2803   6.208   6.388   8.993  1.6730 -1.9776  1.7171
   21SAPC  C311 2804   6.033   6.509   8.993  1.0355 -0.0456  0.0226
   21SAPC  H11X 2805   5.959   6.533   9.072  0.3551  0.4089 -0.7396
   21SAPC  H11Y 2806   5.990   6.439   8.918  0.5439 -0.0614  0.3152
   21SAPC  C312 2807   6.090   6.623   8.926 -0.0633 -0.3646  0.0678
   21SAPC  H12X 2808   6.165   6.594   8.849  0.4140 -0.6590  0.6313
   21SAPC  H12Y 2809   6.141   6.688   9.001 -1.8405  0.4687  0.5997
   21SAPC  C313 2810   5.989   6.720   8.852 -0.1080 -0.2029  0.3368
   21SAPC  H13X 2811   5.939   6.678   8.763  1.6923  1.6866 -1.6813
   21SAPC  H13Y 2812   6.040   6.815   8.825 -1.2345 -0.0491 -1.4159
   21SAPC  C314 2813   5.878   6.762   8.952  0.1380 -0.2076 -0.2972
   21SAPC  H14X 2814   5.931   6.817   9.033 -2.8229  1.0105  0.9596
   21SAPC  H14Y 2815   5.830   6.683   9.014  1.6459  0.4610  1.8570
   21SAPC  C315 2816   5.761   6.849   8.889  0.0703  0.0359  0.5484
   21SAPC  H15X 2817   5.689   6.889   8.964  0.3167  1.1363  0.2217
   21SAPC  H15Y 2818   5.719   6.793   8.804  1.1578 -0.3561  0.2468
   21SAPC  C316 2819   5.814   6.982   8.817 -0.5950  0.7020 -0.5649
   21SAPC  H16X 2820   5.887   6.958   8.738  2.3747  0.4828  2.0736
   21SAPC  H16Y 2821   5.866   7.043   8.894 -1.7703 -1.3447  2.0014
   21SAPC  C317 2822   5.694   7.064   8.761 -0.4277  0.0692  0.1080
   21SAPC  H17X 2823   5.626   6.997   8.704 -0.8857 -2.0330  2.9153
   21SAPC  H17Y 2824   5.731   7.150   8.701  0.4755  0.5833  1.3762
   21SAPC  C318 2825   5.594   7.140   8.861  0.3419  0.7603 -0.2365
   21SAPC  H18X 2826   5.654   7.204   8.929 -0.0281 -0.0672  0.8971
   21SAPC  H18Y 2827   5.530   7.066   8.914 -0.1379  1.0748 -0.3707
   21SAPC  H18Z 2828   5.522   7.203   8.805 -1.2299 -0.2529  0.5821
   22SAPC     N 2829   6.248   5.267  11.046  0.2421 -0.4173  0.8170
   22SAPC   C12 2830   6.111   5.312  10.999  0.2994  0.1750  0.6865
   22SAPC  H12A 2831   6.131   5.404  10.945 -0.5988  0.5588  0.9965
   22SAPC  H12B 2832   6.055   5.348  11.084 -1.6901  1.1607 -0.9643
   22SAPC   C13 2833   6.302   5.392  11.117  0.0363 -0.3320  0.0371
   22SAPC  H13A 2834   6.230   5.440  11.181  1.0197 -0.3535  1.1871
   22SAPC  H13B 2835   6.396   5.364  11.161  0.6388  0.7377 -0.5332
   22SAPC  H13C 2836   6.321   5.472  11.048 -1.0954 -0.5019 -0.5049
   22SAPC   C14 2837   6.230   5.155  11.137  0.3704  0.1305 -0.7071
   22SAPC  H14A 2838   6.318   5.134  11.196  1.4682  3.5669 -0.8763
   22SAPC  H14B 2839   6.154   5.172  11.211  0.4709 -0.7248 -0.3988
   22SAPC  H14C 2840   6.210   5.066  11.078 -0.5009 -0.9286  1.1154
   22SAPC   C15 2841   6.342   5.237  10.933  0.7277  0.2803 -0.1671
   22SAPC  H15A 2842   6.292   5.174  10.861 -0.0011  1.4746 -0.7134
   22SAPC  H15B 2843   6.361   5.323  10.872  2.0907 -1.0759 -1.7602
   22SAPC  H15C 2844   6.426   5.180  10.970  0.3923 -0.9318 -1.2047
   22SAPC   C11 2845   6.022   5.211  10.925  0.3297 -0.3758  0.9572
   22SAPC  H11A 2846   5.917   5.248  10.919 -0.0625 -1.6501 -0.5235
   22SAPC  H11B 2847   6.006   5.124  10.994 -1.8681  0.9350  2.2177
   22SAPC     P 2848   6.044   5.236  10.665 -0.3894 -0.0048  0.0615
   22SAPC   O13 2849   6.041   5.379  10.696  0.1907  0.7040 -0.1569
   22SAPC   O14 2850   6.128   5.194  10.552 -0.4081 -0.1543 -0.0481
   22SAPC   O12 2851   6.080   5.162  10.801 -0.1223  0.7524  0.5713
   22SAPC   O11 2852   5.893   5.202  10.642  0.2136  0.3844  0.5834
   22SAPC    C1 2853   5.860   5.080  10.579  0.9739 -0.3026 -0.1714
   22SAPC    HA 2854   5.943   5.008  10.594  0.9077 -0.0810  1.4008
   22SAPC    HB 2855   5.770   5.029  10.622  0.7014  1.4517  1.4502
   22SAPC    C2 2856   5.842   5.109  10.422  0.4267  0.3320  0.1161
   22SAPC    HS 2857   5.918   5.188  10.405  0.7457  0.9817  3.6858
   22SAPC   O21 2858   5.707   5.146  10.403  0.4213  0.0896 -0.6131
   22SAPC   C21 2859   5.679   5.235  10.308  0.5868 -0.0117  0.4764
   22SAPC   O22 2860   5.769   5.297  10.244 -0.5407  0.0367  0.0324
   22SAPC   C22 2861   5.532   5.249  10.303  0.5215 -0.8921  0.0717
   22SAPC   H2R 2862   5.474   5.155  10.319 -1.4506 -0.3085 -2.9095
   22SAPC   H2S 2863   5.506   5.333  10.371  0.3292 -0.4386 -0.5562
   22SAPC    C3 2864   5.877   4.983  10.327 -0.0421 -0.2680 -1.0670
   22SAPC    HX 2865   5.817   4.896  10.359 -1.0030  1.3114  1.8204
   22SAPC    HY 2866   5.984   4.954  10.342  0.2029  1.1771  0.2648
   22SAPC   O31 2867   5.859   5.011  10.187 -0.6645  0.1804  0.5447
   22SAPC   C31 2868   5.942   5.095  10.133  0.0904  0.0167  0.5789
   22SAPC   O32 2869   6.035   5.149  10.192 -0.4294 -0.0719 -0.2802
   22SAPC   C32 2870   5.916   5.121   9.987  0.5999  0.6287  0.4747
   22SAPC   H2X 2871   5.827   5.065   9.953  1.2020 -0.5149  0.7257
   22SAPC   H2Y 2872   6.002   5.084   9.928  0.5924 -2.3510  2.1527
   22SAPC   C23 2873   5.483   5.294  10.160 -0.1971 -0.1218  0.3010
   22SAPC   H3R 2874   5.493   5.208  10.090 -3.9723  0.2139 -0.8570
   22SAPC   H3S 2875   5.544   5.379  10.123  0.1205 -1.0240 -1.3779
   22SAPC   C24 2876   5.343   5.356  10.159  0.6401 -0.3645 -0.6740
   22SAPC   H4R 2877   5.304   5.396  10.063 -0.7944  0.4317  0.1905
   22SAPC   H4S 2878   5.338   5.437  10.235  1.4086 -1.1054  0.2027
   22SAPC   C25 2879   5.247   5.247  10.207  0.0605 -0.6356  0.6972
   22SAPC   H5R 2880   5.258   5.217  10.312  2.5667 -0.1464  0.6380
   22SAPC   C26 2881   5.161   5.186  10.125  0.0152 -0.0504  0.1335
   22SAPC   H6R 2882   5.121   5.093  10.167 -1.1140 -0.4721 -1.7510
   22SAPC   C27 2883   5.131   5.210   9.981 -0.9655 -0.4500 -0.2505
   22SAPC   H7R 2884   5.057   5.133   9.949 -1.2337  0.2029 -1.2182
   22SAPC   H7S 2885   5.222   5.197   9.919  0.1853  0.3876  1.2078
   22SAPC   C28 2886   5.060   5.338   9.931  0.0382  0.5302 -0.1452
   22SAPC   H8R 2887   5.008   5.388  10.015  1.7221  0.8896  0.7326
   22SAPC   C29 2888   5.050   5.394   9.814 -0.4083 -0.0671 -0.0849
   22SAPC   H9R 2889   5.005   5.495   9.818  1.9464  1.3139 -3.7797
   22SAPC  C210 2890   5.116   5.356   9.692 -0.3825 -0.2937  0.4317
   22SAPC  H10R 2891   5.223   5.340   9.716 -0.1290 -0.5363 -0.8282
   22SAPC  H10S 2892   5.105   5.431   9.611 -0.9412 -2.0086 -1.1454
   22SAPC  C211 2893   5.051   5.222   9.651  0.0433 -0.5272  0.2194
   22SAPC  H11R 2894   5.054   5.143   9.728  2.2815 -1.5019 -0.7752
   22SAPC  C212 2895   4.985   5.197   9.537 -0.3742 -0.0485  0.9539
   22SAPC  H12R 2896   4.937   5.100   9.516 -3.0334  1.4475 -0.4437
   22SAPC  C213 2897   4.964   5.287   9.420  0.5597 -0.8961 -0.2363
   22SAPC  H13R 2898   4.976   5.393   9.448 -1.7615 -1.1489  2.0714
   22SAPC  H13S 2899   4.859   5.293   9.384  0.9168 -0.9215 -1.3236
   22SAPC  C214 2900   5.054   5.240   9.311 -1.1658  0.2369  0.3016
   22SAPC  H14R 2901   5.153   5.202   9.340 -0.2649  1.6727 -0.7818
   22SAPC  C215 2902   5.018   5.227   9.177 -0.1878 -0.2271 -0.4718
   22SAPC  H15R 2903   5.093   5.205   9.100 -0.8138 -0.6152 -0.9778
   22SAPC  C216 2904   4.884   5.271   9.134 -0.0528  0.3200 -0.2534
   22SAPC  H16R 2905   4.838   5.353   9.193  0.7934  0.7505 -0.1824
   22SAPC  H16S 2906   4.819   5.181   9.140  2.3011 -1.4577  0.4113
   22SAPC  C217 2907   4.902   5.313   8.990 -0.7223  0.7574  0.7779
   22SAPC  H17R 2908   4.965   5.242   8.932  1.8222  1.4303  2.5459
   22SAPC  H17S 2909   4.946   5.414   8.978  0.7725 -0.0611 -1.4024
   22SAPC  C218 2910   4.767   5.318   8.920 -0.3663  1.2010  0.0343
   22SAPC  H18R 2911   4.696   5.383   8.976 -0.9281 -0.0849  0.8756
   22SAPC  H18S 2912   4.719   5.218   8.928  0.5067  0.9055  2.7400
   22SAPC  C219 2913   4.759   5.341   8.771  0.2765  0.1394 -0.3585
   22SAPC  H19R 2914   4.803   5.255   8.716 -1.1137 -0.8565  0.0297
   22SAPC  H19S 2915   4.817   5.431   8.743 -0.6894  1.2738  1.1260
   22SAPC  C220 2916   4.615   5.376   8.725 -0.4457 -0.2805 -0.3594
   22SAPC  H20R 2917   4.547   5.288   8.729 -0.0403 -0.5960 -0.3973
   22SAPC  H20S 2918   4.610   5.438   8.632 -1.0793  1.6916  0.9352
   22SAPC  H20T 2919   4.566   5.446   8.796  3.2155  0.7479  1.3973
   22SAPC   C33 2920   5.895   5.272   9.957  0.5477 -0.5767 -1.2954
   22SAPC   H3X 2921   5.979   5.325  10.007 -0.7919  0.8468 -0.4550
   22SAPC   H3Y 2922   5.793   5.300   9.991  0.9673 -0.9339  0.3627
   22SAPC   C34 2923   5.892   5.301   9.804 -0.0987 -0.0455  0.0048
   22SAPC   H4X 2924   5.888   5.412   9.789 -3.6549 -0.0390  0.2569
   22SAPC   H4Y 2925   5.803   5.256   9.756  0.6370  0.0160 -1.4965
   22SAPC   C35 2926   6.010   5.264   9.722 -0.3580 -0.5311 -0.3919
   22SAPC   H5X 2927   5.996   5.153   9.720 -1.4485 -0.4400  0.6618
   22SAPC   H5Y 2928   6.099   5.293   9.780  0.3605  1.2262 -2.2744
   22SAPC   C36 2929   6.022   5.324   9.583 -0.2392  0.0742 -0.5494
   22SAPC   H6X 2930   6.107   5.274   9.532 -0.7154  2.0225 -3.4528
   22SAPC   H6Y 2931   6.040   5.433   9.589  1.9891 -0.3264  1.7085
   22SAPC   C37 2932   5.902   5.302   9.494 -0.6436  0.0521 -0.0570
   22SAPC   H7X 2933   5.813   5.358   9.531 -0.1531  0.3095  0.7477
   22SAPC   H7Y 2934   5.866   5.198   9.509  0.7184 -0.5379 -0.7461
   22SAPC   C38 2935   5.924   5.330   9.344 -0.3383  0.2661 -0.8268
   22SAPC   H8X 2936   5.976   5.427   9.328 -0.8052  0.6662  0.0431
   22SAPC   H8Y 2937   5.821   5.343   9.305 -1.3082  3.5516  2.3334
   22SAPC   C39 2938   6.003   5.220   9.269 -0.2211  0.2993 -0.6612
   22SAPC   H9X 2939   6.108   5.226   9.305 -0.0583 -3.9990  0.1675
   22SAPC   H9Y 2940   6.005   5.251   9.163 -1.3375  3.8465  0.2057
   22SAPC  C310 2941   5.945   5.077   9.278 -0.0732 -0.5513 -0.3713
   22SAPC  H10X 2942   5.835   5.088   9.265  0.0096  0.3950 -0.3075
   22SAPC  H10Y 2943   5.952   5.043   9.383  0.8562 -1.3800 -0.6822
   22SAPC  C311 2944   6.009   4.983   9.172  0.0033  0.4145 -0.1156
   22SAPC  H11X 2945   6.024   5.021   9.069  0.8902  1.6313  0.4406
   22SAPC  H11Y 2946   5.946   4.891   9.170  0.7438 -0.1751  1.8350
   22SAPC  C312 2947   6.145   4.945   9.212  0.9751 -0.1077  0.5435
   22SAPC  H12X 2948   6.148   4.905   9.315  1.9509 -1.1586  0.1255
   22SAPC  H12Y 2949   6.217   5.031   9.214  0.9156 -0.0557  0.4470
   22SAPC  C313 2950   6.195   4.843   9.104 -0.5539 -0.4711 -0.0524
   22SAPC  H13X 2951   6.112   4.770   9.089 -0.2079 -0.5706 -1.7083
   22SAPC  H13Y 2952   6.284   4.793   9.147 -0.5382  0.5267  1.1057
   22SAPC  C314 2953   6.241   4.896   8.963  0.3680 -0.8635  0.1949
   22SAPC  H14X 2954   6.323   4.970   8.970  0.9766 -1.5365  0.3152
   22SAPC  H14Y 2955   6.151   4.957   8.940  1.3582  0.1868 -0.9971
   22SAPC  C315 2956   6.267   4.786   8.858 -0.0831  0.2824 -0.6107
   22SAPC  H15X 2957   6.171   4.732   8.840  0.2698 -0.8648  0.7436
   22SAPC  H15Y 2958   6.330   4.700   8.888  0.8059  0.7399 -1.1308
   22SAPC  C316 2959   6.320   4.847   8.727  0.8585  0.1136 -0.4097
   22SAPC  H16X 2960   6.400   4.925   8.737  1.2914 -0.4273  0.4610
   22SAPC  H16Y 2961   6.236   4.903   8.681  0.1051  0.9125  1.7760
   22SAPC  C317 2962   6.377   4.739   8.637 -0.6343  0.2023  0.6411
   22SAPC  H17X 2963   6.295   4.664   8.632 -1.1055  0.7654 -0.4711
   22SAPC  H17Y 2964   6.459   4.677   8.679 -0.4926 -0.6568 -0.8579
   22SAPC  C318 2965   6.414   4.809   8.509 -0.1721 -0.3504 -0.3588
   22SAPC  H18X 2966   6.494   4.884   8.524  0.5235 -1.2748  0.7091
   22SAPC  H18Y 2967   6.320   4.842   8.459 -1.0400 -1.9615  0.1446
   22SAPC  H18Z 2968   6.466   4.739   8.440 -0.0309  0.7304 -1.3818
   23SAPC     N 2969   0.111   4.969  11.145  0.0691 -0.1390 -0.1411
   23SAPC   C12 2970  -0.019   4.908  11.092 -1.1280 -0.0285 -0.1514
   23SAPC  H12A 2971  -0.099   4.981  11.098 -1.1759 -0.1707  1.3543
   23SAPC  H12B 2972  -0.046   4.822  11.153 -3.2545  0.9080  0.3322
   23SAPC   C13 2973   0.139   5.113  11.117 -0.6051 -0.5525  0.4058
   23SAPC  H13A 2974   0.061   5.174  11.162 -0.2980 -0.5845  0.9909
   23SAPC  H13B 2975   0.233   5.134  11.166 -0.6552  0.2062  0.2032
   23SAPC  H13C 2976   0.137   5.126  11.010  4.2512 -1.5917 -0.0201
   23SAPC   C14 2977   0.124   4.960  11.298 -0.7753 -0.1367  0.0264
   23SAPC  H14A 2978   0.217   5.002  11.334  0.3539 -0.9430 -1.7681
   23SAPC  H14B 2979   0.041   5.019  11.335 -0.5903  2.0174 -2.6445
   23SAPC  H14C 2980   0.121   4.858  11.334 -0.7980  0.0940  0.6781
   23SAPC   C15 2981   0.228   4.888  11.099 -0.0079 -0.8201 -0.0249
   23SAPC  H15A 2982   0.320   4.912  11.150  1.8001 -2.0538 -2.5386
   23SAPC  H15B 2983   0.216   4.783  11.124 -0.0825 -1.2004 -1.5677
   23SAPC  H15C 2984   0.235   4.894  10.992  0.8084 -0.2689  0.0512
   23SAPC   C11 2985  -0.014   4.860  10.942  0.0758 -0.0382  0.0401
   23SAPC  H11A 2986  -0.119   4.828  10.921 -1.0729  1.3852  3.0124
   23SAPC  H11B 2987   0.064   4.786  10.919 -0.6881 -0.7012 -0.4947
   23SAPC     P 2988   0.053   4.964  10.712  0.0562 -0.0789 -0.1019
   23SAPC   O13 2989   0.041   5.098  10.650  0.5288  0.0747  0.6158
   23SAPC   O14 2990   0.182   4.898  10.718 -0.7121 -0.1525  0.2637
   23SAPC   O12 2991   0.004   4.975  10.865  0.3882 -0.2049  0.4189
   23SAPC   O11 2992  -0.047   4.859  10.647 -0.0159 -0.1253 -0.6160
   23SAPC    C1 2993  -0.164   4.908  10.582  0.1762 -1.0470  0.0570
   23SAPC    HA 2994  -0.252   4.896  10.649 -0.2853  0.3309 -0.2580
   23SAPC    HB 2995  -0.158   5.014  10.548 -0.4315 -0.6480  1.1438
   23SAPC    C2 2996  -0.196   4.834  10.447  0.2702 -0.1765 -0.1343
   23SAPC    HS 2997  -0.193   4.723  10.453 -1.8195 -0.6297 -4.0193
   23SAPC   O21 2998  -0.109   4.892  10.349 -0.2129 -0.2853  0.0698
   23SAPC   C21 2999  -0.081   4.804  10.256  0.3113  0.0969  1.2847
   23SAPC   O22 3000  -0.121   4.689  10.245  0.8500 -0.1634 -0.3248
   23SAPC   C22 3001   0.014   4.858  10.161 -0.8229  0.7308 -0.4544
   23SAPC   H2R 3002   0.059   4.958  10.178  1.6558 -0.5672  1.2027
   23SAPC   H2S 3003   0.102   4.791  10.172 -0.9065  0.5513 -0.8664
   23SAPC    C3 3004  -0.348   4.865  10.411 -0.1743  0.1635 -0.2479
   23SAPC    HX 3005  -0.364   4.972  10.437 -0.6806  0.1473 -0.4776
   23SAPC    HY 3006  -0.417   4.812  10.480 -1.0310  0.2724 -0.9987
   23SAPC   O31 3007  -0.380   4.847  10.272 -0.1237  0.9489  0.0466
   23SAPC   C31 3008  -0.507   4.849  10.249  1.2007 -0.7332  0.0641
   23SAPC   O32 3009  -0.602   4.841  10.330 -0.8833  0.7431  0.3140
   23SAPC   C32 3010  -0.531   4.841  10.096  0.5391  0.8535 -0.4851
   23SAPC   H2X 3011  -0.641   4.841  10.083  0.4902 -3.9975 -1.8586
   23SAPC   H2Y 3012  -0.490   4.743  10.064  1.5163  2.1414 -3.5773
   23SAPC   C23 3013  -0.049   4.839  10.017  0.1098  0.0516  0.0315
   23SAPC   H3R 3014  -0.144   4.898  10.020  0.1108  0.0747 -0.3116
   23SAPC   H3S 3015  -0.084   4.735  10.002 -0.6633  0.2098  0.6601
   23SAPC   C24 3016   0.057   4.880   9.915  0.5668  0.2313  0.0278
   23SAPC   H4R 3017   0.120   4.791   9.896 -1.4670 -1.1138 -0.7539
   23SAPC   H4S 3018   0.110   4.976   9.937 -0.2181  0.1580  2.5983
   23SAPC   C25 3019  -0.017   4.898   9.782 -0.0525 -0.3851 -0.3667
   23SAPC   H5R 3020  -0.084   4.985   9.787 -1.1311 -1.2252 -0.0126
   23SAPC   C26 3021   0.007   4.847   9.658  0.8991  0.0027  0.4994
   23SAPC   H6R 3022  -0.046   4.887   9.571  1.0826 -0.8992 -0.0354
   23SAPC   C27 3023   0.112   4.746   9.622 -0.1909 -0.9295 -0.7713
   23SAPC   H7R 3024   0.199   4.768   9.688 -1.7095  1.8270  0.4875
   23SAPC   H7S 3025   0.154   4.745   9.519  1.5142 -2.0052 -0.1082
   23SAPC   C28 3026   0.063   4.610   9.651 -0.0250  1.3030  0.4033
   23SAPC   H8R 3027   0.036   4.598   9.757  0.3734  2.5627  0.6682
   23SAPC   C29 3028   0.075   4.497   9.576  0.1204 -0.3203 -0.6445
   23SAPC   H9R 3029   0.039   4.408   9.629 -1.4733 -0.6250 -2.1802
   23SAPC  C210 3030   0.141   4.478   9.441 -0.2332 -0.2357  0.0420
   23SAPC  H10R 3031   0.247   4.507   9.456  0.7648 -3.0506 -0.8323
   23SAPC  H10S 3032   0.093   4.536   9.359 -0.1006 -1.9626 -1.3420
   23SAPC  C211 3033   0.146   4.329   9.416 -0.6557 -0.1603  0.3036
   23SAPC  H11R 3034   0.201   4.273   9.493  0.8054  0.1950 -0.4495
   23SAPC  C212 3035   0.100   4.268   9.306 -0.3089 -0.3930  1.0579
   23SAPC  H12R 3036   0.103   4.158   9.297 -1.9355 -0.5895  2.3258
   23SAPC  C213 3037   0.033   4.332   9.190  0.1965 -0.0506  0.1173
   23SAPC  H13R 3038  -0.034   4.418   9.213 -1.7299 -0.8538 -2.1259
   23SAPC  H13S 3039  -0.033   4.259   9.139 -1.1131 -1.0993  3.0719
   23SAPC  C214 3040   0.131   4.393   9.098  0.0731  0.1407  0.9347
   23SAPC  H14R 3041   0.140   4.502   9.106 -1.7488  0.5207 -1.0874
   23SAPC  C215 3042   0.187   4.345   8.985  0.2161  1.1377 -0.0730
   23SAPC  H15R 3043   0.264   4.402   8.932  0.4229  0.6246 -0.3363
   23SAPC  C216 3044   0.166   4.214   8.919  0.4084  0.4631  0.6257
   23SAPC  H16R 3045   0.065   4.170   8.934  1.3705 -1.2387  2.5539
   23SAPC  H16S 3046   0.235   4.143   8.971  0.9180  0.5589  0.0911
   23SAPC  C217 3047   0.191   4.215   8.766 -0.3291 -0.0446 -0.5300
   23SAPC  H17R 3048   0.286   4.263   8.735  0.4319 -0.3420  1.2385
   23SAPC  H17S 3049   0.114   4.277   8.715  0.3399  1.9286  0.7320
   23SAPC  C218 3050   0.197   4.068   8.727 -0.2294  0.8072 -0.0911
   23SAPC  H18R 3051   0.123   4.009   8.785 -0.2394  1.4064  0.5210
   23SAPC  H18S 3052   0.296   4.032   8.763 -0.8798  1.4859  2.5941
   23SAPC  C219 3053   0.157   4.034   8.580 -1.1416 -0.4140  0.3688
   23SAPC  H19R 3054   0.047   4.033   8.569 -1.0841  0.7531 -0.5930
   23SAPC  H19S 3055   0.203   3.933   8.579  2.5124  1.0478  1.3395
   23SAPC  C220 3056   0.218   4.127   8.476 -0.7286 -0.3713 -0.4580
   23SAPC  H20R 3057   0.225   4.085   8.373 -1.2876  2.3963 -1.7170
   23SAPC  H20S 3058   0.316   4.166   8.511 -0.5849  1.3386 -2.5428
   23SAPC  H20T 3059   0.156   4.218   8.463 -1.0705 -0.9160 -3.4532
   23SAPC   C33 3060  -0.468   4.948  10.004 -0.0214  0.1937  0.0428
   23SAPC   H3X 3061  -0.368   4.959  10.051  0.0649 -1.4704  0.3148
   23SAPC   H3Y 3062  -0.532   5.038  10.015 -1.9918 -1.2145  0.6629
   23SAPC   C34 3063  -0.438   4.898   9.857 -0.1055 -0.0233  0.1196
   23SAPC   H4X 3064  -0.525   4.856   9.803  2.8131 -2.7627 -2.9667
   23SAPC   H4Y 3065  -0.369   4.811   9.870 -0.4022 -0.2526  0.1872
   23SAPC   C35 3066  -0.372   5.005   9.773  0.1555 -0.3685  0.0224
   23SAPC   H5X 3067  -0.278   5.039   9.821  0.1635 -0.1825 -0.1237
   23SAPC   H5Y 3068  -0.436   5.095   9.786  1.4742  0.4473  1.1526
   23SAPC   C36 3069  -0.369   4.978   9.623 -0.8875 -0.7912 -0.0516
   23SAPC   H6X 3070  -0.473   4.949   9.596 -0.1041 -3.9936  0.0684
   23SAPC   H6Y 3071  -0.306   4.888   9.616 -0.8799 -0.8574  0.7885
   23SAPC   C37 3072  -0.323   5.099   9.546  0.0603 -0.2265  0.2225
   23SAPC   H7X 3073  -0.215   5.119   9.564  0.4582 -1.3627 -0.8121
   23SAPC   H7Y 3074  -0.379   5.187   9.585  0.8507 -0.4245  1.8756
   23SAPC   C38 3075  -0.355   5.087   9.390 -0.3131  0.0219 -0.4255
   23SAPC   H8X 3076  -0.354   5.185   9.337 -1.0553  0.3093  0.0728
   23SAPC   H8Y 3077  -0.457   5.050   9.365  0.0067 -1.0136 -0.2534
   23SAPC   C39 3078  -0.248   5.002   9.322 -0.1762  0.0283  0.0459
   23SAPC   H9X 3079  -0.254   4.904   9.375 -0.0998  1.3373  2.6438
   23SAPC   H9Y 3080  -0.143   5.040   9.321 -0.2482  0.2468 -1.3112
   23SAPC  C310 3081  -0.278   4.969   9.170  0.3534  0.7566 -0.3507
   23SAPC  H10X 3082  -0.266   5.065   9.115 -0.3355  1.4415  0.6471
   23SAPC  H10Y 3083  -0.385   4.937   9.174  1.1015 -1.7747  1.3168
   23SAPC  C311 3084  -0.194   4.853   9.117 -0.2008 -0.4840 -0.5503
   23SAPC  H11X 3085  -0.229   4.842   9.012  0.6762 -2.6516 -0.6725
   23SAPC  H11Y 3086  -0.223   4.770   9.185  0.9370  1.6408  2.7188
   23SAPC  C312 3087  -0.041   4.888   9.114  0.5732  0.8293 -0.0736
   23SAPC  H12X 3088   0.000   4.899   9.217 -0.3947 -0.4233  0.4649
   23SAPC  H12Y 3089  -0.031   4.985   9.061  4.2084  0.4511 -0.3724
   23SAPC  C313 3090   0.040   4.783   9.042  0.0764  0.1251  0.2836
   23SAPC  H13X 3091  -0.004   4.686   9.072  0.2030 -0.7546 -2.1236
   23SAPC  H13Y 3092   0.149   4.798   9.059  0.1053 -0.7613  0.9933
   23SAPC  C314 3093   0.035   4.794   8.888 -0.2268  0.4615  0.1989
   23SAPC  H14X 3094   0.074   4.897   8.874  1.0810  0.0931  0.9668
   23SAPC  H14Y 3095  -0.071   4.795   8.855  0.3106  0.2250 -1.6303
   23SAPC  C315 3096   0.116   4.688   8.819 -0.5458  0.2297  0.1289
   23SAPC  H15X 3097   0.099   4.584   8.853 -0.2220 -0.2930 -1.2275
   23SAPC  H15Y 3098   0.225   4.709   8.827 -0.0933 -1.0468 -1.8892
   23SAPC  C316 3099   0.088   4.681   8.666 -0.3700 -0.4591  0.3048
   23SAPC  H16X 3100  -0.016   4.649   8.645 -0.9450  1.7321 -0.5438
   23SAPC  H16Y 3101   0.155   4.606   8.618  0.1625  0.0053  0.3077
   23SAPC  C317 3102   0.108   4.811   8.599  0.1845 -0.4545 -1.5253
   23SAPC  H17X 3103   0.204   4.851   8.638 -0.4333 -1.6540  1.4259
   23SAPC  H17Y 3104   0.032   4.877   8.647  1.2953 -1.2093  1.4809
   23SAPC  C318 3105   0.094   4.814   8.447 -0.1997  0.0052  0.2299
   23SAPC  H18X 3106   0.127   4.914   8.413 -1.4589  0.4806  0.3705
   23SAPC  H18Y 3107  -0.012   4.803   8.415  0.0441 -0.5934 -0.3984
   23SAPC  H18Z 3108   0.155   4.729   8.408  0.0039  0.5142 -0.6036
   24SAPC     N 3109   1.093   0.625  11.418  0.1206 -0.3181  0.0334
   24SAPC   C12 3110   1.157   0.724  11.327  0.3410  0.0125 -0.3323
   24SAPC  H12A 3111   1.263   0.707  11.332  0.6560  2.0734  1.2136
   24SAPC  H12B 3112   1.140   0.818  11.378  1.0212  0.1986 -0.4434
   24SAPC   C13 3113   1.101   0.487  11.356 -0.5731 -0.5893  0.0591
   24SAPC  H13A 3114   1.206   0.482  11.330  0.6864  4.1590  2.8667
   24SAPC  H13B 3115   1.067   0.413  11.426 -1.3801 -0.0437  0.2645
   24SAPC  H13C 3116   1.039   0.487  11.267 -0.2630 -0.1565 -0.1647
   24SAPC   C14 3117   1.169   0.620  11.554  0.2470  0.1449 -0.1448
   24SAPC  H14A 3118   1.167   0.711  11.613  0.1602  0.0840 -0.0520
   24SAPC  H14B 3119   1.117   0.544  11.611 -0.4220 -0.3429 -1.3808
   24SAPC  H14C 3120   1.273   0.597  11.541  1.0308  4.2530 -3.0168
   24SAPC   C15 3121   0.952   0.667  11.449 -0.3099 -0.1006  0.3279
   24SAPC  H15A 3122   0.892   0.647  11.361  2.7603 -2.1010 -1.5375
   24SAPC  H15B 3123   0.910   0.603  11.525  0.5288  0.0569  0.9352
   24SAPC  H15C 3124   0.941   0.769  11.483  0.5002  0.2633 -0.4333
   24SAPC   C11 3125   1.110   0.732  11.174  0.0431 -0.9857 -0.4243
   24SAPC  H11A 3126   1.123   0.833  11.132 -1.4651 -1.1679 -1.3847
   24SAPC  H11B 3127   1.000   0.725  11.183 -0.4046  0.4677 -3.6023
   24SAPC     P 3128   1.113   0.520  11.003 -0.0958  0.3777 -0.8882
   24SAPC   O13 3129   1.213   0.414  11.002  0.4844  0.3349 -0.0544
   24SAPC   O14 3130   0.976   0.487  11.060 -0.4584  0.3888 -0.4174
   24SAPC   O12 3131   1.173   0.637  11.089 -0.2869 -0.2674  0.1247
   24SAPC   O11 3132   1.113   0.593  10.859 -0.3688  0.1599  0.1015
   24SAPC    C1 3133   0.988   0.640  10.821  0.6562 -0.0517  0.8628
   24SAPC    HA 3134   0.920   0.664  10.905 -1.3746  1.2261 -1.0390
   24SAPC    HB 3135   0.997   0.732  10.759 -1.5109  1.2441  2.3253
   24SAPC    C2 3136   0.912   0.533  10.727  0.3405 -0.1487 -0.0201
   24SAPC    HS 3137   0.863   0.449  10.780 -0.3734  0.8646  0.9725
   24SAPC   O21 3138   1.001   0.494  10.620  0.2723 -0.0059 -0.1786
   24SAPC   C21 3139   1.048   0.383  10.630 -0.3611  0.5401  0.3967
   24SAPC   O22 3140   1.047   0.308  10.726 -0.1810 -0.3892 -0.0878
   24SAPC   C22 3141   1.118   0.355  10.498 -0.0883  0.4006 -0.4118
   24SAPC   H2R 3142   1.119   0.450  10.440 -0.6984  1.7843  1.7243
   24SAPC   H2S 3143   1.225   0.339  10.523  0.4440  2.1178 -1.3733
   24SAPC    C3 3144   0.793   0.600  10.657  0.9370  0.3359  0.2642
   24SAPC    HX 3145   0.832   0.687  10.599 -0.4450  0.9287  0.1809
   24SAPC    HY 3146   0.733   0.632  10.744  1.0701  2.5493 -0.3989
   24SAPC   O31 3147   0.720   0.509  10.565 -0.3263  0.7081  1.2374
   24SAPC   C31 3148   0.634   0.421  10.617 -0.3599  0.2513 -0.4144
   24SAPC   O32 3149   0.609   0.417  10.735 -0.4615  0.4705  0.1833
   24SAPC   C32 3150   0.561   0.329  10.516  0.3770 -0.6105 -0.2271
   24SAPC   H2X 3151   0.498   0.258  10.573  1.5958 -0.4512  1.3801
   24SAPC   H2Y 3152   0.645   0.269  10.474  0.3021 -0.5320 -0.4943
   24SAPC   C23 3153   1.062   0.221  10.424 -0.2933  0.0229  0.0350
   24SAPC   H3R 3154   1.043   0.159  10.514  0.0510  1.7244  1.3339
   24SAPC   H3S 3155   1.143   0.180  10.360 -1.6475  0.2550 -1.9203
   24SAPC   C24 3156   0.941   0.260  10.332 -0.5947 -0.1536  0.3387
   24SAPC   H4R 3157   0.970   0.338  10.259 -2.5397 -0.0345 -0.3707
   24SAPC   H4S 3158   0.867   0.298  10.406 -2.0133 -0.2747 -0.9831
   24SAPC   C25 3159   0.881   0.142  10.261  0.6243 -0.0726 -0.1336
   24SAPC   H5R 3160   0.781   0.111  10.295  0.2144 -1.5234 -2.4531
   24SAPC   C26 3161   0.915   0.102  10.141  0.6667  1.4258  0.5534
   24SAPC   H6R 3162   0.868   0.010  10.103  0.1508  1.4310  1.1653
   24SAPC   C27 3163   1.027   0.151  10.052 -0.1649  0.5234 -0.1065
   24SAPC   H7R 3164   1.087   0.069  10.007 -2.0144 -0.0198 -1.7155
   24SAPC   H7S 3165   1.100   0.204  10.116 -2.5163  0.3787  2.9148
   24SAPC   C28 3166   0.993   0.247   9.942 -0.9925 -0.6443 -0.0052
   24SAPC   H8R 3167   1.024   0.352   9.953  0.8057 -1.1377 -0.0360
   24SAPC   C29 3168   0.958   0.200   9.825  0.5017 -0.7611  0.1554
   24SAPC   H9R 3169   0.936   0.276   9.749  1.6423  0.6025  1.1354
   24SAPC  C210 3170   0.939   0.054   9.781  1.0200  0.2355  0.0052
   24SAPC  H10R 3171   0.943  -0.023   9.861 -2.1433 -0.3381 -0.2728
   24SAPC  H10S 3172   1.016   0.024   9.707  0.9396  1.1965 -0.4792
   24SAPC  C211 3173   0.797   0.032   9.728  0.4814  0.2686  0.5068
   24SAPC  H11R 3174   0.729  -0.027   9.791  0.4151  0.1616  0.3359
   24SAPC  C212 3175   0.745   0.060   9.610  0.0176  0.4597 -0.0498
   24SAPC  H12R 3176   0.636   0.064   9.614  0.0173 -0.4460  2.0895
   24SAPC  C213 3177   0.818   0.123   9.493 -0.2989  0.0846  0.7259
   24SAPC  H13R 3178   0.870   0.215   9.529  1.5456 -0.3828 -0.5844
   24SAPC  H13S 3179   0.750   0.160   9.414 -0.9011 -2.1443  0.1320
   24SAPC  C214 3180   0.920   0.035   9.424 -0.6379  0.5776 -0.6517
   24SAPC  H14R 3181   0.987  -0.029   9.484 -0.8611  0.4574 -0.5329
   24SAPC  C215 3182   0.948   0.037   9.292 -0.2225 -0.2917 -0.1034
   24SAPC  H15R 3183   1.024  -0.033   9.254  1.0244  1.7458 -1.5919
   24SAPC  C216 3184   0.884   0.126   9.183  0.3863  0.4559  0.0993
   24SAPC  H16R 3185   0.965   0.143   9.109  0.2973  0.3777 -0.0159
   24SAPC  H16S 3186   0.843   0.222   9.221 -0.5235  0.3155 -0.4926
   24SAPC  C217 3187   0.769   0.073   9.096  0.2906  0.1033  0.0791
   24SAPC  H17R 3188   0.691   0.051   9.172  0.8884 -2.4182  0.0532
   24SAPC  H17S 3189   0.799  -0.025   9.053 -0.5357  0.1142 -0.5396
   24SAPC  C218 3190   0.718   0.168   8.991  0.1620  1.0095  0.0784
   24SAPC  H18R 3191   0.784   0.185   8.903 -1.2215 -1.6139 -1.6007
   24SAPC  H18S 3192   0.702   0.266   9.042  1.2365  1.5971 -0.6642
   24SAPC  C219 3193   0.580   0.114   8.938 -0.1791  0.1251  0.4565
   24SAPC  H19R 3194   0.547   0.176   8.852  0.4102 -0.3898 -0.1513
   24SAPC  H19S 3195   0.499   0.120   9.014 -0.3700  0.1756  0.2511
   24SAPC  C220 3196   0.593  -0.028   8.874 -0.0033  1.1590  1.0837
   24SAPC  H20R 3197   0.488  -0.061   8.863  0.1155  1.4191 -1.2869
   24SAPC  H20S 3198   0.648  -0.106   8.932  1.0965  1.1682  0.0952
   24SAPC  H20T 3199   0.637  -0.020   8.772  0.8131  0.4468  1.3707
   24SAPC   C33 3200   0.491   0.402  10.403 -0.1339  0.1156  0.3318
   24SAPC   H3X 3201   0.538   0.499  10.375  0.5963 -0.3698 -0.1792
   24SAPC   H3Y 3202   0.383   0.420  10.418 -0.5316  1.0355 -2.7849
   24SAPC   C34 3203   0.514   0.323  10.267  0.5959  0.2700 -0.1986
   24SAPC   H4X 3204   0.453   0.231  10.269  0.1456  0.5646  1.2269
   24SAPC   H4Y 3205   0.614   0.275  10.278 -0.0783 -1.1235  0.0305
   24SAPC   C35 3206   0.507   0.415  10.148 -0.1610  0.0594  0.8374
   24SAPC   H5X 3207   0.555   0.509  10.183 -0.0197 -1.0820  4.0491
   24SAPC   H5Y 3208   0.406   0.458  10.131  0.0870  0.7755  1.1176
   24SAPC   C36 3209   0.561   0.360  10.012 -0.2419  0.1506  0.0083
   24SAPC   H6X 3210   0.510   0.263   9.991 -0.5231 -0.8028  4.2336
   24SAPC   H6Y 3211   0.669   0.351  10.035  0.1543  3.2423 -0.2158
   24SAPC   C37 3212   0.536   0.464   9.907 -0.0451  0.0326  0.6172
   24SAPC   H7X 3213   0.592   0.560   9.920  0.1457  0.2904 -1.5974
   24SAPC   H7Y 3214   0.430   0.495   9.913 -0.1017  0.0486 -0.2607
   24SAPC   C38 3215   0.567   0.411   9.762  0.6703 -0.0326 -0.1203
   24SAPC   H8X 3216   0.500   0.325   9.742  0.9010  0.0022 -1.0948
   24SAPC   H8Y 3217   0.665   0.360   9.762 -0.3076 -2.0370  1.1390
   24SAPC   C39 3218   0.556   0.533   9.666  0.2303 -0.4601  0.0709
   24SAPC   H9X 3219   0.641   0.601   9.687  0.8832 -0.2803 -2.7619
   24SAPC   H9Y 3220   0.465   0.593   9.688 -1.2252 -2.7028  0.5060
   24SAPC  C310 3221   0.558   0.503   9.518 -0.1248 -1.1169  0.0915
   24SAPC  H10X 3222   0.481   0.427   9.494 -0.0076 -0.8005 -1.4159
   24SAPC  H10Y 3223   0.655   0.455   9.490  0.9532  0.4988  0.9099
   24SAPC  C311 3224   0.542   0.630   9.425 -1.0060  0.1248 -0.2375
   24SAPC  H11X 3225   0.642   0.677   9.418 -0.3019 -1.5513 -2.3317
   24SAPC  H11Y 3226   0.469   0.704   9.465 -0.5876 -1.0434  2.9350
   24SAPC  C312 3227   0.501   0.582   9.283  0.0801  0.4512  0.2658
   24SAPC  H12X 3228   0.398   0.542   9.292  0.4289 -0.0328  2.7987
   24SAPC  H12Y 3229   0.569   0.508   9.236  0.5374  0.2362  1.2542
   24SAPC  C313 3230   0.487   0.696   9.176  1.3136 -0.2824 -0.0739
   24SAPC  H13X 3231   0.583   0.743   9.147  0.3907  2.4646  0.9935
   24SAPC  H13Y 3232   0.424   0.780   9.213  0.4086 -0.7002 -0.6183
   24SAPC  C314 3233   0.441   0.636   9.039  0.4230 -0.3427  0.0187
   24SAPC  H14X 3234   0.424   0.725   8.973  1.8059  0.2020  0.3578
   24SAPC  H14Y 3235   0.341   0.594   9.062 -0.6545  1.4460 -1.0739
   24SAPC  C315 3236   0.538   0.552   8.955  0.8545  0.2401 -0.0736
   24SAPC  H15X 3237   0.523   0.444   8.977 -0.5905  0.4415  0.0397
   24SAPC  H15Y 3238   0.643   0.573   8.984  1.2318  1.6425 -2.2226
   24SAPC  C316 3239   0.521   0.578   8.803  0.1079  0.3540 -0.5299
   24SAPC  H16X 3240   0.600   0.525   8.746  0.5527  0.4839 -0.0434
   24SAPC  H16Y 3241   0.540   0.687   8.795  0.1529  0.2484 -2.3549
   24SAPC  C317 3242   0.387   0.537   8.747  0.1853 -0.8517  0.3392
   24SAPC  H17X 3243   0.303   0.583   8.804 -0.0141 -0.9271  0.1079
   24SAPC  H17Y 3244   0.359   0.431   8.761 -2.8393 -0.0829  0.8831
   24SAPC  C318 3245   0.387   0.568   8.596 -0.2997 -0.3357 -0.4150
   24SAPC  H18X 3246   0.440   0.484   8.546  0.6850  0.5862 -0.9838
   24SAPC  H18Y 3247   0.465   0.644   8.574  2.2266 -2.7788 -0.4802
   24SAPC  H18Z 3248   0.280   0.566   8.568 -0.1610 -4.0311 -1.1993
   25SAPC     N 3249   3.841   2.486   5.829  0.0000  0.1496  0.6573
   25SAPC   C12 3250   3.756   2.512   5.954 -0.2379  0.1055  0.3687
   25SAPC  H12A 3251   3.680   2.436   5.958 -2.1650  1.6626 -2.6603
   25SAPC  H12B 3252   3.694   2.597   5.930 -0.7044  0.2046  1.8301
   25SAPC   C13 3253   3.906   2.614   5.793 -0.0746 -0.3989 -0.0827
   25SAPC  H13A 3254   3.945   2.654   5.885 -0.6486  1.3583 -0.5667
   25SAPC  H13B 3255   3.981   2.603   5.716 -1.1434  1.0930 -1.4177
   25SAPC  H13C 3256   3.835   2.687   5.756  0.7541 -1.2330 -3.7785
   25SAPC   C14 3257   3.950   2.383   5.854  0.4280 -0.1432  0.0038
   25SAPC  H14A 3258   3.906   2.289   5.884  0.5821 -0.6060 -1.1482
   25SAPC  H14B 3259   4.004   2.379   5.760  1.2840  0.5788  0.4643
   25SAPC  H14C 3260   4.009   2.428   5.932  0.4090 -0.5879  0.2763
   25SAPC   C15 3261   3.754   2.445   5.713  0.4052 -0.7449  0.4112
   25SAPC  H15A 3262   3.816   2.451   5.625 -0.7886  0.7901 -0.3794
   25SAPC  H15B 3263   3.719   2.343   5.725 -1.7552 -0.0861  0.2036
   25SAPC  H15C 3264   3.668   2.511   5.709  1.0356  0.0309 -0.7895
   25SAPC   C11 3265   3.833   2.531   6.086 -0.2583  1.3444 -0.6780
   25SAPC  H11A 3266   3.901   2.447   6.114 -0.9424  1.0431  0.1194
   25SAPC  H11B 3267   3.766   2.520   6.175  1.0428  0.4753  0.2440
   25SAPC     P 3268   3.874   2.773   6.175  0.1780  0.5331  0.2123
   25SAPC   O13 3269   3.835   2.869   6.077  0.1906 -0.3411 -0.2539
   25SAPC   O14 3270   3.778   2.753   6.285  0.3022 -0.0399  0.1996
   25SAPC   O12 3271   3.910   2.645   6.096 -0.3940 -0.4357  0.2180
   25SAPC   O11 3272   4.016   2.807   6.242 -0.4184  0.1102  0.5789
   25SAPC    C1 3273   4.067   2.932   6.286 -0.2132  0.0086 -0.5803
   25SAPC    HA 3274   4.176   2.916   6.304 -0.2494  1.4250  1.1391
   25SAPC    HB 3275   4.054   3.012   6.210 -2.3317  0.1363 -0.1567
   25SAPC    C2 3276   4.006   2.982   6.428 -0.0522 -0.1911  0.6367
   25SAPC    HS 3277   4.075   3.061   6.466  0.2651 -1.2424  2.3620
   25SAPC   O21 3278   3.981   2.881   6.521 -0.5945  0.3317 -0.6072
   25SAPC   C21 3279   4.079   2.808   6.561  0.8599  0.3367  0.2432
   25SAPC   O22 3280   4.195   2.820   6.532 -0.3564 -0.1103 -0.3491
   25SAPC   C22 3281   4.023   2.709   6.662  0.5801  0.0400 -0.4985
   25SAPC   H2R 3282   3.945   2.643   6.618 -0.6695  1.7503 -0.9364
   25SAPC   H2S 3283   4.097   2.630   6.689  1.4644  1.1010  0.2608
   25SAPC    C3 3284   3.877   3.049   6.397  0.1783  0.5747 -0.6361
   25SAPC    HX 3285   3.804   2.974   6.360  0.4865 -0.7647  1.3160
   25SAPC    HY 3286   3.881   3.132   6.324 -0.8793 -1.2223 -2.8624
   25SAPC   O31 3287   3.829   3.115   6.516  0.3180 -0.1175  0.0286
   25SAPC   C31 3288   3.767   3.053   6.612  0.4034 -0.2980  0.1776
   25SAPC   O32 3289   3.726   2.935   6.604 -0.1412  0.0494  0.1465
   25SAPC   C32 3290   3.757   3.151   6.733  0.3082  0.4056  0.3386
   25SAPC   H2X 3291   3.752   3.256   6.696 -0.5812 -0.6608 -2.9678
   25SAPC   H2Y 3292   3.857   3.131   6.777 -0.2352  0.9722  1.8808
   25SAPC   C23 3293   3.974   2.775   6.800  0.3448 -0.4835  0.1916
   25SAPC   H3R 3294   3.892   2.846   6.776  1.7000  0.7139 -1.0790
   25SAPC   H3S 3295   4.060   2.831   6.841 -1.3775  0.0992  3.3278
   25SAPC   C24 3296   3.939   2.671   6.909  0.3015  0.5657  0.4442
   25SAPC   H4R 3297   4.017   2.595   6.930 -0.1224 -0.3635 -1.2061
   25SAPC   H4S 3298   3.860   2.609   6.861 -0.3116  1.3869  0.3648
   25SAPC   C25 3299   3.873   2.732   7.030 -0.3561 -0.3707  0.5349
   25SAPC   H5R 3300   3.803   2.809   6.997  1.5170  1.0947 -0.2184
   25SAPC   C26 3301   3.898   2.723   7.160 -0.1021  1.8515 -0.0160
   25SAPC   H6R 3302   3.836   2.779   7.232 -1.8273  1.6097 -1.2431
   25SAPC   C27 3303   3.994   2.613   7.210 -0.2167 -0.3998 -0.5537
   25SAPC   H7R 3304   4.094   2.658   7.229  0.1008 -1.7036  1.0801
   25SAPC   H7S 3305   4.006   2.526   7.142 -1.0244 -1.3653  0.4958
   25SAPC   C28 3306   3.935   2.553   7.333  0.0581  0.4310  0.3173
   25SAPC   H8R 3307   3.876   2.462   7.321  1.9913 -0.9527  0.6963
   25SAPC   C29 3308   3.954   2.594   7.458 -0.4340 -0.6775  0.5644
   25SAPC   H9R 3309   3.903   2.537   7.537 -2.3212  1.1035  0.7284
   25SAPC  C210 3310   4.035   2.706   7.518  0.9924  0.3292 -0.8930
   25SAPC  H10R 3311   4.028   2.786   7.441  0.0520  0.2585 -0.8945
   25SAPC  H10S 3312   4.142   2.678   7.514  0.3341 -2.5018 -0.6563
   25SAPC  C211 3313   3.977   2.766   7.651 -0.1218 -0.1269  0.4983
   25SAPC  H11R 3314   3.934   2.867   7.641  0.5964  0.0214 -1.8170
   25SAPC  C212 3315   3.970   2.707   7.773  0.3184  0.8438  0.9998
   25SAPC  H12R 3316   3.930   2.770   7.854 -2.3448 -0.3958  0.7339
   25SAPC  C213 3317   4.015   2.574   7.808 -0.2293  0.1739  0.3213
   25SAPC  H13R 3318   4.022   2.507   7.720  0.8667 -0.7945  1.1082
   25SAPC  H13S 3319   3.947   2.523   7.879  0.6951 -1.9696 -0.2528
   25SAPC  C214 3320   4.150   2.582   7.876 -0.2080  0.1012  0.3584
   25SAPC  H14R 3321   4.240   2.573   7.813  0.0544  3.4331  0.0751
   25SAPC  C215 3322   4.174   2.575   8.014 -0.6648  0.1221  0.6818
   25SAPC  H15R 3323   4.273   2.600   8.056 -0.0573 -0.3359 -0.4267
   25SAPC  C216 3324   4.072   2.560   8.127 -0.4662 -0.1187  0.2815
   25SAPC  H16R 3325   4.113   2.468   8.172 -0.0827  0.7930  1.8731
   25SAPC  H16S 3326   3.967   2.539   8.095 -1.6660  0.7428  3.2635
   25SAPC  C217 3327   4.057   2.676   8.224  0.1884 -0.2603 -1.0360
   25SAPC  H17R 3328   3.949   2.698   8.242  0.2698 -1.4479  1.1943
   25SAPC  H17S 3329   4.105   2.768   8.186  1.2385 -0.2614  0.2321
   25SAPC  C218 3330   4.119   2.648   8.357 -0.3204 -0.1033 -0.3590
   25SAPC  H18R 3331   4.070   2.554   8.390 -0.1717 -0.7337 -1.8288
   25SAPC  H18S 3332   4.116   2.730   8.431  1.1092  0.8862 -1.3403
   25SAPC  C219 3333   4.268   2.617   8.340 -0.1710  0.2769  0.2398
   25SAPC  H19R 3334   4.328   2.697   8.292  1.0106 -1.4975 -1.3914
   25SAPC  H19S 3335   4.289   2.525   8.282  1.7639  1.7191 -1.4812
   25SAPC  C220 3336   4.327   2.610   8.488 -0.2515 -0.5622 -0.2891
   25SAPC  H20R 3337   4.418   2.547   8.495  0.9521  1.1693  0.1576
   25SAPC  H20S 3338   4.251   2.574   8.561  0.6485 -1.3051  0.3064
   25SAPC  H20T 3339   4.352   2.712   8.524  1.8153 -0.3811 -1.9973
   25SAPC   C33 3340   3.633   3.119   6.827  0.3227  0.6007  0.6526
   25SAPC   H3X 3341   3.625   3.008   6.831  0.0211  0.6480  1.7419
   25SAPC   H3Y 3342   3.545   3.152   6.768  1.1093 -2.0011 -2.2112
   25SAPC   C34 3343   3.637   3.173   6.970 -0.1536  0.3934 -0.7569
   25SAPC   H4X 3344   3.532   3.176   7.007  0.5536 -1.4702  1.6438
   25SAPC   H4Y 3345   3.681   3.275   6.970  0.5509  0.1659  2.0788
   25SAPC   C35 3346   3.714   3.089   7.073 -0.5529  0.3932 -0.2933
   25SAPC   H5X 3347   3.824   3.090   7.056 -0.3528 -1.1342  0.6272
   25SAPC   H5Y 3348   3.668   2.989   7.060 -3.2775  1.1532  2.3534
   25SAPC   C36 3349   3.673   3.139   7.211 -0.9159 -0.7809 -0.1526
   25SAPC   H6X 3350   3.563   3.145   7.225 -0.7045  0.1614  1.4499
   25SAPC   H6Y 3351   3.717   3.240   7.225 -0.0185 -1.1834  0.0410
   25SAPC   C37 3352   3.732   3.055   7.329  0.1341 -0.2238 -0.2419
   25SAPC   H7X 3353   3.843   3.064   7.327  0.1246  1.0389  1.8398
   25SAPC   H7Y 3354   3.709   2.947   7.319 -0.5054 -0.0289 -0.9758
   25SAPC   C38 3355   3.678   3.108   7.460  0.2999  0.3043  0.3199
   25SAPC   H8X 3356   3.567   3.103   7.458  0.3613 -1.6369 -1.3149
   25SAPC   H8Y 3357   3.716   3.213   7.463  3.7094 -0.8235  0.6527
   25SAPC   C39 3358   3.743   3.044   7.581 -0.0916 -0.1657 -0.6218
   25SAPC   H9X 3359   3.853   3.054   7.570 -0.3544  0.8782 -2.9362
   25SAPC   H9Y 3360   3.731   2.934   7.588  2.0169 -0.5862 -2.3454
   25SAPC  C310 3361   3.710   3.120   7.711 -0.1403  0.3100  0.6934
   25SAPC  H10X 3362   3.603   3.099   7.732 -0.3863 -1.5994 -2.0057
   25SAPC  H10Y 3363   3.732   3.227   7.689 -0.2316 -0.1108 -1.6310
   25SAPC  C311 3364   3.784   3.061   7.832  0.1754  0.4681 -0.9933
   25SAPC  H11X 3365   3.881   3.113   7.850 -0.8449  1.9788  0.4057
   25SAPC  H11Y 3366   3.799   2.951   7.822 -1.3305 -0.1521  2.2828
   25SAPC  C312 3367   3.701   3.073   7.960 -0.7461 -0.3309 -0.2767
   25SAPC  H12X 3368   3.600   3.027   7.958 -1.6121  1.4988 -0.9519
   25SAPC  H12Y 3369   3.694   3.182   7.982  3.3488  0.0793 -0.1451
   25SAPC  C313 3370   3.756   3.007   8.083 -0.4167 -0.0722  0.4935
   25SAPC  H13X 3371   3.864   3.033   8.093  0.1672 -2.1723 -0.0259
   25SAPC  H13Y 3372   3.756   2.897   8.071  1.5434 -0.0381 -0.2139
   25SAPC  C314 3373   3.687   3.051   8.209  0.2094 -0.4855  0.0081
   25SAPC  H14X 3374   3.577   3.042   8.202  0.1572  0.6079 -0.7349
   25SAPC  H14Y 3375   3.712   3.157   8.232 -1.3567  0.3337 -1.9030
   25SAPC  C315 3376   3.730   2.966   8.332 -0.7471 -0.3817  0.2604
   25SAPC  H15X 3377   3.723   2.859   8.305 -1.6754  0.1577 -1.7707
   25SAPC  H15Y 3378   3.651   2.992   8.405 -0.3897  1.3566  0.0692
   25SAPC  C316 3379   3.873   2.987   8.391  0.9323  0.4114  0.1172
   25SAPC  H16X 3380   3.941   2.950   8.311  0.4266 -1.0026  0.3147
   25SAPC  H16Y 3381   3.878   2.922   8.481 -1.5798 -2.1782 -1.4688
   25SAPC  C317 3382   3.900   3.137   8.423  0.2362 -0.0100 -0.2001
   25SAPC  H17X 3383   3.817   3.175   8.486  0.3303 -1.6313  0.9986
   25SAPC  H17Y 3384   3.887   3.191   8.327  2.0394 -1.3354 -1.2579
   25SAPC  C318 3385   4.036   3.164   8.495 -0.3491 -0.6242  0.0737
   25SAPC  H18X 3386   4.021   3.263   8.543 -0.4939  0.3512 -1.8552
   25SAPC  H18Y 3387   4.125   3.169   8.428 -0.0145 -3.3046  0.2170
   25SAPC  H18Z 3388   4.052   3.086   8.572  1.2326  0.3401  0.7549
   26SAPC     N 3389   4.594   3.484   5.731  0.1509  0.0075 -0.8539
   26SAPC   C12 3390   4.494   3.485   5.847 -0.5770 -0.1138  0.4326
   26SAPC  H12A 3391   4.545   3.445   5.933  1.4720  0.4492 -0.4706
   26SAPC  H12B 3392   4.416   3.410   5.840 -1.4079  0.7220  0.6550
   26SAPC   C13 3393   4.718   3.558   5.761 -0.2099  0.1521 -0.2141
   26SAPC  H13A 3394   4.792   3.573   5.684 -0.6711  0.7749 -0.5406
   26SAPC  H13B 3395   4.711   3.655   5.808  0.8586  1.1848 -2.0648
   26SAPC  H13C 3396   4.772   3.501   5.836 -1.1697 -1.9014 -1.0096
   26SAPC   C14 3397   4.618   3.340   5.702  0.1048  0.5499  0.2671
   26SAPC  H14A 3398   4.689   3.318   5.623 -0.2664  0.2658  0.0069
   26SAPC  H14B 3399   4.658   3.295   5.791 -0.0012 -1.7104 -0.7503
   26SAPC  H14C 3400   4.523   3.292   5.683 -0.4708  1.5588  0.4892
   26SAPC   C15 3401   4.535   3.541   5.607  0.6234 -0.5240  0.9133
   26SAPC  H15A 3402   4.437   3.501   5.583 -0.3850  2.0258  0.4687
   26SAPC  H15B 3403   4.510   3.645   5.621 -0.5194 -0.4565 -1.2415
   26SAPC  H15C 3404   4.600   3.530   5.522  1.2766  1.5494  1.0955
   26SAPC   C11 3405   4.429   3.617   5.895 -0.7077  0.1805 -0.2785
   26SAPC  H11A 3406   4.367   3.591   5.983  1.5929 -1.3832  0.9939
   26SAPC  H11B 3407   4.359   3.657   5.819 -0.6696  0.3981 -0.1991
   26SAPC     P 3408   4.509   3.843   5.998  0.5271  0.3572  0.2588
   26SAPC   O13 3409   4.568   3.955   5.917 -0.5949  0.6217  0.0709
   26SAPC   O14 3410   4.369   3.859   6.049 -0.5670 -0.1400  0.0444
   26SAPC   O12 3411   4.530   3.712   5.929 -0.4664  0.0674 -0.2972
   26SAPC   O11 3412   4.593   3.819   6.127  0.2553  0.7545  0.1697
   26SAPC    C1 3413   4.578   3.698   6.199 -0.4029 -0.2212 -0.3685
   26SAPC    HA 3414   4.477   3.651   6.191 -0.5987  0.1806 -0.2921
   26SAPC    HB 3415   4.652   3.626   6.159  0.7357  1.1190 -0.7373
   26SAPC    C2 3416   4.611   3.724   6.346  0.1670  0.1731  0.5348
   26SAPC    HS 3417   4.517   3.769   6.385  0.3651  2.3217 -1.2523
   26SAPC   O21 3418   4.719   3.822   6.360  0.0686  0.2504 -0.0230
   26SAPC   C21 3419   4.714   3.918   6.448  0.6788  0.0619 -0.4047
   26SAPC   O22 3420   4.617   3.934   6.522  0.1150  0.1133 -0.5047
   26SAPC   C22 3421   4.850   3.978   6.463  0.3577  0.4234  0.0763
   26SAPC   H2R 3422   4.915   3.960   6.374 -0.5567  0.8998 -0.7136
   26SAPC   H2S 3423   4.832   4.087   6.452 -0.0429  0.2723 -0.9316
   26SAPC    C3 3424   4.636   3.597   6.427 -0.5330  0.2223  0.0130
   26SAPC    HX 3425   4.729   3.549   6.390 -0.3623 -0.1158  0.8716
   26SAPC    HY 3426   4.554   3.525   6.409 -0.6253 -0.2674  2.1340
   26SAPC   O31 3427   4.648   3.637   6.565  0.4849 -0.3244 -0.0063
   26SAPC   C31 3428   4.527   3.649   6.627 -0.1000 -0.3704 -0.3367
   26SAPC   O32 3429   4.420   3.639   6.570  0.0130 -0.3944 -0.5134
   26SAPC   C32 3430   4.551   3.678   6.775  0.3177 -0.4974  0.2425
   26SAPC   H2X 3431   4.658   3.706   6.782  0.3136  0.2434 -1.9939
   26SAPC   H2Y 3432   4.528   3.591   6.840 -0.3410  0.5634  1.4721
   26SAPC   C23 3433   4.931   3.947   6.600  0.8612 -0.3364  0.9402
   26SAPC   H3R 3434   4.942   3.837   6.610 -1.0575 -0.6571 -0.0849
   26SAPC   H3S 3435   4.896   4.007   6.687 -0.5655  1.5967 -0.8765
   26SAPC   C24 3436   5.082   3.996   6.573 -0.6648 -0.5142 -0.1854
   26SAPC   H4R 3437   5.129   3.944   6.487 -0.9172 -2.8697  1.0037
   26SAPC   H4S 3438   5.139   3.959   6.661 -0.3820  2.1991  0.8467
   26SAPC   C25 3439   5.087   4.154   6.565 -0.6298 -0.1249 -0.1800
   26SAPC   H5R 3440   5.041   4.203   6.478  2.0464  0.6411 -1.2556
   26SAPC   C26 3441   5.155   4.241   6.650 -0.5412  0.3588 -0.2113
   26SAPC   H6R 3442   5.128   4.347   6.635 -0.6595  0.1838 -1.3110
   26SAPC   C27 3443   5.233   4.212   6.770 -0.4657  0.3621 -0.5595
   26SAPC   H7R 3444   5.237   4.102   6.787 -0.5287  0.5236  0.5842
   26SAPC   H7S 3445   5.193   4.257   6.863  1.7515 -0.1150  0.7089
   26SAPC   C28 3446   5.376   4.255   6.752 -0.5556 -0.4577 -0.5437
   26SAPC   H8R 3447   5.415   4.251   6.649  1.9135  1.3266  0.2249
   26SAPC   C29 3448   5.470   4.269   6.850 -0.0926 -0.0695  0.1495
   26SAPC   H9R 3449   5.569   4.302   6.815  0.1596 -3.0901 -2.5222
   26SAPC  C210 3450   5.438   4.262   6.996 -0.4114 -0.6138 -0.5602
   26SAPC  H10R 3451   5.337   4.218   7.016 -0.2529 -0.9357 -0.4566
   26SAPC  H10S 3452   5.445   4.365   7.037 -0.5202 -0.5371 -0.7320
   26SAPC  C211 3453   5.540   4.169   7.063 -0.7120 -0.3134  0.0363
   26SAPC  H11R 3454   5.627   4.145   7.001 -2.4496 -0.9662 -2.2709
   26SAPC  C212 3455   5.531   4.134   7.196 -0.2018 -0.9909  0.3364
   26SAPC  H12R 3456   5.608   4.080   7.253  0.8559  1.1317  1.0555
   26SAPC  C213 3457   5.422   4.164   7.299 -0.2668  0.0244  0.7523
   26SAPC  H13R 3458   5.384   4.268   7.304  0.4574  0.3897 -0.7936
   26SAPC  H13S 3459   5.465   4.155   7.401  0.6473 -0.3574  0.3503
   26SAPC  C214 3460   5.303   4.067   7.286 -0.6745 -0.0629 -0.0436
   26SAPC  H14R 3461   5.267   4.054   7.183  1.5042  3.8318 -1.4709
   26SAPC  C215 3462   5.245   3.990   7.373  0.0616  0.1938  0.0437
   26SAPC  H15R 3463   5.162   3.928   7.336  1.3709 -1.7831  0.2500
   26SAPC  C216 3464   5.277   3.966   7.520 -0.4211 -0.4038 -1.0885
   26SAPC  H16R 3465   5.381   4.000   7.535 -0.5717  0.0070 -0.9523
   26SAPC  H16S 3466   5.270   3.858   7.548  4.0532 -0.3840  0.9493
   26SAPC  C217 3467   5.195   4.049   7.614 -1.0121  0.8145 -0.1608
   26SAPC  H17R 3468   5.089   4.018   7.615 -0.9350  0.5578 -0.0051
   26SAPC  H17S 3469   5.190   4.150   7.568 -0.2142  0.8562 -0.1686
   26SAPC  C218 3470   5.249   4.060   7.755  0.1021 -0.5498 -0.3200
   26SAPC  H18R 3471   5.357   4.084   7.747 -0.1668  0.0534 -3.2011
   26SAPC  H18S 3472   5.237   3.962   7.806 -0.9498 -0.4005 -0.2520
   26SAPC  C219 3473   5.180   4.173   7.835 -0.5817 -0.9558  0.1469
   26SAPC  H19R 3474   5.204   4.267   7.782  1.0531 -1.2310  0.3540
   26SAPC  H19S 3475   5.214   4.178   7.941  0.8987 -2.0350 -0.2436
   26SAPC  C220 3476   5.028   4.163   7.825 -0.2333 -0.2874  1.4663
   26SAPC  H20R 3477   4.996   4.147   7.719 -1.7432  0.0237  1.8591
   26SAPC  H20S 3478   4.989   4.261   7.859 -2.8838 -0.2307 -1.2255
   26SAPC  H20T 3479   4.976   4.084   7.884 -0.5132 -0.8093  0.5512
   26SAPC   C33 3480   4.467   3.792   6.817  0.3047  0.3334  0.2098
   26SAPC   H3X 3481   4.358   3.795   6.795 -0.1888  0.2015  2.4204
   26SAPC   H3Y 3482   4.505   3.888   6.777 -0.8653  0.9868  0.6154
   26SAPC   C34 3483   4.458   3.825   6.971 -0.6448  0.1311  0.2372
   26SAPC   H4X 3484   4.383   3.907   6.973  0.6904  1.4829 -1.7485
   26SAPC   H4Y 3485   4.554   3.874   6.995 -0.6542  0.7162 -0.8345
   26SAPC   C35 3486   4.416   3.701   7.050  0.1456 -0.0554 -0.0328
   26SAPC   H5X 3487   4.514   3.651   7.068  0.8904  1.0082 -0.9796
   26SAPC   H5Y 3488   4.341   3.648   6.988  0.7062  1.8964 -2.5408
   26SAPC   C36 3489   4.350   3.726   7.185  0.7878 -0.2646  0.0889
   26SAPC   H6X 3490   4.270   3.650   7.201  1.8842 -1.0854  2.1606
   26SAPC   H6Y 3491   4.299   3.824   7.187 -0.3509 -0.7880 -1.6078
   26SAPC   C37 3492   4.440   3.720   7.302  0.7999  0.1136 -0.6320
   26SAPC   H7X 3493   4.514   3.801   7.289 -2.0095  2.6373 -2.5551
   26SAPC   H7Y 3494   4.485   3.622   7.277 -1.3955 -0.3007 -3.5912
   26SAPC   C38 3495   4.349   3.728   7.425  0.4851  0.7627  0.1329
   26SAPC   H8X 3496   4.296   3.631   7.434  0.8838  0.6548  1.6115
   26SAPC   H8Y 3497   4.278   3.813   7.426  1.5504  1.7212 -1.3738
   26SAPC   C39 3498   4.430   3.724   7.555  0.2999 -0.0886 -0.4476
   26SAPC   H9X 3499   4.485   3.820   7.566  1.6991 -0.8026 -0.9924
   26SAPC   H9Y 3500   4.506   3.646   7.536  0.2392  0.1703 -1.8616
   26SAPC  C310 3501   4.348   3.681   7.677 -0.0180 -0.4025  0.2673
   26SAPC  H10X 3502   4.294   3.587   7.651 -0.5353 -0.0909  0.2136
   26SAPC  H10Y 3503   4.270   3.759   7.684  0.1557 -0.3468  3.3349
   26SAPC  C311 3504   4.428   3.680   7.799  0.0537  0.0402 -0.0796
   26SAPC  H11X 3505   4.452   3.788   7.813  0.9720 -0.1644 -0.0361
   26SAPC  H11Y 3506   4.527   3.630   7.796 -0.2134 -0.4487 -1.7817
   26SAPC  C312 3507   4.359   3.630   7.929 -0.0613  0.4579  0.3916
   26SAPC  H12X 3508   4.368   3.520   7.933  1.6764  0.5208 -0.6364
   26SAPC  H12Y 3509   4.253   3.663   7.935 -0.1302  0.3470 -0.1410
   26SAPC  C313 3510   4.420   3.683   8.062  0.4828  0.4050 -0.0518
   26SAPC  H13X 3511   4.443   3.789   8.041 -1.2913  0.5698 -1.3407
   26SAPC  H13Y 3512   4.517   3.629   8.069  1.3797  1.6159 -2.3795
   26SAPC  C314 3513   4.339   3.657   8.190 -0.0230 -0.0566 -0.6912
   26SAPC  H14X 3514   4.339   3.557   8.240 -1.0087  0.7154  0.9154
   26SAPC  H14Y 3515   4.237   3.685   8.157 -0.4449 -1.6304 -0.8211
   26SAPC  C315 3516   4.367   3.748   8.306 -0.2458 -0.0056 -0.2252
   26SAPC  H15X 3517   4.275   3.750   8.368 -1.8985  0.6447 -2.5429
   26SAPC  H15Y 3518   4.384   3.847   8.258 -1.4635 -0.5930 -1.9890
   26SAPC  C316 3519   4.491   3.717   8.393 -0.2262 -0.2999 -0.2014
   26SAPC  H16X 3520   4.583   3.745   8.336 -0.1328 -1.1248 -0.4782
   26SAPC  H16Y 3521   4.500   3.607   8.408 -1.2294 -0.1633  1.5580
   26SAPC  C317 3522   4.495   3.803   8.517  0.7723  0.1217 -0.1331
   26SAPC  H17X 3523   4.416   3.771   8.589  0.0450 -0.9162 -1.3492
   26SAPC  H17Y 3524   4.479   3.910   8.493  0.2129 -0.2364 -1.4524
   26SAPC  C318 3525   4.636   3.798   8.579 -0.2984 -0.0049 -0.0584
   26SAPC  H18X 3526   4.655   3.695   8.615 -1.1459  0.5469  2.1162
   26SAPC  H18Y 3527   4.644   3.870   8.663 -0.6847  0.6380 -0.5624
   26SAPC  H18Z 3528   4.720   3.812   8.508 -0.0260 -0.0045  0.2679
   27SAPC     N 3529   3.803   3.949   6.348 -0.0471 -0.6743  0.1401
   27SAPC   C12 3530   3.775   3.936   6.503  0.1069  0.1837  0.6508
   27SAPC  H12A 3531   3.835   3.850   6.529 -0.4933 -0.9106 -1.3743
   27SAPC  H12B 3532   3.669   3.917   6.515  0.1208 -0.9014 -0.7228
   27SAPC   C13 3533   3.700   4.034   6.282  0.2015  0.3405 -0.1992
   27SAPC  H13A 3534   3.714   4.041   6.175  0.6091 -0.0214 -0.1737
   27SAPC  H13B 3535   3.602   3.992   6.299  0.5431 -0.0725  0.8360
   27SAPC  H13C 3536   3.697   4.137   6.313  0.3279  0.8070 -1.6521
   27SAPC   C14 3537   3.943   3.988   6.317  0.0850  0.3553  0.0354
   27SAPC  H14A 3538   3.946   4.040   6.222 -4.3116  1.2089  0.1688
   27SAPC  H14B 3539   3.975   4.066   6.385 -0.2172  0.0755  0.5051
   27SAPC  H14C 3540   4.010   3.903   6.315 -1.1320 -0.8516  3.6298
   27SAPC   C15 3541   3.780   3.814   6.287  0.2982 -0.1073 -0.7802
   27SAPC  H15A 3542   3.678   3.785   6.309 -0.5477  2.4548 -1.0792
   27SAPC  H15B 3543   3.794   3.809   6.180  2.2625 -1.5814 -0.5205
   27SAPC  H15C 3544   3.845   3.741   6.334  2.0991  1.4589 -0.7428
   27SAPC   C11 3545   3.815   4.048   6.599  0.3676  0.7221  0.0482
   27SAPC  H11A 3546   3.925   4.046   6.614  0.7242  0.4597 -2.2457
   27SAPC  H11B 3547   3.784   4.008   6.698 -0.0044 -0.3159 -0.4698
   27SAPC     P 3548   3.616   4.209   6.625 -0.0021  0.3550 -0.2566
   27SAPC   O13 3549   3.579   4.333   6.553 -0.4309  0.4047  0.5780
   27SAPC   O14 3550   3.523   4.087   6.624  0.6323  0.4327 -0.0172
   27SAPC   O12 3551   3.759   4.170   6.568  0.5592  0.1323  0.6000
   27SAPC   O11 3552   3.660   4.242   6.766 -0.0509 -0.4934 -0.0760
   27SAPC    C1 3553   3.752   4.352   6.806  0.7477 -0.1949  0.9929
   27SAPC    HA 3554   3.834   4.354   6.731  2.1036 -0.2348  2.4066
   27SAPC    HB 3555   3.700   4.448   6.785 -1.8301 -1.8996 -1.0728
   27SAPC    C2 3556   3.800   4.338   6.949  0.6013 -0.9623  0.3507
   27SAPC    HS 3557   3.863   4.428   6.970 -0.3958 -0.6318  2.1618
   27SAPC   O21 3558   3.862   4.211   6.971  0.1089 -0.4710 -0.6295
   27SAPC   C21 3559   3.976   4.196   6.912  0.2168 -0.1014 -0.4667
   27SAPC   O22 3560   4.041   4.281   6.853 -0.8054  0.1661  0.1844
   27SAPC   C22 3561   4.029   4.054   6.935 -0.3520 -0.2279 -0.8882
   27SAPC   H2R 3562   3.941   3.987   6.945  1.1543 -2.0938  1.0105
   27SAPC   H2S 3563   4.075   4.017   6.841  0.9024 -0.9443 -0.0339
   27SAPC    C3 3564   3.691   4.355   7.060  0.1106 -0.3101 -0.4237
   27SAPC    HX 3565   3.619   4.270   7.059 -0.0871 -0.1720  0.5466
   27SAPC    HY 3566   3.645   4.451   7.030 -0.5381  0.2289  2.0223
   27SAPC   O31 3567   3.757   4.349   7.191 -0.5522 -0.3049  0.7417
   27SAPC   C31 3568   3.670   4.375   7.291 -0.0909 -0.2875  0.8818
   27SAPC   O32 3569   3.553   4.403   7.274  0.5750  0.6582  0.1603
   27SAPC   C32 3570   3.729   4.343   7.426 -0.5408 -0.8024 -0.0136
   27SAPC   H2X 3571   3.822   4.403   7.435 -1.8542  1.1335  1.2988
   27SAPC   H2Y 3572   3.751   4.234   7.426  0.5263 -0.6026  1.1583
   27SAPC   C23 3573   4.128   4.046   7.058  0.5998  0.4092  0.1860
   27SAPC   H3R 3574   4.206   4.125   7.066 -0.3572  1.2105  2.3673
   27SAPC   H3S 3575   4.168   3.943   7.067 -0.2361  0.1121  0.6375
   27SAPC   C24 3576   4.039   4.064   7.187  0.5697  0.8426  0.0749
   27SAPC   H4R 3577   3.952   3.996   7.171  0.7132  0.8426 -0.7764
   27SAPC   H4S 3578   3.984   4.161   7.196 -2.0858 -0.6421  0.7641
   27SAPC   C25 3579   4.112   4.044   7.321 -0.5438  0.1053  0.2383
   27SAPC   H5R 3580   4.218   4.072   7.311 -0.1815 -1.4479 -0.4774
   27SAPC   C26 3581   4.071   4.007   7.443  0.2419  0.8387  0.0205
   27SAPC   H6R 3582   4.136   4.002   7.532 -0.7419  3.6273  1.0119
   27SAPC   C27 3583   3.935   3.956   7.472  0.1887 -0.3537  0.1539
   27SAPC   H7R 3584   3.872   3.929   7.384 -0.8568  0.4269  0.6417
   27SAPC   H7S 3585   3.876   4.048   7.492 -0.7955 -0.1671 -3.0854
   27SAPC   C28 3586   3.911   3.856   7.585 -0.0810  0.6023  0.8027
   27SAPC   H8R 3587   3.899   3.756   7.541  3.7405  0.4094 -0.1680
   27SAPC   C29 3588   3.917   3.876   7.715 -0.4630  0.4722 -0.7619
   27SAPC   H9R 3589   3.880   3.788   7.770 -2.2826  0.6218 -1.6757
   27SAPC  C210 3590   3.952   4.003   7.792 -0.2469  0.3628 -0.1194
   27SAPC  H10R 3591   3.868   4.015   7.863 -1.7097 -1.9307 -1.3192
   27SAPC  H10S 3592   3.939   4.091   7.726 -4.4787  2.0883  2.5802
   27SAPC  C211 3593   4.093   3.978   7.843  0.6063  0.2168 -0.4805
   27SAPC  H11R 3594   4.169   3.992   7.765  0.5189 -1.0311 -0.8067
   27SAPC  C212 3595   4.135   3.962   7.975 -0.1847 -0.2557 -0.0022
   27SAPC  H12R 3596   4.240   3.940   7.996 -0.2233  0.4410  1.0322
   27SAPC  C213 3597   4.049   3.971   8.100 -1.0549 -0.0212 -0.1322
   27SAPC  H13R 3598   4.071   3.896   8.179  1.2930 -0.6589 -1.2992
   27SAPC  H13S 3599   3.943   3.953   8.072 -1.4615  0.3356  1.1100
   27SAPC  C214 3600   4.051   4.113   8.149  0.2124  0.3532  0.2100
   27SAPC  H14R 3601   4.027   4.173   8.060  0.9265 -1.9210 -1.6132
   27SAPC  C215 3602   4.058   4.149   8.274  0.3667  0.0654  0.3907
   27SAPC  H15R 3603   4.065   4.256   8.299  1.0125  0.4366 -1.2667
   27SAPC  C216 3604   4.080   4.062   8.392 -0.6627  0.1648  0.0126
   27SAPC  H16R 3605   4.064   3.953   8.375 -1.0429  0.5785 -2.5851
   27SAPC  H16S 3606   4.006   4.098   8.467 -0.2691  1.9689 -0.4316
   27SAPC  C217 3607   4.225   4.056   8.456  0.3655  0.5828  0.3947
   27SAPC  H17R 3608   4.298   4.030   8.377 -1.6226  0.8200 -1.6309
   27SAPC  H17S 3609   4.221   3.972   8.528 -1.2248 -1.2171 -1.6730
   27SAPC  C218 3610   4.250   4.192   8.519  0.0071  0.1612  0.4238
   27SAPC  H18R 3611   4.181   4.203   8.605  1.6367  1.4909  1.6206
   27SAPC  H18S 3612   4.228   4.268   8.441 -2.0205 -1.6632 -0.9252
   27SAPC  C219 3613   4.397   4.218   8.553 -0.0453 -0.2364  0.1743
   27SAPC  H19R 3614   4.461   4.235   8.464 -0.1280  0.3468  0.2225
   27SAPC  H19S 3615   4.437   4.130   8.607 -1.0893 -1.4574 -0.9647
   27SAPC  C220 3616   4.411   4.338   8.634 -0.1528 -1.2290 -0.1838
   27SAPC  H20R 3617   4.397   4.427   8.568  0.8043  1.9775  3.5392
   27SAPC  H20S 3618   4.514   4.352   8.671 -0.5925 -0.5253  0.8131
   27SAPC  H20T 3619   4.334   4.344   8.714  0.1750 -0.3784  0.0742
   27SAPC   C33 3620   3.640   4.382   7.546 -0.4104 -0.1533  0.3341
   27SAPC   H3X 3621   3.538   4.347   7.521  1.5338 -3.3011 -4.7156
   27SAPC   H3Y 3622   3.650   4.492   7.552 -1.4084 -0.0192 -0.2432
   27SAPC   C34 3623   3.703   4.318   7.671 -0.0007 -0.2422  0.2357
   27SAPC   H4X 3624   3.807   4.352   7.689 -0.5744  0.6237  2.0903
   27SAPC   H4Y 3625   3.714   4.209   7.655  0.7129  0.0342 -1.4699
   27SAPC   C35 3626   3.627   4.353   7.799  0.3114 -0.2143  0.0294
   27SAPC   H5X 3627   3.520   4.328   7.787  0.5479 -0.6247 -1.4478
   27SAPC   H5Y 3628   3.634   4.463   7.815 -1.1734  0.0784 -1.1642
   27SAPC   C36 3629   3.693   4.281   7.915  0.0509 -0.3100 -0.1346
   27SAPC   H6X 3630   3.797   4.317   7.930 -0.5203  0.6603  1.7876
   27SAPC   H6Y 3631   3.700   4.172   7.895 -0.3823  0.1785 -3.6569
   27SAPC   C37 3632   3.619   4.307   8.054 -1.2882 -0.0630  0.7776
   27SAPC   H7X 3633   3.525   4.248   8.053 -0.7989 -1.1251 -3.9159
   27SAPC   H7Y 3634   3.610   4.418   8.051 -0.6223 -0.0272 -0.2729
   27SAPC   C38 3635   3.702   4.266   8.180  0.4880 -0.7536 -0.3948
   27SAPC   H8X 3636   3.790   4.334   8.177  0.1895 -0.3225  0.2426
   27SAPC   H8Y 3637   3.734   4.160   8.180 -0.6074 -1.0968  0.1014
   27SAPC   C39 3638   3.628   4.312   8.310 -0.1171  0.7789 -0.2215
   27SAPC   H9X 3639   3.544   4.244   8.337  0.3084  0.2400 -0.2368
   27SAPC   H9Y 3640   3.571   4.405   8.290  0.0211  0.7704 -0.6685
   27SAPC  C310 3641   3.733   4.345   8.423  0.0141 -0.0855  0.0511
   27SAPC  H10X 3642   3.814   4.411   8.386  0.1610 -0.7627 -0.8763
   27SAPC  H10Y 3643   3.786   4.257   8.465  2.1659  0.9339 -0.4027
   27SAPC  C311 3644   3.665   4.409   8.547 -0.4145 -0.5555 -0.2038
   27SAPC  H11X 3645   3.575   4.346   8.567 -0.2523  0.0341  2.9083
   27SAPC  H11Y 3646   3.625   4.508   8.517 -0.3306  0.5465  2.9988
   27SAPC  C312 3647   3.756   4.431   8.668 -0.0498 -1.1287  0.5206
   27SAPC  H12X 3648   3.860   4.446   8.632 -0.1952  2.2588  1.2117
   27SAPC  H12Y 3649   3.759   4.335   8.725 -0.5803 -1.9912 -0.8314
   27SAPC  C313 3650   3.727   4.552   8.757 -0.9350 -0.5088 -0.3934
   27SAPC  H13X 3651   3.631   4.533   8.810  0.6077 -0.6074  2.6100
   27SAPC  H13Y 3652   3.732   4.648   8.702 -1.2659 -0.2186  0.0670
   27SAPC  C314 3653   3.830   4.549   8.871  0.4036  0.1407 -0.2760
   27SAPC  H14X 3654   3.930   4.547   8.824 -0.5293 -0.3693 -2.3381
   27SAPC  H14Y 3655   3.822   4.446   8.914 -1.2343  0.3754  0.0582
   27SAPC  C315 3656   3.809   4.672   8.964 -0.0002  0.4406  0.6672
   27SAPC  H15X 3657   3.742   4.751   8.923 -1.5593 -0.4260  1.4312
   27SAPC  H15Y 3658   3.908   4.712   8.994  0.6293  1.9080 -2.8745
   27SAPC  C316 3659   3.757   4.635   9.102  0.4787  0.1858  0.4006
   27SAPC  H16X 3660   3.824   4.558   9.147 -1.9801 -1.9214  0.6724
   27SAPC  H16Y 3661   3.657   4.590   9.089 -0.3663  1.8840  0.7553
   27SAPC  C317 3662   3.756   4.742   9.204 -0.8886 -1.1083  0.0891
   27SAPC  H17X 3663   3.696   4.824   9.159 -3.5291 -2.6537  0.5445
   27SAPC  H17Y 3664   3.858   4.777   9.230 -0.8312 -1.0425 -0.2180
   27SAPC  C318 3665   3.692   4.695   9.333  0.4499  0.3004 -0.1884
   27SAPC  H18X 3666   3.749   4.621   9.395 -1.0974 -0.9474 -0.1714
   27SAPC  H18Y 3667   3.598   4.642   9.307  2.4216 -2.8475 -1.5610
   27SAPC  H18Z 3668   3.672   4.780   9.402 -1.5464  1.4673 -2.0977
   28SAPC     N 3669   5.832   1.130   6.127  0.1652 -0.4261 -0.4259
   28SAPC   C12 3670   5.886   1.011   6.206  0.8213  0.2791  0.4904
   28SAPC  H12A 3671   5.957   1.049   6.279  1.5053  0.8894 -0.4751
   28SAPC  H12B 3672   5.959   0.959   6.145  0.3035 -1.7962  1.5469
   28SAPC   C13 3673   5.943   1.203   6.061 -0.2115  0.1580  0.2545
   28SAPC  H13A 3674   5.918   1.294   6.009 -0.4133 -0.4403 -0.7142
   28SAPC  H13B 3675   6.032   1.215   6.122  1.8587 -0.0043 -2.5104
   28SAPC  H13C 3676   5.981   1.143   5.979  0.1943  0.6028  0.1075
   28SAPC   C14 3677   5.739   1.083   6.020  0.1250 -0.1162 -0.2734
   28SAPC  H14A 3678   5.677   1.164   5.984  0.5503 -0.3859 -1.6800
   28SAPC  H14B 3679   5.786   1.042   5.932  1.0385  1.1985 -0.4322
   28SAPC  H14C 3680   5.664   1.019   6.063 -1.2575  1.5921 -0.0219
   28SAPC   C15 3681   5.752   1.224   6.216 -0.1553 -0.2048 -0.4604
   28SAPC  H15A 3682   5.656   1.182   6.240 -0.4653  0.1145 -1.1103
   28SAPC  H15B 3683   5.795   1.245   6.313 -1.5367 -0.8195  0.3110
   28SAPC  H15C 3684   5.741   1.317   6.161  0.0308 -1.4328 -2.6820
   28SAPC   C11 3685   5.787   0.909   6.276 -0.2433  0.4106  0.8264
   28SAPC  H11A 3686   5.847   0.854   6.352  0.5192 -0.2962 -0.2350
   28SAPC  H11B 3687   5.759   0.838   6.195  0.4106 -0.8103  1.6316
   28SAPC     P 3688   5.677   1.018   6.480 -0.0413  0.0321 -0.3352
   28SAPC   O13 3689   5.575   1.121   6.495 -0.3608  0.2083 -0.1656
   28SAPC   O14 3690   5.675   0.911   6.581 -0.8558  0.6494  0.5318
   28SAPC   O12 3691   5.672   0.960   6.336  0.6087 -0.2220 -0.0297
   28SAPC   O11 3692   5.816   1.091   6.490 -0.0633 -0.0657 -0.1808
   28SAPC    C1 3693   5.925   1.024   6.554 -0.0325  0.2193 -0.0439
   28SAPC    HA 3694   5.918   0.914   6.544  0.0653  0.0517  1.4171
   28SAPC    HB 3695   6.026   1.050   6.515  1.9687 -2.6783  2.7471
   28SAPC    C2 3696   5.928   1.035   6.712  0.0260  0.1508 -0.2808
   28SAPC    HS 3697   5.847   0.968   6.748  0.3258 -2.0296 -3.2666
   28SAPC   O21 3698   5.907   1.176   6.741 -0.9251 -0.6242  0.3186
   28SAPC   C21 3699   5.823   1.203   6.843  0.0566  0.4217 -0.2744
   28SAPC   O22 3700   5.760   1.121   6.904  0.0932  0.2879  0.2455
   28SAPC   C22 3701   5.790   1.354   6.841  0.8637  0.1091 -0.4397
   28SAPC   H2R 3702   5.859   1.407   6.772 -0.0871  2.2205  0.1380
   28SAPC   H2S 3703   5.695   1.369   6.787 -0.1308 -1.5698  0.7268
   28SAPC    C3 3704   6.061   0.986   6.781  0.6124 -0.0862  0.6499
   28SAPC    HX 3705   6.148   1.039   6.739 -1.3178  0.8897 -2.4806
   28SAPC    HY 3706   6.069   0.876   6.764  2.7240  0.0785  0.4239
   28SAPC   O31 3707   6.050   1.020   6.926 -0.4530 -0.7592 -0.0373
   28SAPC   C31 3708   6.040   0.913   7.011 -0.5844 -0.0020 -0.1808
   28SAPC   O32 3709   6.018   0.802   6.970 -0.4397 -0.0063  0.1586
   28SAPC   C32 3710   6.071   0.947   7.155 -0.3097  0.5161  0.1384
   28SAPC   H2X 3711   6.029   1.049   7.170  0.4152  0.9097 -0.4001
   28SAPC   H2Y 3712   6.181   0.949   7.172 -0.2074  0.1080 -0.4338
   28SAPC   C23 3713   5.769   1.409   6.984  0.5552 -0.0881  0.1957
   28SAPC   H3R 3714   5.855   1.390   7.052  0.1225 -0.8125  0.5452
   28SAPC   H3S 3715   5.678   1.362   7.026  1.8815 -1.1421  2.0418
   28SAPC   C24 3716   5.740   1.556   6.979  0.6331  0.1801 -0.7857
   28SAPC   H4R 3717   5.665   1.575   6.898 -0.3898 -1.3811 -0.2622
   28SAPC   H4S 3718   5.682   1.593   7.066 -0.9668  1.1871 -2.2025
   28SAPC   C25 3719   5.867   1.639   6.971 -0.1993 -0.5994  0.9031
   28SAPC   H5R 3720   5.885   1.677   6.869 -1.5174  3.0527  1.8535
   28SAPC   C26 3721   5.945   1.687   7.065  0.0288  0.2013 -0.1393
   28SAPC   H6R 3722   6.027   1.753   7.032  0.1953  0.7788  1.3394
   28SAPC   C27 3723   5.923   1.685   7.215  0.5713  0.1029 -0.6859
   28SAPC   H7R 3724   5.827   1.725   7.252  1.4067  0.4545  1.2263
   28SAPC   H7S 3725   5.990   1.754   7.271  0.1216 -2.2228  3.0954
   28SAPC   C28 3726   5.917   1.554   7.283  0.2419 -0.5793  0.5694
   28SAPC   H8R 3727   5.835   1.488   7.252 -1.3701  1.5364  0.1578
   28SAPC   C29 3728   5.986   1.513   7.394  0.3165  0.3746  0.3156
   28SAPC   H9R 3729   5.983   1.404   7.407  1.0860  0.4376  1.0670
   28SAPC  C210 3730   6.078   1.591   7.476  0.0537  0.1708  0.1598
   28SAPC  H10R 3731   6.077   1.541   7.575 -1.9497 -1.8490 -0.7870
   28SAPC  H10S 3732   6.045   1.696   7.488  1.2936  1.0660 -3.2364
   28SAPC  C211 3733   6.217   1.605   7.419  0.3963 -0.4179  0.0770
   28SAPC  H11R 3734   6.234   1.703   7.371 -2.3423  0.7363  1.2346
   28SAPC  C212 3735   6.320   1.521   7.438 -0.8147  0.4387 -0.7671
   28SAPC  H12R 3736   6.412   1.550   7.386 -1.1062  3.6502  0.3154
   28SAPC  C213 3737   6.323   1.392   7.521  0.6779 -0.1481  0.2731
   28SAPC  H13R 3738   6.406   1.322   7.496 -0.3369 -1.0186 -0.7475
   28SAPC  H13S 3739   6.227   1.339   7.509  0.9690 -1.0771  1.8200
   28SAPC  C214 3740   6.321   1.427   7.665 -0.2549  0.3983  0.4205
   28SAPC  H14R 3741   6.236   1.490   7.695 -0.4287 -0.6708  2.3346
   28SAPC  C215 3742   6.396   1.395   7.773 -0.4076  0.5345 -0.0984
   28SAPC  H15R 3743   6.358   1.412   7.875 -2.3548  0.8949 -0.8399
   28SAPC  C216 3744   6.520   1.310   7.776  0.0876  0.6254  0.4267
   28SAPC  H16R 3745   6.591   1.358   7.846 -0.7785  1.6546  0.6230
   28SAPC  H16S 3746   6.592   1.300   7.692  0.5686  0.8311  0.8157
   28SAPC  C217 3747   6.487   1.167   7.830 -0.1200 -0.2098  0.2656
   28SAPC  H17R 3748   6.577   1.103   7.817  0.8931  1.1663  0.2667
   28SAPC  H17S 3749   6.416   1.113   7.763 -0.9959  0.4691  0.6216
   28SAPC  C218 3750   6.429   1.158   7.971  0.4673 -0.1587  0.0230
   28SAPC  H18R 3751   6.419   1.052   8.002 -1.3010 -0.5798 -1.8323
   28SAPC  H18S 3752   6.325   1.194   7.959 -0.7526 -2.5710  2.5092
   28SAPC  C219 3753   6.507   1.225   8.080 -0.4174 -0.5977  0.1222
   28SAPC  H19R 3754   6.515   1.334   8.063  0.4734 -0.7553 -0.5901
   28SAPC  H19S 3755   6.610   1.187   8.062 -0.1640 -0.2937  0.8930
   28SAPC  C220 3756   6.448   1.207   8.220  0.0396 -0.4844 -0.2402
   28SAPC  H20R 3757   6.524   1.257   8.284 -0.2151  1.3648 -1.2879
   28SAPC  H20S 3758   6.444   1.100   8.246 -2.0022 -0.3461  0.1838
   28SAPC  H20T 3759   6.345   1.244   8.233 -0.1865 -0.0571 -2.6792
   28SAPC   C33 3760   5.994   0.843   7.244 -0.0693 -0.0281 -0.1042
   28SAPC   H3X 3761   6.025   0.739   7.221 -1.4492 -0.0978 -1.7843
   28SAPC   H3Y 3762   5.884   0.848   7.231 -0.1576  1.4689  1.0011
   28SAPC   C34 3763   6.012   0.893   7.388  0.2588 -0.0937  0.4030
   28SAPC   H4X 3764   5.961   0.991   7.397 -1.8335 -0.7581 -2.6364
   28SAPC   H4Y 3765   6.120   0.912   7.405 -0.3281  1.1350  3.3836
   28SAPC   C35 3766   5.964   0.783   7.486  0.3761 -0.3458  0.7267
   28SAPC   H5X 3767   6.030   0.695   7.503 -0.1086 -0.5960  1.3637
   28SAPC   H5Y 3768   5.860   0.755   7.459 -0.8744  1.8978  2.7946
   28SAPC   C36 3769   5.957   0.835   7.635  0.6424 -0.3136 -0.2638
   28SAPC   H6X 3770   5.915   0.936   7.654 -0.4841 -0.8262  0.0263
   28SAPC   H6Y 3771   6.060   0.829   7.675  1.0275 -1.0200 -1.3141
   28SAPC   C37 3772   5.865   0.743   7.728 -0.3321  0.3283 -0.0602
   28SAPC   H7X 3773   5.889   0.634   7.726 -0.3615  0.2529  1.8036
   28SAPC   H7Y 3774   5.760   0.756   7.694 -0.1528 -0.5503 -1.0062
   28SAPC   C38 3775   5.871   0.796   7.869  0.0541 -0.3823 -0.4554
   28SAPC   H8X 3776   5.855   0.905   7.856 -1.5631 -0.6312 -0.8176
   28SAPC   H8Y 3777   5.973   0.772   7.905  0.5528 -0.8497 -2.1129
   28SAPC   C39 3778   5.753   0.741   7.959 -0.6046 -0.6276  0.1214
   28SAPC   H9X 3779   5.653   0.765   7.917 -0.7593 -2.8477 -0.9398
   28SAPC   H9Y 3780   5.752   0.790   8.059  0.8921 -1.9018  0.8009
   28SAPC  C310 3781   5.749   0.582   7.974 -0.1944 -0.5506 -0.2726
   28SAPC  H10X 3782   5.827   0.545   8.044 -1.1902 -1.8037  0.2177
   28SAPC  H10Y 3783   5.757   0.528   7.878  1.8061  0.4785 -0.7313
   28SAPC  C311 3784   5.611   0.553   8.040 -0.3106 -0.0131 -0.0370
   28SAPC  H11X 3785   5.581   0.447   8.027 -4.0062  0.5574  2.3669
   28SAPC  H11Y 3786   5.538   0.631   8.009  1.9314  2.0770 -0.4584
   28SAPC  C312 3787   5.606   0.564   8.199  0.0916 -0.1599  0.2791
   28SAPC  H12X 3788   5.617   0.674   8.216 -1.3307 -0.1652  1.4448
   28SAPC  H12Y 3789   5.689   0.514   8.252  0.8681 -0.6549 -1.3568
   28SAPC  C313 3790   5.478   0.521   8.256 -0.3964 -0.3287 -0.1754
   28SAPC  H13X 3791   5.475   0.409   8.255  1.6053 -0.4324  0.5726
   28SAPC  H13Y 3792   5.390   0.569   8.208 -0.4235  0.9844  1.1539
   28SAPC  C314 3793   5.478   0.571   8.397  0.2309  0.0123 -0.0907
   28SAPC  H14X 3794   5.446   0.677   8.386 -0.3716 -0.3645 -2.4996
   28SAPC  H14Y 3795   5.579   0.558   8.442 -0.1878  1.6296  1.4342
   28SAPC  C315 3796   5.369   0.501   8.493  0.3873 -0.8241  0.1061
   28SAPC  H15X 3797   5.393   0.394   8.478  0.7103 -0.8344  0.7012
   28SAPC  H15Y 3798   5.266   0.525   8.457 -0.1231 -0.2122  1.8840
   28SAPC  C316 3799   5.383   0.550   8.639  0.5112  0.1504 -0.4225
   28SAPC  H16X 3800   5.370   0.661   8.642 -0.9258 -0.0070  0.0405
   28SAPC  H16Y 3801   5.487   0.550   8.678  0.0198  1.6499  1.0104
   28SAPC  C317 3802   5.298   0.479   8.740  0.5821  0.5935  0.5363
   28SAPC  H17X 3803   5.334   0.489   8.844 -0.1487  0.2021  0.8266
   28SAPC  H17Y 3804   5.317   0.375   8.703  2.7930  1.0285  0.2904
   28SAPC  C318 3805   5.153   0.533   8.729  0.0370  0.2707 -0.0244
   28SAPC  H18X 3806   5.135   0.562   8.624 -0.6879 -0.3681 -0.0793
   28SAPC  H18Y 3807   5.127   0.622   8.791  0.1535  0.4305 -0.2022
   28SAPC  H18Z 3808   5.080   0.454   8.755  2.0546 -1.4355  0.6994
   29SAPC     N 3809   4.605   6.605   6.181 -0.9019 -0.6697  0.3133
   29SAPC   C12 3810   4.584   6.751   6.168  0.0873 -0.3846 -0.1692
   29SAPC  H12A 3811   4.485   6.786   6.194  0.0416  0.3784 -1.2890
   29SAPC  H12B 3812   4.579   6.777   6.063 -1.4212  0.0902  0.0002
   29SAPC   C13 3813   4.620   6.555   6.321 -0.4241  0.0395  0.5824
   29SAPC  H13A 3814   4.534   6.591   6.376 -0.4727  1.3825 -0.3401
   29SAPC  H13B 3815   4.628   6.447   6.324 -1.5946 -0.2410 -2.6747
   29SAPC  H13C 3816   4.702   6.607   6.367 -0.9705  1.8888 -0.4345
   29SAPC   C14 3817   4.482   6.536   6.115 -0.1007  0.0254 -0.2580
   29SAPC  H14A 3818   4.495   6.429   6.123 -1.1093 -0.1519 -0.8015
   29SAPC  H14B 3819   4.389   6.555   6.167 -0.7321  1.5393 -1.8299
   29SAPC  H14C 3820   4.468   6.557   6.010 -3.6067  0.0870  0.1126
   29SAPC   C15 3821   4.734   6.571   6.111 -0.0924  0.8048 -0.5467
   29SAPC  H15A 3822   4.758   6.466   6.102  0.8794  0.8845  0.7928
   29SAPC  H15B 3823   4.722   6.593   6.006  1.0102 -2.2370 -1.4224
   29SAPC  H15C 3824   4.813   6.632   6.152 -1.2593  3.0057 -1.3928
   29SAPC   C11 3825   4.694   6.836   6.253 -0.5037  0.2678 -0.3664
   29SAPC  H11A 3826   4.798   6.801   6.234 -0.8627 -3.3112  3.0243
   29SAPC  H11B 3827   4.684   6.827   6.363 -0.3670  0.5179 -0.3309
   29SAPC     P 3828   4.566   7.058   6.267  0.0775  0.1319 -0.7343
   29SAPC   O13 3829   4.574   7.186   6.183 -0.1132  0.7482 -0.6782
   29SAPC   O14 3830   4.440   6.980   6.268 -0.1765  0.2574  0.3452
   29SAPC   O12 3831   4.679   6.966   6.205 -0.3184 -0.5488  0.5826
   29SAPC   O11 3832   4.621   7.088   6.412  0.1379  0.0825 -0.5571
   29SAPC    C1 3833   4.547   7.024   6.521 -0.1649  0.6580  0.7428
   29SAPC    HA 3834   4.525   6.917   6.502 -1.0832  0.9602  0.0615
   29SAPC    HB 3835   4.614   7.027   6.610 -2.2566  0.1485  2.4072
   29SAPC    C2 3836   4.415   7.089   6.558 -0.1597 -0.8561 -0.3109
   29SAPC    HS 3837   4.366   7.109   6.461 -1.8507  0.2308  0.7200
   29SAPC   O21 3838   4.440   7.203   6.636 -0.0933 -0.1834 -0.0219
   29SAPC   C21 3839   4.338   7.270   6.682 -0.2621 -0.1903 -0.0499
   29SAPC   O22 3840   4.220   7.266   6.649  0.1022  0.1994 -0.3195
   29SAPC   C22 3841   4.391   7.382   6.771  0.6091 -0.6026  0.0122
   29SAPC   H2R 3842   4.500   7.361   6.784  1.2799  2.2062 -0.4958
   29SAPC   H2S 3843   4.387   7.467   6.701 -0.6144 -1.8185 -1.4583
   29SAPC    C3 3844   4.316   6.986   6.622 -0.4857  0.2263  0.1267
   29SAPC    HX 3845   4.321   6.889   6.568 -3.5054 -1.2654  2.2282
   29SAPC    HY 3846   4.219   7.036   6.604  1.1329  3.0173 -1.6588
   29SAPC   O31 3847   4.340   6.971   6.760 -0.0068 -0.2426 -0.2414
   29SAPC   C31 3848   4.400   6.862   6.805  0.0505  0.1432  0.4907
   29SAPC   O32 3849   4.417   6.763   6.737 -0.4220 -0.0464 -0.0588
   29SAPC   C32 3850   4.434   6.880   6.951 -0.5871 -0.5158  0.7846
   29SAPC   H2X 3851   4.349   6.845   7.013 -1.6937  1.7512  0.6349
   29SAPC   H2Y 3852   4.448   6.989   6.968  1.3890 -0.5692 -0.1774
   29SAPC   C23 3853   4.307   7.429   6.898  0.1871  0.4188  0.3760
   29SAPC   H3R 3854   4.203   7.427   6.861  0.8523  1.3383 -1.7009
   29SAPC   H3S 3855   4.340   7.532   6.926  0.3434  0.2309  0.8916
   29SAPC   C24 3856   4.320   7.341   7.022  0.1797  0.1659 -0.1248
   29SAPC   H4R 3857   4.424   7.347   7.061 -0.6511  4.4699  1.9831
   29SAPC   H4S 3858   4.305   7.235   6.989 -1.2062 -0.2074  1.5619
   29SAPC   C25 3859   4.217   7.383   7.127  0.0432  0.4802 -0.6334
   29SAPC   H5R 3860   4.111   7.375   7.099  0.3582  0.1699 -1.7450
   29SAPC   C26 3861   4.250   7.440   7.243 -0.3703 -0.1451  0.2837
   29SAPC   H6R 3862   4.172   7.457   7.319  1.2588  0.2736  1.9404
   29SAPC   C27 3863   4.386   7.472   7.300 -0.5564  0.2242  0.2482
   29SAPC   H7R 3864   4.468   7.491   7.228 -0.2413  0.7013  0.7268
   29SAPC   H7S 3865   4.418   7.385   7.362 -4.2163 -1.5663 -0.1093
   29SAPC   C28 3866   4.380   7.597   7.384 -0.3507 -0.0609 -0.8696
   29SAPC   H8R 3867   4.296   7.666   7.367  0.6427  1.3180 -0.3754
   29SAPC   C29 3868   4.471   7.630   7.482  0.7591  0.2154  0.4629
   29SAPC   H9R 3869   4.462   7.731   7.527  3.5976  0.8225 -0.1502
   29SAPC  C210 3870   4.592   7.552   7.523 -0.2370  0.1074 -0.4878
   29SAPC  H10R 3871   4.669   7.539   7.443  0.0230  1.2432 -0.4361
   29SAPC  H10S 3872   4.559   7.451   7.556 -0.2950  0.7240  1.3995
   29SAPC  C211 3873   4.679   7.620   7.632  0.4202 -0.1863  0.1599
   29SAPC  H11R 3874   4.751   7.692   7.589  0.0243  1.4195  2.0414
   29SAPC  C212 3875   4.690   7.605   7.764 -1.0425 -0.2656  0.4584
   29SAPC  H12R 3876   4.751   7.679   7.817  0.1084 -1.0083  0.2002
   29SAPC  C213 3877   4.619   7.510   7.843 -0.0943 -0.1609  0.2590
   29SAPC  H13R 3878   4.652   7.409   7.813  1.7666  0.5195 -0.1346
   29SAPC  H13S 3879   4.514   7.521   7.810  0.0783  3.2474  0.4727
   29SAPC  C214 3880   4.625   7.522   7.990 -0.9209  0.9854 -0.2161
   29SAPC  H14R 3881   4.668   7.435   8.041 -0.8585  0.9665 -0.3015
   29SAPC  C215 3882   4.592   7.629   8.068 -0.4944 -0.1610  0.6623
   29SAPC  H15R 3883   4.604   7.617   8.177  0.2352 -1.6947  0.4451
   29SAPC  C216 3884   4.535   7.758   8.009  0.5039  0.7427  0.2565
   29SAPC  H16R 3885   4.501   7.740   7.905  1.1718  0.3357  0.1042
   29SAPC  H16S 3886   4.607   7.842   8.014  0.2666  1.1054 -1.6810
   29SAPC  C217 3887   4.408   7.792   8.089 -0.2618  0.3568  0.3335
   29SAPC  H17R 3888   4.447   7.797   8.193  0.5222 -3.3615  0.3551
   29SAPC  H17S 3889   4.337   7.707   8.081  1.1796 -0.7335 -1.8194
   29SAPC  C218 3890   4.334   7.924   8.043  0.1151  0.3947 -0.2977
   29SAPC  H18R 3891   4.307   7.902   7.938 -0.4464 -0.3670 -0.0040
   29SAPC  H18S 3892   4.404   8.010   8.054  0.1666  0.6282 -2.1563
   29SAPC  C219 3893   4.218   7.967   8.138 -0.7049  0.2358 -0.0795
   29SAPC  H19R 3894   4.133   7.896   8.134 -0.3849 -0.3274  1.8899
   29SAPC  H19S 3895   4.175   8.058   8.092 -1.3919  1.2069  2.3338
   29SAPC  C220 3896   4.243   7.990   8.286  0.8097  0.1173 -0.3402
   29SAPC  H20R 3897   4.256   7.887   8.327 -0.1564 -0.0280 -0.3632
   29SAPC  H20S 3898   4.152   8.036   8.329  0.7477  0.3450 -0.7056
   29SAPC  H20T 3899   4.327   8.060   8.302 -0.9422  1.8471  1.8004
   29SAPC   C33 3900   4.565   6.809   6.984  0.0814  0.4184 -0.0455
   29SAPC   H3X 3901   4.654   6.857   6.939  0.3416  0.9406  0.9741
   29SAPC   H3Y 3902   4.568   6.703   6.951 -1.8301  0.1184  0.5829
   29SAPC   C34 3903   4.573   6.808   7.136 -0.6877 -0.2808 -0.3120
   29SAPC   H4X 3904   4.487   6.757   7.184  0.1853 -0.0471  1.5686
   29SAPC   H4Y 3905   4.574   6.915   7.167  1.0885 -0.3286 -0.0927
   29SAPC   C35 3906   4.696   6.748   7.190 -0.3324  0.3765  0.0944
   29SAPC   H5X 3907   4.789   6.784   7.141  0.5738  0.5658  1.8817
   29SAPC   H5Y 3908   4.706   6.638   7.188 -0.1613  0.3188  2.0064
   29SAPC   C36 3909   4.707   6.788   7.336 -0.3383 -0.3933  0.1090
   29SAPC   H6X 3910   4.696   6.899   7.332  0.4332 -0.3038  0.2909
   29SAPC   H6Y 3911   4.811   6.769   7.370  0.7493  2.0214 -1.5284
   29SAPC   C37 3912   4.609   6.714   7.424  0.2234 -0.1471  0.4026
   29SAPC   H7X 3913   4.612   6.604   7.410 -1.9395 -0.4185  1.5677
   29SAPC   H7Y 3914   4.506   6.741   7.392  0.2251 -0.2156  0.3419
   29SAPC   C38 3915   4.629   6.750   7.571  0.1391  0.2071  0.1161
   29SAPC   H8X 3916   4.607   6.858   7.584  0.7953  0.3670 -0.0773
   29SAPC   H8Y 3917   4.737   6.734   7.592  0.9509  0.7019 -3.1547
   29SAPC   C39 3918   4.540   6.681   7.675  0.1737 -0.1608 -0.3437
   29SAPC   H9X 3919   4.556   6.573   7.656 -0.9371 -0.2632 -0.8285
   29SAPC   H9Y 3920   4.431   6.697   7.658  0.4490  0.0958 -2.1501
   29SAPC  C310 3921   4.571   6.725   7.817  0.6552  0.7018  0.7033
   29SAPC  H10X 3922   4.535   6.828   7.840 -3.1943 -0.0777 -1.0623
   29SAPC  H10Y 3923   4.681   6.740   7.820  0.9962 -1.5189  0.9519
   29SAPC  C311 3924   4.518   6.616   7.914 -0.3945  0.4203 -0.0826
   29SAPC  H11X 3925   4.575   6.524   7.889  0.9303  0.4773  2.4053
   29SAPC  H11Y 3926   4.409   6.599   7.907 -0.5493 -0.2924  2.6996
   29SAPC  C312 3927   4.536   6.644   8.064  0.0856 -0.0389 -0.7556
   29SAPC  H12X 3928   4.504   6.750   8.071  0.7618  0.1292  0.0279
   29SAPC  H12Y 3929   4.642   6.646   8.100 -0.6940 -1.3299  1.8976
   29SAPC  C313 3930   4.447   6.551   8.153 -0.1570 -0.1727  0.3354
   29SAPC  H13X 3931   4.452   6.451   8.105 -1.3275  0.3132 -0.8811
   29SAPC  H13Y 3932   4.341   6.584   8.142 -0.1578  0.2667  1.5507
   29SAPC  C314 3933   4.460   6.549   8.302  0.3653 -0.3552  0.1248
   29SAPC  H14X 3934   4.553   6.496   8.333  0.4915 -1.3889 -1.8245
   29SAPC  H14Y 3935   4.382   6.478   8.338 -1.5664  0.3638 -2.3588
   29SAPC  C315 3936   4.439   6.686   8.368  0.7644  0.5971 -0.0018
   29SAPC  H15X 3937   4.372   6.748   8.304  0.7895  0.2754 -0.3386
   29SAPC  H15Y 3938   4.538   6.736   8.369  1.1485 -0.0798  2.0746
   29SAPC  C316 3939   4.387   6.677   8.512  0.5087 -0.3549 -0.4613
   29SAPC  H16X 3940   4.454   6.609   8.569  0.3568  0.7297  1.0744
   29SAPC  H16Y 3941   4.284   6.636   8.502  1.0391 -1.5493 -1.2692
   29SAPC  C317 3942   4.387   6.815   8.588 -0.0364  1.1530  0.1245
   29SAPC  H17X 3943   4.493   6.839   8.615  1.1087 -2.0990 -1.0723
   29SAPC  H17Y 3944   4.338   6.803   8.687  1.0327 -1.5481  0.4037
   29SAPC  C318 3945   4.314   6.924   8.515  0.3395  0.6614  0.2094
   29SAPC  H18X 3946   4.205   6.902   8.509  0.0628  2.0651 -0.3213
   29SAPC  H18Y 3947   4.350   6.937   8.411  1.5267 -2.5236  0.1285
   29SAPC  H18Z 3948   4.327   7.018   8.574  1.7148  0.3722  0.4031
   30SAPC     N 3949   0.395   4.458   5.776 -0.1288  0.6340  0.8385
   30SAPC   C12 3950   0.264   4.498   5.840  0.1117 -0.0456  0.1272
   30SAPC  H12A 3951   0.271   4.498   5.948  0.5889 -0.6536  0.0993
   30SAPC  H12B 3952   0.182   4.428   5.837  0.0116  0.0111  1.2441
   30SAPC   C13 3953   0.412   4.313   5.802 -0.1310  0.0436 -0.5293
   30SAPC  H13A 3954   0.494   4.277   5.741 -1.5905 -1.3122 -1.7788
   30SAPC  H13B 3955   0.434   4.289   5.905  2.0035 -1.0764 -1.1857
   30SAPC  H13C 3956   0.323   4.259   5.775 -1.0943  0.1260  2.2106
   30SAPC   C14 3957   0.391   4.466   5.615  0.0421 -0.2878 -0.0671
   30SAPC  H14A 3958   0.388   4.571   5.591  3.4743  0.0692  0.4560
   30SAPC  H14B 3959   0.476   4.427   5.560 -0.0583  1.8802 -1.8961
   30SAPC  H14C 3960   0.299   4.414   5.595  0.1500 -1.4153  2.0538
   30SAPC   C15 3961   0.506   4.538   5.831  0.2970 -0.7118  0.9772
   30SAPC  H15A 3962   0.474   4.642   5.832  0.9434 -0.4575  3.6753
   30SAPC  H15B 3963   0.507   4.526   5.939  2.5651 -0.8905  0.9859
   30SAPC  H15C 3964   0.607   4.533   5.793  0.7247  0.6436  1.8411
   30SAPC   C11 3965   0.208   4.638   5.802  0.7932  0.3903 -0.1976
   30SAPC  H11A 3966   0.107   4.639   5.848  1.2665 -1.1632  0.9500
   30SAPC  H11B 3967   0.186   4.652   5.694 -0.5368  1.8307  0.2240
   30SAPC     P 3968   0.292   4.826   5.970  0.5815  0.2609  0.4801
   30SAPC   O13 3969   0.422   4.890   5.993 -0.3671 -0.6292  0.3871
   30SAPC   O14 3970   0.175   4.915   5.957 -0.5574  0.1885  0.0813
   30SAPC   O12 3971   0.298   4.749   5.835 -0.2882 -0.3078 -0.6428
   30SAPC   O11 3972   0.258   4.718   6.071  0.0696 -0.1872  0.2818
   30SAPC    C1 3973   0.150   4.720   6.160 -0.6734 -0.2521 -0.2686
   30SAPC    HA 3974   0.054   4.744   6.109 -1.5190 -0.9908  0.9316
   30SAPC    HB 3975   0.134   4.616   6.196 -1.2905 -0.5190 -1.2554
   30SAPC    C2 3976   0.183   4.813   6.278  0.6601 -0.5407  0.7810
   30SAPC    HS 3977   0.193   4.918   6.243 -0.4045 -0.6747  0.0274
   30SAPC   O21 3978   0.311   4.767   6.327  0.4604  0.1157 -0.0181
   30SAPC   C21 3979   0.379   4.865   6.398 -0.4512  0.7496  0.0526
   30SAPC   O22 3980   0.354   4.982   6.405  1.0335  0.3790 -0.3990
   30SAPC   C22 3981   0.501   4.790   6.465 -0.0706 -0.7456 -0.3682
   30SAPC   H2R 3982   0.475   4.683   6.481 -0.4308 -0.6138 -0.0443
   30SAPC   H2S 3983   0.581   4.799   6.389  0.2144  0.6807  0.0671
   30SAPC    C3 3984   0.072   4.819   6.385  0.5447  0.1578 -0.6317
   30SAPC    HX 3985  -0.021   4.848   6.331  1.2208  3.2792 -0.2721
   30SAPC    HY 3986   0.098   4.893   6.463 -1.8978  0.3636  0.0470
   30SAPC   O31 3987   0.056   4.688   6.438 -0.3282 -0.2046 -0.3373
   30SAPC   C31 3988  -0.057   4.665   6.503 -0.4471 -0.3358  0.0574
   30SAPC   O32 3989  -0.149   4.746   6.508 -0.3545  0.0488 -0.0373
   30SAPC   C32 3990  -0.051   4.534   6.587  0.3598  0.2483 -0.4236
   30SAPC   H2X 3991  -0.006   4.453   6.526 -2.1641 -1.2853 -0.3986
   30SAPC   H2Y 3992  -0.157   4.504   6.602 -0.2190  2.0126 -0.6866
   30SAPC   C23 3993   0.563   4.867   6.586 -0.3920 -0.0245 -0.5251
   30SAPC   H3R 3994   0.594   4.964   6.541  1.4714 -1.4500 -2.4842
   30SAPC   H3S 3995   0.654   4.815   6.622 -0.2983  0.7409  0.3996
   30SAPC   C24 3996   0.479   4.890   6.702  0.1836 -0.5292  0.3908
   30SAPC   H4R 3997   0.411   4.970   6.666 -0.1144  0.0830  2.2442
   30SAPC   H4S 3998   0.552   4.921   6.779 -0.1639  1.4578 -0.0213
   30SAPC   C25 3999   0.385   4.777   6.736 -0.4180 -0.0446  0.2568
   30SAPC   H5R 4000   0.316   4.737   6.660  0.4804  1.0457 -1.1927
   30SAPC   C26 4001   0.383   4.716   6.859  0.4511 -0.1742  0.4255
   30SAPC   H6R 4002   0.306   4.641   6.883 -0.0783  0.4388  0.6551
   30SAPC   C27 4003   0.464   4.748   6.981 -0.0226 -0.7420  0.0081
   30SAPC   H7R 4004   0.429   4.694   7.072  1.2739  1.9768  2.2757
   30SAPC   H7S 4005   0.456   4.853   7.016 -0.3495  0.0672 -2.3740
   30SAPC   C28 4006   0.608   4.704   6.962  0.1064  0.2695 -0.2842
   30SAPC   H8R 4007   0.631   4.672   6.859 -1.8728 -1.8001 -0.1492
   30SAPC   C29 4008   0.699   4.689   7.066 -0.1385 -0.4677  0.1329
   30SAPC   H9R 4009   0.800   4.651   7.045 -0.2206 -0.5167 -0.1806
   30SAPC  C210 4010   0.669   4.714   7.210 -0.0233  0.5742 -0.4404
   30SAPC  H10R 4011   0.565   4.753   7.217  0.1135  1.0875 -1.2377
   30SAPC  H10S 4012   0.738   4.789   7.254 -1.9573  2.0550  0.2018
   30SAPC  C211 4013   0.695   4.593   7.303 -0.3505 -0.1256  0.7820
   30SAPC  H11R 4014   0.788   4.534   7.294 -0.4051 -0.2892  1.2334
   30SAPC  C212 4015   0.628   4.561   7.409 -0.3509 -0.0676 -0.4571
   30SAPC  H12R 4016   0.678   4.492   7.479  0.3883  0.4269 -0.4880
   30SAPC  C213 4017   0.508   4.620   7.473 -0.0675 -0.2239 -0.0897
   30SAPC  H13R 4018   0.474   4.706   7.412  1.1628 -1.8089 -3.2280
   30SAPC  H13S 4019   0.545   4.659   7.570  1.6250 -2.4550  0.2393
   30SAPC  C214 4020   0.392   4.513   7.498 -0.4624  0.3164 -0.8707
   30SAPC  H14R 4021   0.365   4.455   7.409  0.5949 -1.1397 -0.2691
   30SAPC  C215 4022   0.332   4.493   7.621  0.2793  0.3272 -0.0352
   30SAPC  H15R 4023   0.243   4.427   7.620  1.2220 -0.9890  0.4268
   30SAPC  C216 4024   0.357   4.563   7.754  0.0201 -0.1686 -0.0853
   30SAPC  H16R 4025   0.263   4.609   7.789  0.5842  2.2107 -1.4944
   30SAPC  H16S 4026   0.422   4.653   7.749 -0.7085  0.5346  2.1143
   30SAPC  C217 4027   0.432   4.478   7.850  0.3540 -0.3475  0.4989
   30SAPC  H17R 4028   0.541   4.479   7.831  0.1454  2.9181 -1.2831
   30SAPC  H17S 4029   0.392   4.375   7.840 -1.1689  0.4454 -3.6499
   30SAPC  C218 4030   0.411   4.525   8.001  0.5437  0.3802 -0.2351
   30SAPC  H18R 4031   0.423   4.636   8.002 -1.9990  0.7182 -1.0139
   30SAPC  H18S 4032   0.487   4.478   8.067 -0.2286  0.7907  0.9661
   30SAPC  C219 4033   0.276   4.487   8.072 -0.1401  0.4773  0.0055
   30SAPC  H19R 4034   0.278   4.380   8.101 -1.9889  0.1697 -0.8741
   30SAPC  H19S 4035   0.198   4.498   7.994 -0.5738 -0.8096  0.2382
   30SAPC  C220 4036   0.250   4.576   8.191  0.0564  0.7769 -0.3821
   30SAPC  H20R 4037   0.343   4.566   8.251  1.1435 -0.0571 -2.0894
   30SAPC  H20S 4038   0.157   4.554   8.247  1.0746 -0.7513  0.7845
   30SAPC  H20T 4039   0.246   4.678   8.148  1.7388  0.1300 -2.2519
   30SAPC   C33 4040   0.020   4.548   6.731 -0.2083  0.5735 -0.0078
   30SAPC   H3X 4041   0.097   4.627   6.720 -0.4899  0.6915 -1.3148
   30SAPC   H3Y 4042   0.083   4.460   6.752 -2.2807 -0.6527  1.4742
   30SAPC   C34 4043  -0.077   4.582   6.851  0.0288 -0.3511  0.3029
   30SAPC   H4X 4044  -0.158   4.506   6.860 -1.1544  1.0743  2.3652
   30SAPC   H4Y 4045  -0.130   4.678   6.832  1.7048  0.3725 -0.9964
   30SAPC   C35 4046  -0.013   4.587   6.988 -0.1862 -0.5070  0.0419
   30SAPC   H5X 4047   0.062   4.669   6.986 -1.5090  0.7954  1.3949
   30SAPC   H5Y 4048   0.036   4.488   7.000  0.7856  0.0843  1.2226
   30SAPC   C36 4049  -0.118   4.614   7.090  0.6485  0.2143  0.7329
   30SAPC   H6X 4050  -0.190   4.529   7.089  2.8208 -1.7442  1.6340
   30SAPC   H6Y 4051  -0.169   4.707   7.055  0.1470 -1.3524 -3.1811
   30SAPC   C37 4052  -0.076   4.628   7.240  0.3705  0.1575 -0.5607
   30SAPC   H7X 4053  -0.012   4.542   7.272  2.1743  2.1470  1.6157
   30SAPC   H7Y 4054  -0.169   4.617   7.299  2.3871 -3.4228  2.3861
   30SAPC   C38 4055  -0.016   4.763   7.270  1.2256  0.3346 -0.7770
   30SAPC   H8X 4056  -0.095   4.837   7.295  0.6527 -0.9347  1.4613
   30SAPC   H8Y 4057   0.051   4.805   7.193 -0.7518  1.4057 -2.0163
   30SAPC   C39 4058   0.077   4.757   7.390 -0.0846  0.0570 -0.8751
   30SAPC   H9X 4059   0.142   4.847   7.378  2.1428 -1.1952  1.0673
   30SAPC   H9Y 4060   0.151   4.674   7.392 -0.2642 -0.1342 -1.8718
   30SAPC  C310 4061  -0.007   4.759   7.521 -0.1372 -0.1193 -0.0272
   30SAPC  H10X 4062  -0.108   4.803   7.505  0.7463  2.0481 -0.0035
   30SAPC  H10Y 4063   0.037   4.831   7.594 -0.2722  0.6400 -0.6816
   30SAPC  C311 4064  -0.019   4.630   7.601 -0.0749  0.8775  0.0669
   30SAPC  H11X 4065   0.080   4.587   7.627 -0.5766  0.7912  2.0135
   30SAPC  H11Y 4066  -0.063   4.556   7.531  0.5372  0.5795 -0.0006
   30SAPC  C312 4067  -0.096   4.642   7.733 -0.2987 -0.3291  0.0482
   30SAPC  H12X 4068  -0.206   4.652   7.723 -0.7867 -3.0191  1.5723
   30SAPC  H12Y 4069  -0.069   4.736   7.786 -0.2613  0.6474 -1.6368
   30SAPC  C313 4070  -0.077   4.518   7.835 -0.3934 -0.3743  0.2710
   30SAPC  H13X 4071   0.030   4.499   7.859 -0.3516 -0.7581 -0.2111
   30SAPC  H13Y 4072  -0.110   4.428   7.778 -0.8411  0.8427 -1.4531
   30SAPC  C314 4073  -0.148   4.537   7.972 -0.4803  1.0912 -0.0119
   30SAPC  H14X 4074  -0.134   4.642   8.007 -0.9014  1.4734 -0.9756
   30SAPC  H14Y 4075  -0.102   4.472   8.050  1.4143  0.7566 -1.3533
   30SAPC  C315 4076  -0.300   4.505   7.973 -0.2490 -0.5100 -0.9980
   30SAPC  H15X 4077  -0.305   4.397   7.948  2.6931 -1.3658  1.5092
   30SAPC  H15Y 4078  -0.353   4.578   7.908 -1.0597  1.8297  2.0396
   30SAPC  C316 4079  -0.365   4.530   8.109  0.0653  0.0156  0.1029
   30SAPC  H16X 4080  -0.330   4.625   8.155  0.0144  0.2911 -0.4222
   30SAPC  H16Y 4081  -0.334   4.457   8.187  1.7060  0.6807  0.1035
   30SAPC  C317 4082  -0.516   4.545   8.094  0.5089  0.5181  0.0687
   30SAPC  H17X 4083  -0.552   4.465   8.026 -0.0261  1.3362 -0.6398
   30SAPC  H17Y 4084  -0.537   4.646   8.052 -0.7245  0.9074  1.5543
   30SAPC  C318 4085  -0.592   4.516   8.226 -0.3826  0.0798  1.0823
   30SAPC  H18X 4086  -0.554   4.591   8.299 -1.0919  2.0493 -0.4856
   30SAPC  H18Y 4087  -0.559   4.415   8.261  1.6964  0.5534  0.6410
   30SAPC  H18Z 4088  -0.702   4.526   8.222 -0.3976 -0.3360  0.2568
   31SAPC     N 4089   2.072   6.247   6.407  0.2371  0.3472  0.4102
   31SAPC   C12 4090   1.964   6.142   6.412 -0.5416 -0.8931 -0.1506
   31SAPC  H12A 4091   1.999   6.057   6.356 -0.6938 -1.0344 -0.0314
   31SAPC  H12B 4092   1.872   6.180   6.368 -1.5107  0.3868  2.7228
   31SAPC   C13 4093   2.198   6.200   6.478  0.3027  0.0984 -0.2414
   31SAPC  H13A 4094   2.266   6.284   6.475 -3.2627  3.3232  1.2556
   31SAPC  H13B 4095   2.172   6.182   6.581  2.5728 -3.1787 -0.0953
   31SAPC  H13C 4096   2.242   6.113   6.432  2.8293  0.7588  0.7303
   31SAPC   C14 4097   2.113   6.279   6.262 -0.2963 -0.0318  0.8481
   31SAPC  H14A 4098   2.158   6.201   6.202  1.7014  1.4078  0.3889
   31SAPC  H14B 4099   2.019   6.299   6.212  0.2050 -1.0269 -0.5613
   31SAPC  H14C 4100   2.178   6.365   6.259  0.9261 -0.8957  1.4746
   31SAPC   C15 4101   2.035   6.381   6.478 -0.2445  0.1849  0.2528
   31SAPC  H15A 4102   1.942   6.425   6.444  0.9290  1.8024 -0.9835
   31SAPC  H15B 4103   2.042   6.369   6.585 -0.1830 -4.0698 -0.0280
   31SAPC  H15C 4104   2.114   6.451   6.457  1.3503 -0.6474  3.0860
   31SAPC   C11 4105   1.917   6.086   6.546  0.4127  0.6843  0.1185
   31SAPC  H11A 4106   1.820   6.035   6.528  1.1057 -0.9308  0.7649
   31SAPC  H11B 4107   1.890   6.170   6.615  1.3509  0.1538  1.1599
   31SAPC     P 4108   2.079   5.875   6.556 -0.1835  0.4236  0.1135
   31SAPC   O13 4109   2.047   5.753   6.629  0.0585 -0.7802 -0.7047
   31SAPC   O14 4110   2.066   5.874   6.406  0.6352  0.3588  0.2245
   31SAPC   O12 4111   1.994   5.991   6.614  0.1173 -0.3641 -0.2160
   31SAPC   O11 4112   2.219   5.930   6.588  0.3086  0.1371 -0.4581
   31SAPC    C1 4113   2.244   5.965   6.725 -0.6018 -0.0810  0.3021
   31SAPC    HA 4114   2.217   6.072   6.739  2.0418  0.6411  0.3574
   31SAPC    HB 4115   2.181   5.911   6.799 -0.1751  1.1785  1.6306
   31SAPC    C2 4116   2.393   5.958   6.759  0.4455 -0.8962  0.7155
   31SAPC    HS 4117   2.448   5.875   6.709  1.8670 -1.1395  2.5988
   31SAPC   O21 4118   2.421   5.930   6.901 -0.7538 -0.6557  0.3779
   31SAPC   C21 4119   2.386   5.802   6.942  0.6011  0.1866 -0.0803
   31SAPC   O22 4120   2.368   5.707   6.868 -0.4425  0.2832  0.4590
   31SAPC   C22 4121   2.379   5.803   7.097 -0.0758  0.0571  0.7387
   31SAPC   H2R 4122   2.467   5.867   7.120 -0.3389  0.2032  1.3571
   31SAPC   H2S 4123   2.283   5.851   7.126 -0.7518 -0.9197  0.1653
   31SAPC    C3 4124   2.457   6.094   6.720 -0.2429 -0.3459  0.3324
   31SAPC    HX 4125   2.385   6.176   6.741  0.9389  0.9436 -0.5008
   31SAPC    HY 4126   2.469   6.093   6.609 -0.7294 -0.4620  0.2768
   31SAPC   O31 4127   2.582   6.113   6.788  0.2419  0.3649  0.6914
   31SAPC   C31 4128   2.679   6.036   6.744  0.5026 -0.5105  0.4448
   31SAPC   O32 4129   2.684   5.967   6.642 -0.4477 -0.4764  0.0099
   31SAPC   C32 4130   2.804   6.054   6.835 -0.4307 -1.0027 -0.6028
   31SAPC   H2X 4131   2.779   6.128   6.914 -0.8546 -1.6898 -0.0753
   31SAPC   H2Y 4132   2.880   6.095   6.765  0.0712  2.2899  1.6634
   31SAPC   C23 4133   2.383   5.669   7.171 -0.4163  0.3644  0.2929
   31SAPC   H3R 4134   2.331   5.595   7.107 -1.3418  2.7700 -1.8889
   31SAPC   H3S 4135   2.332   5.692   7.267 -1.1156  1.2216 -0.2768
   31SAPC   C24 4136   2.529   5.627   7.209 -0.6114 -0.1364  1.0584
   31SAPC   H4R 4137   2.589   5.617   7.116 -0.1403 -1.7626  1.5092
   31SAPC   H4S 4138   2.521   5.523   7.248  0.3372 -0.4965  0.3259
   31SAPC   C25 4139   2.600   5.716   7.306 -0.3039 -0.1314  0.1438
   31SAPC   H5R 4140   2.638   5.806   7.256  1.0394 -0.7818 -0.0532
   31SAPC   C26 4141   2.612   5.694   7.442 -0.2217  0.8745 -0.9023
   31SAPC   H6R 4142   2.669   5.771   7.496 -0.3745 -0.0248  0.6156
   31SAPC   C27 4143   2.560   5.582   7.528  0.0223 -0.0782  0.2876
   31SAPC   H7R 4144   2.631   5.567   7.613 -1.4346 -0.1917  1.5178
   31SAPC   H7S 4145   2.557   5.486   7.472  1.0968  1.2765 -2.2609
   31SAPC   C28 4146   2.425   5.606   7.589  0.1558 -0.1134 -0.1735
   31SAPC   H8R 4147   2.341   5.593   7.520 -2.5057  0.7286  2.6294
   31SAPC   C29 4148   2.396   5.635   7.721  0.7270 -0.2625 -0.4100
   31SAPC   H9R 4149   2.299   5.655   7.769  0.6253 -0.7387 -0.4161
   31SAPC  C210 4150   2.509   5.653   7.814  0.2202 -0.2503 -0.1980
   31SAPC  H10R 4151   2.472   5.722   7.893  3.7152  1.1217  0.4159
   31SAPC  H10S 4152   2.598   5.704   7.771  1.0259 -0.8669  0.6803
   31SAPC  C211 4153   2.567   5.526   7.880 -0.1684  0.0244  0.0750
   31SAPC  H11R 4154   2.640   5.488   7.807 -1.0831 -0.5015 -0.5877
   31SAPC  C212 4155   2.530   5.465   7.998 -0.6946  0.1301 -0.1040
   31SAPC  H12R 4156   2.585   5.377   8.035 -0.7301  0.0940 -0.1356
   31SAPC  C213 4157   2.430   5.519   8.090  0.5446 -0.2903  0.5322
   31SAPC  H13R 4158   2.356   5.575   8.030  2.3672  0.3254 -1.2209
   31SAPC  H13S 4159   2.473   5.597   8.156 -1.2435 -1.6765  3.5414
   31SAPC  C214 4160   2.357   5.417   8.175  1.7054  0.1832  0.4945
   31SAPC  H14R 4161   2.400   5.414   8.276  1.2459 -0.2883  0.6781
   31SAPC  C215 4162   2.261   5.337   8.142 -0.3217  0.3848  0.3114
   31SAPC  H15R 4163   2.236   5.260   8.217  1.2776  0.6990  1.2062
   31SAPC  C216 4164   2.198   5.327   8.002 -0.6011 -0.5535  0.3896
   31SAPC  H16R 4165   2.225   5.411   7.935  1.6440 -1.1338  0.5075
   31SAPC  H16S 4166   2.087   5.320   8.004 -0.7506 -0.1083 -2.6829
   31SAPC  C217 4167   2.252   5.202   7.927 -0.0145  0.7984 -0.4240
   31SAPC  H17R 4168   2.362   5.200   7.937 -0.1236  0.6622  0.8368
   31SAPC  H17S 4169   2.241   5.215   7.817 -0.4204  0.1825 -0.4581
   31SAPC  C218 4170   2.180   5.075   7.965 -0.5184  1.0126 -0.1045
   31SAPC  H18R 4171   2.071   5.080   7.983 -0.7802 -0.2381 -1.2328
   31SAPC  H18S 4172   2.224   5.044   8.063 -0.6875 -2.0000 -0.9033
   31SAPC  C219 4173   2.207   4.956   7.869  0.1866 -0.3139 -0.1526
   31SAPC  H19R 4174   2.189   4.869   7.936  2.5037 -0.6950  0.0478
   31SAPC  H19S 4175   2.314   4.957   7.840  0.8502 -4.2824  1.5412
   31SAPC  C220 4176   2.114   4.940   7.745  0.3491  0.3429 -0.3858
   31SAPC  H20R 4177   2.098   5.036   7.691 -3.7362 -1.4392 -2.8623
   31SAPC  H20S 4178   2.015   4.912   7.787 -0.4386  2.6609 -0.5291
   31SAPC  H20T 4179   2.154   4.859   7.681  0.7873 -0.6887  1.1455
   31SAPC   C33 4180   2.853   5.920   6.894  0.0051  0.3732  0.2906
   31SAPC   H3X 4181   2.860   5.848   6.811 -2.6390 -1.4591  1.5239
   31SAPC   H3Y 4182   2.774   5.884   6.964  1.8701 -1.2579  1.6536
   31SAPC   C34 4183   2.988   5.934   6.967 -0.0546 -0.3491 -0.0200
   31SAPC   H4X 4184   3.056   5.978   6.890 -0.0341  0.1729  0.2965
   31SAPC   H4Y 4185   3.022   5.828   6.971 -0.2235 -0.4784 -1.3718
   31SAPC   C35 4186   2.981   6.016   7.098  0.7261  0.9306  0.2083
   31SAPC   H5X 4187   2.887   6.076   7.095  1.8488  2.8870  2.2026
   31SAPC   H5Y 4188   3.060   6.092   7.111  0.4029  1.0710  1.5121
   31SAPC   C36 4189   2.974   5.916   7.216  0.5051 -0.1745  0.3269
   31SAPC   H6X 4190   3.067   5.856   7.224  0.4631  0.0256  4.3270
   31SAPC   H6Y 4191   2.889   5.846   7.200 -1.2584  1.6564  1.2801
   31SAPC   C37 4192   2.952   5.971   7.363  0.4137  0.2894  0.2912
   31SAPC   H7X 4193   2.852   6.018   7.362 -0.0094 -0.5980  0.7508
   31SAPC   H7Y 4194   3.029   6.052   7.361  0.9706 -0.1565 -3.1261
   31SAPC   C38 4195   2.949   5.863   7.470  1.2459 -0.1434  0.6975
   31SAPC   H8X 4196   3.047   5.812   7.458  1.1660 -0.4628  1.3487
   31SAPC   H8Y 4197   2.880   5.781   7.443  1.1026 -1.1823  3.7978
   31SAPC   C39 4198   2.920   5.900   7.612  0.7276  0.0774 -0.1477
   31SAPC   H9X 4199   2.822   5.951   7.619  1.5933  1.8565 -0.2739
   31SAPC   H9Y 4200   3.000   5.968   7.651  0.5657 -0.9371  2.1025
   31SAPC  C310 4201   2.922   5.775   7.699  0.4885 -0.2880 -0.2473
   31SAPC  H10X 4202   2.990   5.700   7.653  0.0814 -1.8748  1.6323
   31SAPC  H10Y 4203   2.826   5.722   7.684  0.4871  0.0599 -1.6543
   31SAPC  C311 4204   2.966   5.793   7.843  0.1460  0.2336  0.0655
   31SAPC  H11X 4205   2.902   5.872   7.886  0.2002  0.8588 -0.9719
   31SAPC  H11Y 4206   3.059   5.854   7.846 -0.7536  1.6041  0.7021
   31SAPC  C312 4207   2.983   5.675   7.936 -0.4811  0.8835  0.0535
   31SAPC  H12X 4208   3.088   5.641   7.922 -0.9696 -0.2518 -0.9586
   31SAPC  H12Y 4209   2.926   5.587   7.898  2.3765 -0.8060 -0.6397
   31SAPC  C313 4210   2.957   5.686   8.080 -0.3605  0.5688  0.2965
   31SAPC  H13X 4211   3.029   5.757   8.127 -0.6352  1.0358  0.0136
   31SAPC  H13Y 4212   2.965   5.587   8.129 -2.5582  0.2932  0.1928
   31SAPC  C314 4213   2.816   5.742   8.113 -0.1139 -0.6465  0.1529
   31SAPC  H14X 4214   2.748   5.716   8.029 -1.3802  2.2681  0.1593
   31SAPC  H14Y 4215   2.836   5.851   8.111 -0.9085 -0.4555  1.6481
   31SAPC  C315 4216   2.761   5.696   8.250  0.3711  0.6005  0.2632
   31SAPC  H15X 4217   2.831   5.726   8.331  0.6332  2.3464 -0.5636
   31SAPC  H15Y 4218   2.742   5.586   8.243 -0.2544  0.8019 -2.0056
   31SAPC  C316 4219   2.641   5.779   8.298  0.0918  0.0875 -0.1385
   31SAPC  H16X 4220   2.560   5.784   8.222 -0.2852 -1.1729  0.1561
   31SAPC  H16Y 4221   2.678   5.880   8.326  0.8051 -0.7864  2.4069
   31SAPC  C317 4222   2.587   5.711   8.426  0.3315 -0.2250 -0.1482
   31SAPC  H17X 4223   2.661   5.723   8.509 -0.6919 -0.3380  0.7967
   31SAPC  H17Y 4224   2.568   5.603   8.404 -1.3943  0.2312 -1.0245
   31SAPC  C318 4225   2.447   5.773   8.464  0.4926  0.1370  0.3361
   31SAPC  H18X 4226   2.381   5.767   8.375 -0.9795 -0.8001  1.4406
   31SAPC  H18Y 4227   2.480   5.876   8.487  3.2692 -0.0620 -2.1414
   31SAPC  H18Z 4228   2.407   5.726   8.557  1.0470 -1.7589 -0.3298
   32SAPC     N 4229   0.759   5.603   5.958 -0.1263 -0.3099  0.1890
   32SAPC   C12 4230   0.773   5.531   6.089  0.2265  0.0115 -0.4603
   32SAPC  H12A 4231   0.747   5.583   6.180  0.8170 -0.2737 -0.1220
   32SAPC  H12B 4232   0.878   5.514   6.104  0.1735  0.9403  1.2220
   32SAPC   C13 4233   0.837   5.724   5.942  0.3068 -0.4934  0.5226
   32SAPC  H13A 4234   0.832   5.769   5.844  1.3451 -1.3202  0.0604
   32SAPC  H13B 4235   0.799   5.791   6.017 -0.2328  0.9407 -0.9620
   32SAPC  H13C 4236   0.940   5.704   5.971  0.6191 -0.9837 -0.8238
   32SAPC   C14 4237   0.780   5.514   5.842  0.2239  0.2632 -0.3384
   32SAPC  H14A 4238   0.729   5.420   5.855  2.2317 -0.6507  1.6749
   32SAPC  H14B 4239   0.753   5.568   5.753  1.2640  2.9676  0.8817
   32SAPC  H14C 4240   0.885   5.487   5.836 -0.0145 -0.6899 -0.4012
   32SAPC   C15 4241   0.610   5.642   5.930 -0.4068  0.2992 -0.3561
   32SAPC  H15A 4242   0.606   5.718   5.854  0.6618  0.1116 -0.6177
   32SAPC  H15B 4243   0.549   5.559   5.898  1.9539 -1.9085  0.5085
   32SAPC  H15C 4244   0.571   5.686   6.021 -0.8664  0.6546 -0.7235
   32SAPC   C11 4245   0.718   5.385   6.101 -0.7412 -0.0062  0.3732
   32SAPC  H11A 4246   0.611   5.374   6.072 -0.6489  0.4954 -0.1721
   32SAPC  H11B 4247   0.724   5.355   6.208 -0.4495  3.3568  1.3870
   32SAPC     P 4248   0.939   5.249   6.066 -0.5879 -0.2434  0.4443
   32SAPC   O13 4249   0.983   5.125   5.989 -0.2365 -0.5155 -0.1217
   32SAPC   O14 4250   1.027   5.366   6.065 -0.2379  0.0773  0.2284
   32SAPC   O12 4251   0.794   5.290   6.020 -0.2843  0.0239 -0.0008
   32SAPC   O11 4252   0.919   5.212   6.218  0.2406  0.7245  0.1984
   32SAPC    C1 4253   1.019   5.186   6.313  0.0199  0.2147  0.1573
   32SAPC    HA 4254   1.002   5.093   6.372  0.8736  0.1019  0.2422
   32SAPC    HB 4255   1.120   5.156   6.278  0.8792 -1.9859  3.9837
   32SAPC    C2 4256   1.028   5.298   6.427 -0.0420  0.2618 -0.2524
   32SAPC    HS 4257   1.126   5.282   6.477  0.2838  0.0521 -0.9521
   32SAPC   O21 4258   0.916   5.289   6.517  0.1450 -0.2418  0.1968
   32SAPC   C21 4259   0.906   5.191   6.602  0.4771 -0.3079 -0.3050
   32SAPC   O22 4260   0.990   5.107   6.624  0.0707 -0.8553 -0.2429
   32SAPC   C22 4261   0.767   5.193   6.673 -0.4774  0.3935  0.1531
   32SAPC   H2R 4262   0.725   5.296   6.670 -0.4519  0.3906 -1.0591
   32SAPC   H2S 4263   0.691   5.139   6.612  0.5943  0.4740 -1.3017
   32SAPC    C3 4264   1.039   5.442   6.366  0.7501 -0.1396 -0.2598
   32SAPC    HX 4265   0.944   5.455   6.311  0.9165 -0.8493 -0.7207
   32SAPC    HY 4266   1.120   5.444   6.289 -0.3424 -1.3704 -1.4776
   32SAPC   O31 4267   1.069   5.540   6.470  0.1781  0.4199  0.2988
   32SAPC   C31 4268   0.969   5.599   6.529  0.0746  0.0487  0.3374
   32SAPC   O32 4269   0.853   5.595   6.500  0.1307 -0.4432 -0.3332
   32SAPC   C32 4270   1.028   5.661   6.651  0.1733 -0.1347  0.0265
   32SAPC   H2X 4271   1.085   5.749   6.616 -0.9515  0.8394  0.5972
   32SAPC   H2Y 4272   1.102   5.596   6.703 -1.1876 -0.1371  2.0816
   32SAPC   C23 4273   0.757   5.130   6.813  0.6161  0.1365  0.2614
   32SAPC   H3R 4274   0.762   5.020   6.802 -2.5650  0.0334 -0.9834
   32SAPC   H3S 4275   0.651   5.136   6.845  0.6524  0.4340  0.3379
   32SAPC   C24 4276   0.842   5.195   6.918 -0.3678 -0.1829  0.1835
   32SAPC   H4R 4277   0.826   5.305   6.915  2.5602  0.3016 -1.4212
   32SAPC   H4S 4278   0.949   5.181   6.889 -1.2403 -1.9763 -2.6104
   32SAPC   C25 4279   0.817   5.141   7.054  0.7492  0.3988  0.3114
   32SAPC   H5R 4280   0.858   5.040   7.066 -0.4885 -0.1048  0.4793
   32SAPC   C26 4281   0.760   5.214   7.157 -0.4145 -0.1948  0.0927
   32SAPC   H6R 4282   0.755   5.165   7.255  0.5214  0.4260  0.4722
   32SAPC   C27 4283   0.711   5.353   7.166  0.1000 -0.4675 -0.2963
   32SAPC   H7R 4284   0.760   5.412   7.085  1.9268 -0.8023  0.4999
   32SAPC   H7S 4285   0.752   5.399   7.258 -3.0364 -1.8235  1.9560
   32SAPC   C28 4286   0.562   5.370   7.178  0.2465  0.0262  0.4413
   32SAPC   H8R 4287   0.507   5.348   7.085  0.7279  1.0907 -0.1053
   32SAPC   C29 4288   0.493   5.407   7.288 -0.6034 -0.3068  0.4846
   32SAPC   H9R 4289   0.384   5.421   7.287 -0.6729  0.3361 -4.1309
   32SAPC  C210 4290   0.556   5.430   7.425  0.5942  0.4365  0.3497
   32SAPC  H10R 4291   0.488   5.497   7.481 -0.0815  1.0774 -1.1817
   32SAPC  H10S 4292   0.651   5.487   7.419  1.0697 -0.2923  0.7305
   32SAPC  C211 4293   0.589   5.298   7.497 -1.0671 -0.1033 -0.3259
   32SAPC  H11R 4294   0.599   5.206   7.437  0.2106  0.6330 -1.2932
   32SAPC  C212 4295   0.606   5.283   7.632  0.3098 -0.3942  0.1395
   32SAPC  H12R 4296   0.630   5.184   7.674 -0.4590 -2.1488 -3.1604
   32SAPC  C213 4297   0.584   5.399   7.725 -0.1720 -0.7489 -0.0027
   32SAPC  H13R 4298   0.641   5.485   7.683  0.5659 -2.3993 -2.6954
   32SAPC  H13S 4299   0.639   5.395   7.821 -2.0683  3.0391  1.4334
   32SAPC  C214 4300   0.437   5.426   7.763  0.2915  0.1073  0.2149
   32SAPC  H14R 4301   0.371   5.491   7.704 -0.0161  0.9679  1.4723
   32SAPC  C215 4302   0.378   5.373   7.874  0.3948  0.0367  0.2950
   32SAPC  H15R 4303   0.270   5.388   7.888  0.6664  1.0577  1.5821
   32SAPC  C216 4304   0.445   5.286   7.982 -0.4940  0.9205  0.5616
   32SAPC  H16R 4305   0.528   5.227   7.937  0.9497  1.9722  1.7244
   32SAPC  H16S 4306   0.367   5.216   8.018  0.6177 -1.2207 -0.9292
   32SAPC  C217 4307   0.502   5.358   8.104  0.4926 -0.3373  0.2708
   32SAPC  H17R 4308   0.421   5.425   8.140  1.1565  2.4113 -2.8811
   32SAPC  H17S 4309   0.593   5.414   8.072 -0.6923  1.6911  0.2519
   32SAPC  C218 4310   0.539   5.257   8.213  0.3850 -0.3431  0.1753
   32SAPC  H18R 4311   0.595   5.167   8.179  0.1741 -0.2277 -0.4922
   32SAPC  H18S 4312   0.443   5.223   8.256  0.4478 -0.6377  0.0840
   32SAPC  C219 4313   0.610   5.332   8.330 -0.8155 -0.4940 -0.0996
   32SAPC  H19R 4314   0.563   5.425   8.368  1.2161  0.8379 -0.6463
   32SAPC  H19S 4315   0.710   5.360   8.291 -0.4807 -2.0583 -0.4346
   32SAPC  C220 4316   0.618   5.234   8.450  0.5077 -0.0607 -0.2935
   32SAPC  H20R 4317   0.511   5.220   8.475  0.2849 -0.3805 -1.3446
   32SAPC  H20S 4318   0.675   5.281   8.533 -0.1701  1.5792 -0.7032
   32SAPC  H20T 4319   0.655   5.137   8.411  2.3038  0.8174 -0.9048
   32SAPC   C33 4320   0.937   5.703   6.766  0.2374 -0.3795 -0.5280
   32SAPC   H3X 4321   0.882   5.618   6.811  1.9980 -1.3663 -0.1522
   32SAPC   H3Y 4322   0.860   5.778   6.737 -0.3898 -0.5862  0.5363
   32SAPC   C34 4323   1.022   5.777   6.873  0.0220 -0.6927 -0.0567
   32SAPC   H4X 4324   1.088   5.856   6.831 -0.4827 -0.1065  0.2328
   32SAPC   H4Y 4325   1.091   5.701   6.917  1.5836 -1.2073 -3.1036
   32SAPC   C35 4326   0.942   5.838   6.987 -0.5526 -0.6283 -0.1038
   32SAPC   H5X 4327   0.889   5.764   7.050 -1.0826 -0.2528 -0.0988
   32SAPC   H5Y 4328   0.854   5.889   6.943  0.4769 -0.0756 -1.5705
   32SAPC   C36 4329   1.024   5.931   7.075  0.1009  0.3623 -0.7703
   32SAPC   H6X 4330   1.051   6.023   7.017  1.5312 -1.2488 -2.8472
   32SAPC   H6Y 4331   1.118   5.884   7.111 -0.8752 -1.5712 -0.6313
   32SAPC   C37 4332   0.940   5.972   7.205 -0.0992  0.1560  0.5984
   32SAPC   H7X 4333   0.907   5.881   7.259  2.0126 -1.3369 -0.4718
   32SAPC   H7Y 4334   0.850   6.031   7.179 -0.9067 -1.4513 -0.4243
   32SAPC   C38 4335   1.017   6.050   7.310 -0.0086 -0.8559 -0.0175
   32SAPC   H8X 4336   1.061   6.139   7.260 -0.6497  1.0209  2.5854
   32SAPC   H8Y 4337   1.103   5.990   7.347  1.1896  1.1350  0.6109
   32SAPC   C39 4338   0.927   6.096   7.426 -0.8898 -0.1998 -0.5753
   32SAPC   H9X 4339   0.881   6.008   7.476 -0.5528 -1.0593 -1.7491
   32SAPC   H9Y 4340   0.844   6.157   7.384  0.9566  0.9693 -2.7080
   32SAPC  C310 4341   1.001   6.190   7.531  0.1194 -0.1546 -0.3802
   32SAPC  H10X 4342   0.926   6.225   7.606  1.3557  0.8719  0.4256
   32SAPC  H10Y 4343   1.055   6.267   7.472 -1.3192 -1.8181 -4.1718
   32SAPC  C311 4344   1.104   6.111   7.615 -0.1070  0.3704  0.2679
   32SAPC  H11X 4345   1.185   6.076   7.549  0.4848  1.1269  0.5832
   32SAPC  H11Y 4346   1.060   6.020   7.661  0.2540  1.4040  2.8214
   32SAPC  C312 4347   1.165   6.191   7.730 -0.0368  0.5366  0.3150
   32SAPC  H12X 4348   1.183   6.289   7.680  0.6148 -0.7853 -2.2556
   32SAPC  H12Y 4349   1.265   6.154   7.760 -0.5373 -0.0286  1.3195
   32SAPC  C313 4350   1.064   6.198   7.848 -0.2337  0.9748 -0.4074
   32SAPC  H13X 4351   1.069   6.106   7.909 -0.6728  1.0578 -0.2506
   32SAPC  H13Y 4352   0.960   6.223   7.822 -0.2205  0.8568 -0.5784
   32SAPC  C314 4353   1.104   6.311   7.942  0.2213 -0.3342 -0.1938
   32SAPC  H14X 4354   1.020   6.333   8.011  1.4908 -0.4288  1.4646
   32SAPC  H14Y 4355   1.119   6.409   7.892 -0.8604 -0.9811 -1.8517
   32SAPC  C315 4356   1.227   6.282   8.028  0.1432 -0.0112  0.2457
   32SAPC  H15X 4357   1.312   6.262   7.960  1.6390 -0.0177  2.0585
   32SAPC  H15Y 4358   1.200   6.190   8.084  0.7843  0.2104  0.9346
   32SAPC  C316 4359   1.271   6.399   8.116  0.5385  0.5397  0.1365
   32SAPC  H16X 4360   1.286   6.489   8.052 -1.7720  0.7684 -0.1813
   32SAPC  H16Y 4361   1.373   6.384   8.157  0.4575  0.4596  0.3077
   32SAPC  C317 4362   1.176   6.414   8.231 -0.4645  0.1329  0.7882
   32SAPC  H17X 4363   1.157   6.311   8.269  1.1666  0.0347  1.4284
   32SAPC  H17Y 4364   1.078   6.455   8.199 -0.1319 -0.5680 -1.2543
   32SAPC  C318 4365   1.237   6.494   8.351  0.3490 -0.1088  0.3956
   32SAPC  H18X 4366   1.313   6.436   8.407  0.8178 -0.0935 -0.2264
   32SAPC  H18Y 4367   1.148   6.512   8.415 -1.2296 -1.5870 -1.2792
   32SAPC  H18Z 4368   1.274   6.593   8.315  0.6287 -0.5801 -0.6481
   33POPC     N 4369   0.685   3.666  10.810  1.4933 -0.1088  0.1981
   33POPC   C12 4370   0.735   3.761  10.701  0.1556  0.4687  0.6985
   33POPC  H12A 4371   0.668   3.752  10.617 -0.6049  1.0706  1.2228
   33POPC  H12B 4372   0.831   3.728  10.666 -0.6698 -0.3799 -0.8686
   33POPC   C13 4373   0.537   3.696  10.837  0.2809 -0.2427 -0.8251
   33POPC  H13A 4374   0.528   3.793  10.883  0.1824  0.1098 -1.5663
   33POPC  H13B 4375   0.474   3.688  10.750 -0.6058  1.5518 -0.3901
   33POPC  H13C 4376   0.491   3.620  10.898  2.6416  0.5122  2.1598
   33POPC   C14 4377   0.683   3.527  10.756 -0.4019 -0.4395  0.0678
   33POPC  H14A 4378   0.650   3.455  10.830  1.8065 -1.7419 -0.1239
   33POPC  H14B 4379   0.613   3.517  10.674 -0.1626 -0.7821 -0.0978
   33POPC  H14C 4380   0.782   3.505  10.718 -0.6438 -0.2831 -0.6578
   33POPC   C15 4381   0.766   3.675  10.928 -0.2154  0.4399 -0.0090
   33POPC  H15A 4382   0.788   3.779  10.950  0.9697  0.6830 -2.0385
   33POPC  H15B 4383   0.862   3.631  10.906  1.1007  3.6356 -1.2636
   33POPC  H15C 4384   0.718   3.635  11.016 -1.5502 -1.9808 -1.7303
   33POPC   C11 4385   0.748   3.910  10.747  0.1565  0.1447  0.5371
   33POPC  H11A 4386   0.672   3.938  10.823 -1.1331  0.3639 -0.8056
   33POPC  H11B 4387   0.727   3.975  10.660  1.4918 -0.2685 -0.1253
   33POPC     P 4388   0.977   4.044  10.758 -0.2474  0.4791  0.0204
   33POPC   O13 4389   1.038   3.993  10.634 -0.5111 -0.0100  0.5374
   33POPC   O14 4390   1.065   4.063  10.875  0.0649 -0.5279 -0.7751
   33POPC   O12 4391   0.874   3.940  10.802 -0.0019  0.0815 -0.3719
   33POPC   O11 4392   0.899   4.176  10.719 -0.1680 -0.5383 -0.0175
   33POPC    C1 4393   0.963   4.303  10.716 -0.5359  0.4574 -0.1530
   33POPC    HA 4394   0.915   4.373  10.788  1.9084  2.2492 -0.1494
   33POPC    HB 4395   1.070   4.297  10.745 -0.3622 -0.9133 -0.9864
   33POPC    C2 4396   0.965   4.367  10.576 -0.1052 -0.8291  1.5555
   33POPC    HS 4397   1.035   4.454  10.581  0.3410 -1.2070  1.9809
   33POPC   O21 4398   0.829   4.402  10.546  0.0632 -0.3907 -0.0571
   33POPC   C21 4399   0.803   4.491  10.450  0.2638 -0.3542 -0.5351
   33POPC   O22 4400   0.878   4.574  10.407 -0.4050 -0.2813  0.3991
   33POPC   C22 4401   0.656   4.485  10.414 -0.3765 -0.5822 -0.2218
   33POPC   H2R 4402   0.617   4.575  10.466  0.6016 -0.2004 -0.1450
   33POPC   H2S 4403   0.614   4.392  10.458 -3.3051  0.0885 -1.3279
   33POPC    C3 4404   1.022   4.271  10.464  0.5072  0.1367 -1.0455
   33POPC    HX 4405   0.967   4.175  10.457  0.5434 -0.3509  2.9965
   33POPC    HY 4406   1.127   4.253  10.496  0.1088  2.5143  2.2256
   33POPC   O31 4407   1.015   4.325  10.329  0.1240  0.2433  0.1743
   33POPC   C31 4408   1.122   4.409  10.304 -0.6565 -0.3165 -0.3581
   33POPC   O32 4409   1.210   4.428  10.385 -0.2404  0.5091  0.0492
   33POPC   C32 4410   1.122   4.472  10.167 -0.0495  0.4169  0.4895
   33POPC   H2X 4411   1.198   4.553  10.169 -1.1651  1.5086  0.3035
   33POPC   H2Y 4412   1.023   4.522  10.162 -0.1580  0.2830  1.1913
   33POPC   C23 4413   0.611   4.494  10.265 -0.1331 -0.1536  1.0700
   33POPC   H3R 4414   0.679   4.425  10.211  1.3730 -0.0215  2.7289
   33POPC   H3S 4415   0.620   4.598  10.227 -1.7200  0.1183  1.3763
   33POPC   C24 4416   0.469   4.455  10.229 -0.0699 -0.1358 -0.5553
   33POPC   H4R 4417   0.399   4.499  10.303  0.7038  2.1398 -1.0870
   33POPC   H4S 4418   0.459   4.346  10.241  1.8743 -0.6490 -2.7624
   33POPC   C25 4419   0.419   4.476  10.082  0.0521 -0.3146  0.4398
   33POPC   H5R 4420   0.459   4.569  10.038 -1.8278  0.5671  0.5169
   33POPC   H5S 4421   0.309   4.490  10.073  0.2532  0.0630 -2.1678
   33POPC   C26 4422   0.451   4.360   9.984  0.1033  0.2133 -0.6958
   33POPC   H6R 4423   0.422   4.261  10.027 -2.0612  1.2970  0.4859
   33POPC   H6S 4424   0.561   4.345   9.987 -0.1185 -1.7673 -0.5837
   33POPC   C27 4425   0.395   4.387   9.844 -0.0943  0.7626  0.8142
   33POPC   H7R 4426   0.423   4.489   9.812  0.1816  0.0767 -1.3042
   33POPC   H7S 4427   0.285   4.385   9.857  0.1469 -0.3281  3.2126
   33POPC   C28 4428   0.449   4.300   9.734 -0.8282 -0.1774 -0.1604
   33POPC   H8R 4429   0.559   4.298   9.746 -0.7108  2.6093 -0.1570
   33POPC   H8S 4430   0.433   4.346   9.634 -1.8251 -2.3534 -1.0708
   33POPC   C29 4431   0.385   4.163   9.729 -0.4588  0.0941 -0.5360
   33POPC   H91 4432   0.316   4.148   9.814  1.8032 -3.7331  0.9038
   33POPC  C210 4433   0.403   4.065   9.638  0.1104  0.0154 -0.5191
   33POPC  H101 4434   0.346   3.971   9.648 -0.5125  0.4765  0.3366
   33POPC  C211 4435   0.503   4.079   9.529  0.0108 -0.3754 -0.6653
   33POPC  H11R 4436   0.561   3.985   9.524 -2.1772 -1.8626  0.2690
   33POPC  H11S 4437   0.573   4.161   9.553  1.4179 -0.9593 -2.5451
   33POPC  C212 4438   0.447   4.100   9.391  0.1251 -0.2012  0.1008
   33POPC  H12R 4439   0.531   4.106   9.318 -0.0196  0.5678 -0.0162
   33POPC  H12S 4440   0.402   4.202   9.386  1.3346  0.4135  1.2276
   33POPC  C213 4441   0.350   3.995   9.335  0.1680  0.0832 -0.4500
   33POPC  H13R 4442   0.309   4.036   9.240 -2.2333  0.4500  0.6597
   33POPC  H13S 4443   0.263   3.975   9.402 -1.3110  0.4463 -2.1692
   33POPC  C214 4444   0.413   3.856   9.307  0.0698  0.5617  0.7312
   33POPC  H14R 4445   0.441   3.805   9.402  0.8611 -2.4572 -0.9974
   33POPC  H14S 4446   0.504   3.864   9.244 -1.4193 -0.7486 -1.7323
   33POPC  C215 4447   0.320   3.772   9.211  0.3136 -1.1806 -0.3022
   33POPC  H15R 4448   0.302   3.829   9.117  0.6876 -0.0702  0.2787
   33POPC  H15S 4449   0.219   3.749   9.252 -0.2873  1.0913 -0.4061
   33POPC  C216 4450   0.372   3.634   9.165 -0.5372 -0.3424  0.1150
   33POPC  H16R 4451   0.375   3.568   9.254  0.4766  0.4060  0.6549
   33POPC  H16S 4452   0.474   3.646   9.122 -0.9732  0.5694 -0.7102
   33POPC  C217 4453   0.283   3.559   9.065 -0.1275  0.0590 -0.4024
   33POPC  H17R 4454   0.296   3.621   8.974 -1.9189  2.7316  1.0169
   33POPC  H17S 4455   0.174   3.561   9.087  0.3018 -0.4423  2.0382
   33POPC  C218 4456   0.321   3.413   9.046  0.5256  0.2849 -0.1671
   33POPC  H18R 4457   0.432   3.401   9.039  0.3687 -2.7368  0.8768
   33POPC  H18S 4458   0.277   3.371   8.952 -0.2866  0.0758  0.2997
   33POPC  H18T 4459   0.288   3.334   9.116 -1.0115 -0.0235 -1.1899
   33POPC   C33 4460   1.155   4.380  10.047  0.5495  0.4849  0.9311
   33POPC   H3X 4461   1.087   4.293  10.041  1.8628 -0.5095  0.1294
   33POPC   H3Y 4462   1.259   4.343  10.046  0.2609 -0.4517 -2.1707
   33POPC   C34 4463   1.131   4.471   9.932  0.1717 -0.5543  1.2897
   33POPC   H4X 4464   1.192   4.563   9.925 -2.4223  1.1879 -0.0620
   33POPC   H4Y 4465   1.026   4.502   9.917 -0.4907 -3.2252 -0.2848
   33POPC   C35 4466   1.155   4.404   9.794 -0.1090 -0.2212  0.1088
   33POPC   H5X 4467   1.088   4.316   9.788  0.9483 -0.9669 -1.3181
   33POPC   H5Y 4468   1.259   4.367   9.785  0.5484  1.3587  0.7278
   33POPC   C36 4469   1.141   4.504   9.671 -0.2037 -0.2331 -0.2418
   33POPC   H6X 4470   1.225   4.576   9.683  0.4236 -1.3220  2.8659
   33POPC   H6Y 4471   1.048   4.561   9.694  0.0568  0.5837 -1.1353
   33POPC   C37 4472   1.156   4.444   9.535 -0.0222 -0.1105 -0.2552
   33POPC   H7X 4473   1.065   4.384   9.513 -1.4277  2.0586 -0.7421
   33POPC   H7Y 4474   1.246   4.380   9.543  0.3037  0.4040  0.2856
   33POPC   C38 4475   1.167   4.552   9.429  0.6389 -0.2078 -0.7031
   33POPC   H8X 4476   1.263   4.602   9.455 -0.1902  1.7843 -1.2811
   33POPC   H8Y 4477   1.084   4.624   9.445  1.0205  0.2287 -0.6508
   33POPC   C39 4478   1.159   4.490   9.292  0.0544 -0.2320  0.8871
   33POPC   H9X 4479   1.053   4.474   9.263  0.1004 -0.0449  0.5989
   33POPC   H9Y 4480   1.210   4.392   9.289 -0.8279 -0.6902 -0.8119
   33POPC  C310 4481   1.225   4.586   9.183 -0.3961 -0.0561  0.4019
   33POPC  H10X 4482   1.331   4.610   9.202 -0.1326 -0.6199 -0.2960
   33POPC  H10Y 4483   1.168   4.681   9.172 -2.2204 -1.0908  0.3615
   33POPC  C311 4484   1.222   4.532   9.040 -0.4371 -0.7980 -0.2934
   33POPC  H11X 4485   1.191   4.606   8.963 -0.1429 -1.9319 -1.5425
   33POPC  H11Y 4486   1.136   4.464   9.024 -2.7541  1.6416  0.9082
   33POPC  C312 4487   1.359   4.463   9.003  0.1286 -0.4394  0.0105
   33POPC  H12X 4488   1.387   4.378   9.069  1.1494  1.0506  1.5562
   33POPC  H12Y 4489   1.433   4.544   9.020  0.3429 -0.5726 -0.2667
   33POPC  C313 4490   1.375   4.419   8.855 -0.2379 -0.1858  0.1427
   33POPC  H13X 4491   1.346   4.498   8.782 -4.6855  1.0202  2.8617
   33POPC  H13Y 4492   1.308   4.335   8.828 -0.1862 -0.3824  0.6202
   33POPC  C314 4493   1.517   4.366   8.830  0.7530 -0.7982 -0.4623
   33POPC  H14X 4494   1.508   4.282   8.758 -0.1908  0.9996 -2.5412
   33POPC  H14Y 4495   1.552   4.323   8.926 -0.0145  0.8322  0.5990
   33POPC  C315 4496   1.604   4.480   8.781 -0.4723 -0.2649 -0.5988
   33POPC  H15X 4497   1.609   4.545   8.871 -2.1146 -4.5620  3.0054
   33POPC  H15Y 4498   1.552   4.540   8.704  0.5756  0.9629 -0.3852
   33POPC  C316 4499   1.743   4.439   8.725  0.0051 -0.3583 -0.0231
   33POPC  H16X 4500   1.804   4.531   8.731  1.1023 -0.8677 -2.2478
   33POPC  H16Y 4501   1.747   4.390   8.625  1.1352 -1.4206  0.5128
   33POPC  H16Z 4502   1.791   4.371   8.799  0.0183  0.8097  1.0811
   34POPC     N 4503   6.099   1.860  11.076  0.6620  0.2995  0.3055
   34POPC   C12 4504   6.148   2.000  11.029 -0.4208  0.4150 -0.1270
   34POPC  H12A 4505   6.254   2.017  11.023 -0.6140  2.4266  1.0880
   34POPC  H12B 4506   6.108   2.077  11.094  0.9615  2.3067 -1.4148
   34POPC   C13 4507   5.970   1.863  11.144  0.1609 -0.3583 -0.3491
   34POPC  H13A 4508   5.960   1.954  11.201 -0.4321  0.1423 -1.2338
   34POPC  H13B 4509   5.885   1.863  11.077 -0.2587  1.2201  0.1479
   34POPC  H13C 4510   5.951   1.792  11.223 -0.5612  0.2005 -0.0046
   34POPC   C14 4511   6.103   1.765  10.962  0.3523  0.4247  0.5763
   34POPC  H14A 4512   6.026   1.791  10.891 -0.8799 -1.6553  1.0654
   34POPC  H14B 4513   6.199   1.759  10.912  0.3560  0.5590  0.5688
   34POPC  H14C 4514   6.074   1.669  11.003 -1.6022  1.0990  0.8520
   34POPC   C15 4515   6.203   1.810  11.169 -0.5103  0.6101  0.1362
   34POPC  H15A 4516   6.191   1.709  11.205  0.7093  1.8505  4.7106
   34POPC  H15B 4517   6.200   1.869  11.260 -0.9025 -0.0459  0.5568
   34POPC  H15C 4518   6.299   1.828  11.122  0.2104 -1.4675  0.6851
   34POPC   C11 4519   6.099   2.048  10.882 -0.7255 -0.9677  0.3480
   34POPC  H11A 4520   6.120   1.966  10.811  0.0304 -1.2585  0.8947
   34POPC  H11B 4521   6.156   2.136  10.845 -2.1801  0.7509  1.9556
   34POPC     P 4522   5.914   2.225  10.930 -0.1173 -0.1212 -0.0885
   34POPC   O13 4523   6.000   2.257  11.044 -0.0550 -0.3286 -0.6333
   34POPC   O14 4524   5.766   2.235  10.952  0.2750  0.0302  0.4137
   34POPC   O12 4525   5.960   2.083  10.874  0.3846  0.2967  0.2301
   34POPC   O11 4526   5.955   2.328  10.811  0.0058  0.1140 -0.5602
   34POPC    C1 4527   5.864   2.351  10.702 -0.2868  0.4152 -0.5150
   34POPC    HA 4528   5.885   2.448  10.654  0.3959 -0.4114 -1.9462
   34POPC    HB 4529   5.758   2.353  10.737 -0.8206 -0.0742 -2.0326
   34POPC    C2 4530   5.879   2.234  10.608 -0.1706  1.1710  0.4480
   34POPC    HS 4531   5.862   2.144  10.671 -0.9969  1.2000  0.2796
   34POPC   O21 4532   6.015   2.229  10.561  0.3964 -0.5023  0.1325
   34POPC   C21 4533   6.054   2.109  10.520 -0.6881  0.6351 -0.1020
   34POPC   O22 4534   6.008   2.002  10.551  0.2711 -0.0041 -0.1600
   34POPC   C22 4535   6.183   2.132  10.437  0.1855  0.4168  0.4704
   34POPC   H2R 4536   6.264   2.162  10.508  0.5037 -1.8660  1.1740
   34POPC   H2S 4537   6.161   2.224  10.381 -0.3271 -0.0411 -0.0895
   34POPC    C3 4538   5.781   2.241  10.486  0.3664 -0.3997 -0.3831
   34POPC    HX 4539   5.809   2.337  10.438  3.0991 -1.7601 -1.7450
   34POPC    HY 4540   5.677   2.264  10.517  0.7441 -0.2580  0.8296
   34POPC   O31 4541   5.787   2.138  10.389 -0.3032  0.0743  0.4867
   34POPC   C31 4542   5.721   2.021  10.426 -0.3952 -0.9300  0.0619
   34POPC   O32 4543   5.651   2.005  10.526  0.6911 -0.3777 -0.0187
   34POPC   C32 4544   5.731   1.921  10.309 -0.7619 -0.1415  0.4814
   34POPC   H2X 4545   5.729   1.818  10.351  2.2294 -0.3709  0.2526
   34POPC   H2Y 4546   5.831   1.946  10.269 -1.2412  0.9249 -0.0967
   34POPC   C23 4547   6.223   2.009  10.347 -0.6673  0.6521 -0.4150
   34POPC   H3R 4548   6.249   1.917  10.405  1.5987 -1.4237 -4.2608
   34POPC   H3S 4549   6.317   2.036  10.294  0.1816 -1.7044 -0.2403
   34POPC   C24 4550   6.118   1.992  10.234  0.2990 -0.3766 -0.3352
   34POPC   H4R 4551   6.120   2.090  10.183 -1.2017  0.2267  0.7265
   34POPC   H4S 4552   6.021   1.962  10.277  0.2421  0.2893 -0.0049
   34POPC   C25 4553   6.158   1.891  10.121  0.9922  0.2630 -0.5316
   34POPC   H5R 4554   6.165   1.795  10.176  1.4585  1.2502  1.1827
   34POPC   H5S 4555   6.252   1.912  10.067  1.6132  0.1201  0.4793
   34POPC   C26 4556   6.051   1.887  10.019 -0.1715 -0.1034 -0.0467
   34POPC   H6R 4557   6.053   1.978   9.954 -0.4355 -0.3051 -0.3427
   34POPC   H6S 4558   5.955   1.889  10.075 -0.7540 -1.7030 -0.9322
   34POPC   C27 4559   6.068   1.768   9.926 -0.4145  0.2928 -1.0377
   34POPC   H7R 4560   6.038   1.682   9.991  0.2040  1.0159  0.2262
   34POPC   H7S 4561   6.173   1.748   9.897 -0.5144 -3.6262  0.5798
   34POPC   C28 4562   5.977   1.776   9.798 -0.1173  0.0214 -0.0213
   34POPC   H8R 4563   5.871   1.786   9.827 -0.1096 -1.2637  0.5363
   34POPC   H8S 4564   5.997   1.677   9.752  0.4460 -1.6194  3.3703
   34POPC   C29 4565   6.036   1.891   9.718 -0.2791 -0.0469  0.5767
   34POPC   H91 4566   6.022   1.989   9.766  1.2084 -0.2220  1.4483
   34POPC  C210 4567   6.089   1.886   9.594 -0.0728  0.6062  0.3232
   34POPC  H101 4568   6.125   1.980   9.550  3.4953  0.3827  2.4332
   34POPC  C211 4569   6.101   1.764   9.506  0.2836 -0.0431  0.1993
   34POPC  H11R 4570   6.106   1.683   9.583 -0.6766 -0.0120  0.3071
   34POPC  H11S 4571   6.195   1.758   9.448  0.2187  0.3372  0.0531
   34POPC  C212 4572   5.982   1.742   9.409  0.0484  0.1058  0.1859
   34POPC  H12R 4573   6.012   1.666   9.334 -0.7137  0.6883 -0.7406
   34POPC  H12S 4574   5.975   1.835   9.348  0.5405  1.0893  1.5775
   34POPC  C213 4575   5.839   1.712   9.469  0.1969  0.6050  0.5938
   34POPC  H13R 4576   5.835   1.755   9.572  0.7307 -1.7062  1.6666
   34POPC  H13S 4577   5.850   1.601   9.475  0.7222  0.6358  0.2239
   34POPC  C214 4578   5.733   1.738   9.360  0.7322  0.1006  0.6559
   34POPC  H14R 4579   5.753   1.674   9.271  1.4621  0.8887  0.2359
   34POPC  H14S 4580   5.742   1.843   9.323 -4.8700  0.2455 -1.1658
   34POPC  C215 4581   5.588   1.715   9.423 -0.5714 -0.0855 -0.0202
   34POPC  H15R 4582   5.555   1.806   9.477 -0.1328  0.4394 -0.6117
   34POPC  H15S 4583   5.596   1.638   9.503 -2.1086 -0.7088 -0.4262
   34POPC  C216 4584   5.484   1.677   9.314  0.4229  0.5675  0.2929
   34POPC  H16R 4585   5.386   1.675   9.366  0.9853  2.4639  1.5327
   34POPC  H16S 4586   5.505   1.576   9.272  0.9544  0.8832 -0.2031
   34POPC  C217 4587   5.473   1.788   9.206 -0.1559 -0.4817  0.4862
   34POPC  H17R 4588   5.568   1.806   9.152 -1.1127 -2.9015 -2.2343
   34POPC  H17S 4589   5.439   1.881   9.257 -0.4742 -0.6145  0.5157
   34POPC  C218 4590   5.367   1.737   9.102 -0.7612  0.5530  0.1685
   34POPC  H18R 4591   5.270   1.718   9.154 -0.7891  2.3087  0.8400
   34POPC  H18S 4592   5.400   1.642   9.056 -1.5152  1.3339 -2.1084
   34POPC  H18T 4593   5.347   1.800   9.013 -0.2552  1.8138  0.9085
   34POPC   C33 4594   5.631   1.952  10.203  0.4464  0.2812  0.0660
   34POPC   H3X 4595   5.658   2.048  10.154 -0.2746  0.4888  0.0541
   34POPC   H3Y 4596   5.527   1.957  10.242  0.6476  1.0997  0.5127
   34POPC   C34 4597   5.638   1.847  10.085 -0.1639  0.1830  0.1665
   34POPC   H4X 4598   5.622   1.749  10.134  1.8955 -0.4654 -0.3634
   34POPC   H4Y 4599   5.740   1.839  10.041 -0.5808 -2.2421 -0.4952
   34POPC   C35 4600   5.528   1.873   9.975 -0.2328  0.1883 -0.0339
   34POPC   H5X 4601   5.437   1.907  10.029  1.3597  3.5584  0.8012
   34POPC   H5Y 4602   5.498   1.782   9.918 -0.0470 -1.0192  1.7135
   34POPC   C36 4603   5.567   1.979   9.876  0.5981  0.3406 -0.2779
   34POPC   H6X 4604   5.670   1.963   9.837  1.1759  0.3784  1.1500
   34POPC   H6Y 4605   5.562   2.083   9.917 -1.3226  0.6670 -1.2469
   34POPC   C37 4606   5.472   1.983   9.757  0.2251 -0.3175 -0.3411
   34POPC   H7X 4607   5.370   2.013   9.790  0.6443 -1.8794  2.7614
   34POPC   H7Y 4608   5.470   1.885   9.705 -1.6871  0.4293 -1.7874
   34POPC   C38 4609   5.537   2.077   9.656 -0.4386 -0.0282  0.3934
   34POPC   H8X 4610   5.637   2.034   9.633  0.2880  1.0533  1.4353
   34POPC   H8Y 4611   5.561   2.179   9.692  0.3218  0.2981 -0.9821
   34POPC   C39 4612   5.440   2.095   9.540  0.3233 -0.2641  0.1114
   34POPC   H9X 4613   5.382   2.187   9.559  0.8685  0.4821 -1.6311
   34POPC   H9Y 4614   5.365   2.013   9.536  0.8906 -0.8172  0.5482
   34POPC  C310 4615   5.509   2.122   9.408  0.0613  0.2567 -0.1789
   34POPC  H10X 4616   5.572   2.034   9.384 -0.8696 -0.3661 -0.4251
   34POPC  H10Y 4617   5.580   2.207   9.403  1.0198 -0.6016 -1.7316
   34POPC  C311 4618   5.413   2.135   9.290 -0.0895 -0.1954  0.5285
   34POPC  H11X 4619   5.362   2.234   9.295  0.2205 -0.0395  0.6719
   34POPC  H11Y 4620   5.328   2.065   9.303 -1.1914  0.1074 -3.5841
   34POPC  C312 4621   5.486   2.140   9.161 -0.2507  0.6826 -1.1003
   34POPC  H12X 4622   5.548   2.049   9.162 -1.9204 -0.5500  1.8110
   34POPC  H12Y 4623   5.548   2.232   9.170  0.4457  0.0683  0.8285
   34POPC  C313 4624   5.393   2.140   9.043 -0.5981  0.1882  0.5201
   34POPC  H13X 4625   5.323   2.226   9.055 -1.2327 -0.2357 -0.0526
   34POPC  H13Y 4626   5.337   2.044   9.046  3.3442 -2.3041  2.2121
   34POPC  C314 4627   5.474   2.139   8.914 -0.4053 -0.8400  0.0740
   34POPC  H14X 4628   5.509   2.035   8.895  2.9824  0.7340 -3.6780
   34POPC  H14Y 4629   5.559   2.207   8.932 -1.2204  0.1332  0.3098
   34POPC  C315 4630   5.388   2.175   8.793  0.3504 -0.6139  0.0034
   34POPC  H15X 4631   5.365   2.283   8.804 -0.6343 -0.8294  0.1246
   34POPC  H15Y 4632   5.292   2.120   8.804 -1.0755  1.8294  0.4692
   34POPC  C316 4633   5.449   2.163   8.657 -0.2076  0.2823  0.2184
   34POPC  H16X 4634   5.539   2.228   8.648  0.0064  0.0274  0.4962
   34POPC  H16Y 4635   5.377   2.201   8.582 -2.5225  0.4189  2.3596
   34POPC  H16Z 4636   5.481   2.057   8.643  0.7139  0.6293 -0.4592
   35POPC     N 4637   2.470   0.152  11.278  0.6724  0.6072  0.1070
   35POPC   C12 4638   2.323   0.155  11.304 -0.5075  0.3268  0.2898
   35POPC  H12A 4639   2.302   0.233  11.376 -0.5733  2.2147 -1.6587
   35POPC  H12B 4640   2.282   0.069  11.354 -0.6229  1.1924  1.7575
   35POPC   C13 4641   2.537   0.167  11.413  0.5261  0.5592  0.1344
   35POPC  H13A 4642   2.645   0.162  11.406  0.6618 -2.7298  2.3520
   35POPC  H13B 4643   2.509   0.255  11.469 -1.0643 -0.7339  1.4614
   35POPC  H13C 4644   2.501   0.091  11.481  3.1574  0.3510  1.4402
   35POPC   C14 4645   2.524   0.031  11.215 -0.2184  0.3802 -0.5918
   35POPC  H14A 4646   2.478   0.011  11.119  1.4606 -0.4150 -1.2845
   35POPC  H14B 4647   2.631   0.023  11.200 -0.1229 -0.2169  0.2953
   35POPC  H14C 4648   2.505  -0.060  11.270  1.9600  0.3533  0.2026
   35POPC   C15 4649   2.512   0.263  11.193  0.0177  0.0835 -0.2074
   35POPC  H15A 4650   2.483   0.359  11.234  2.1730  0.5992  0.2449
   35POPC  H15B 4651   2.472   0.257  11.093 -1.3271 -2.1801  0.4092
   35POPC  H15C 4652   2.620   0.276  11.195  0.5216 -2.9659 -1.6128
   35POPC   C11 4653   2.235   0.177  11.183  0.1622 -0.2751 -0.2717
   35POPC  H11A 4654   2.250   0.268  11.120 -1.0830  0.8683  1.0136
   35POPC  H11B 4655   2.140   0.195  11.238  0.2903  0.8920 -0.4198
   35POPC     P 4656   2.155  -0.072  11.147 -0.0481 -0.2267 -0.5178
   35POPC   O13 4657   2.036  -0.032  11.228  0.2558 -0.6053 -0.2041
   35POPC   O14 4658   2.263  -0.150  11.214  0.8226  0.4879 -0.1208
   35POPC   O12 4659   2.221   0.061  11.101  0.2710  0.2395 -0.0258
   35POPC   O11 4660   2.119  -0.150  11.014 -0.2558  0.1631  0.5673
   35POPC    C1 4661   2.210  -0.222  10.931 -0.1287 -0.5761  0.6029
   35POPC    HA 4662   2.208  -0.333  10.937  0.2419 -0.6126  0.0952
   35POPC    HB 4663   2.314  -0.187  10.951 -0.4174  1.1094 -0.6051
   35POPC    C2 4664   2.178  -0.182  10.784  0.6468 -0.7665 -0.0864
   35POPC    HS 4665   2.200  -0.075  10.766 -0.6573 -0.6973 -1.3667
   35POPC   O21 4666   2.043  -0.215  10.747 -1.1313 -0.5872 -0.2482
   35POPC   C21 4667   1.965  -0.124  10.703  0.1189  0.3656  0.4602
   35POPC   O22 4668   1.996  -0.008  10.678  0.1203 -0.1599  0.9067
   35POPC   C22 4669   1.823  -0.192  10.664 -0.5070 -0.6320  0.8223
   35POPC   H2R 4670   1.747  -0.112  10.680 -0.5961 -0.7642  1.0624
   35POPC   H2S 4671   1.782  -0.273  10.727  1.4612 -1.3281  1.2980
   35POPC    C3 4672   2.275  -0.246  10.675  0.3013 -0.0216 -0.0575
   35POPC    HX 4673   2.247  -0.354  10.679  0.6881 -0.1508 -0.8405
   35POPC    HY 4674   2.382  -0.236  10.702  0.7212 -0.6628 -1.4156
   35POPC   O31 4675   2.240  -0.186  10.545 -0.3656 -0.1817  0.6549
   35POPC   C31 4676   2.333  -0.222  10.455 -0.5889 -0.0599 -0.2451
   35POPC   O32 4677   2.435  -0.281  10.479 -0.2800  0.0677 -0.1430
   35POPC   C32 4678   2.293  -0.169  10.317 -0.6041  0.6449 -0.1511
   35POPC   H2X 4679   2.319  -0.061  10.329  1.6465  0.0755  0.6356
   35POPC   H2Y 4680   2.183  -0.184  10.309 -0.6737  0.4287  0.9806
   35POPC   C23 4681   1.822  -0.222  10.521  0.1046 -0.0538 -0.3862
   35POPC   H3R 4682   1.872  -0.145  10.459 -0.5079  0.1212 -0.6705
   35POPC   H3S 4683   1.714  -0.225  10.494 -0.0884  0.7026  0.2474
   35POPC   C24 4684   1.882  -0.365  10.493 -0.0904 -0.2889  0.6053
   35POPC   H4R 4685   1.824  -0.437  10.556  0.4439  0.8254  2.4648
   35POPC   H4S 4686   1.988  -0.365  10.526  0.0063 -1.5503  0.3626
   35POPC   C25 4687   1.857  -0.403  10.346 -0.2927  0.6002 -0.2736
   35POPC   H5R 4688   1.760  -0.370  10.303 -0.0911  1.3170 -0.1763
   35POPC   H5S 4689   1.854  -0.514  10.333 -1.1139  0.6419 -0.5052
   35POPC   C26 4690   1.970  -0.338  10.256 -0.0900  0.6993  0.3436
   35POPC   H6R 4691   2.064  -0.374  10.302 -0.7993 -0.7651  0.7054
   35POPC   H6S 4692   1.967  -0.227  10.267 -2.2644  0.6599  0.6851
   35POPC   C27 4693   1.976  -0.385  10.106  0.3298 -0.6054  0.0065
   35POPC   H7R 4694   1.902  -0.466  10.088 -1.1075  0.7623 -0.4235
   35POPC   H7S 4695   2.076  -0.425  10.079  0.0308 -0.8636 -0.7376
   35POPC   C28 4696   1.947  -0.277   9.999 -0.5067 -0.4509 -0.1948
   35POPC   H8R 4697   1.848  -0.233  10.023 -0.4483 -0.9781  1.1113
   35POPC   H8S 4698   1.947  -0.312   9.893  0.1093  0.4339 -0.4991
   35POPC   C29 4699   2.057  -0.170  10.009 -0.2038  0.1122  0.0664
   35POPC   H91 4700   2.050  -0.096  10.090 -1.1989  0.1811 -0.0755
   35POPC  C210 4701   2.146  -0.135   9.915  0.2482  1.0461  0.8652
   35POPC  H101 4702   2.228  -0.063   9.929  2.7744 -1.2793 -0.8671
   35POPC  C211 4703   2.157  -0.202   9.778 -0.2189  0.5953 -0.5202
   35POPC  H11R 4704   2.098  -0.154   9.697  0.7392 -0.7715 -2.0971
   35POPC  H11S 4705   2.113  -0.303   9.774  1.3559 -0.1382 -0.0645
   35POPC  C212 4706   2.301  -0.221   9.726  0.9948 -0.2075 -0.0476
   35POPC  H12R 4707   2.299  -0.279   9.631 -1.1039  1.3856 -1.0632
   35POPC  H12S 4708   2.366  -0.284   9.791  0.0882 -2.1875 -0.9774
   35POPC  C213 4709   2.367  -0.085   9.699  0.5238  0.6878 -0.2754
   35POPC  H13R 4710   2.413  -0.052   9.794  1.7830  1.8895 -1.2675
   35POPC  H13S 4711   2.293  -0.012   9.661 -0.4812 -1.2359 -2.2527
   35POPC  C214 4712   2.486  -0.098   9.605  0.2679  0.0855  0.6960
   35POPC  H14R 4713   2.557  -0.175   9.642 -3.1018 -3.9339 -0.3788
   35POPC  H14S 4714   2.539  -0.002   9.619 -0.7835  0.7271  0.3689
   35POPC  C215 4715   2.453  -0.129   9.463 -0.0856  0.1757  0.3130
   35POPC  H15R 4716   2.370  -0.202   9.458  0.0991  0.0224 -0.6101
   35POPC  H15S 4717   2.530  -0.179   9.400 -2.1351 -0.2816 -1.9560
   35POPC  C216 4718   2.405  -0.006   9.379 -0.3214  1.0908  1.3351
   35POPC  H16R 4719   2.490   0.064   9.393 -0.0058  0.9178  0.3212
   35POPC  H16S 4720   2.310   0.027   9.427 -1.8910 -0.4777 -0.5470
   35POPC  C217 4721   2.393  -0.035   9.225  0.2002  0.2250 -1.5854
   35POPC  H17R 4722   2.297  -0.088   9.207 -0.7753  1.2467  0.2100
   35POPC  H17S 4723   2.476  -0.103   9.198 -0.1263 -0.1704 -1.5891
   35POPC  C218 4724   2.396   0.074   9.128 -0.0502 -0.0455 -0.5805
   35POPC  H18R 4725   2.289   0.098   9.110 -0.0827 -0.2552 -0.6583
   35POPC  H18S 4726   2.443   0.036   9.035 -0.1592  0.3487 -0.7964
   35POPC  H18T 4727   2.456   0.160   9.165  1.0271 -0.3018 -1.6650
   35POPC   C33 4728   2.385  -0.224  10.203  0.0600 -0.6294 -0.0152
   35POPC   H3X 4729   2.331  -0.211  10.107 -0.5712  1.1981  0.5480
   35POPC   H3Y 4730   2.396  -0.334  10.208  1.9433 -0.7054 -3.1866
   35POPC   C34 4731   2.524  -0.152  10.208  0.2699 -0.6381  0.1791
   35POPC   H4X 4732   2.582  -0.181  10.299  0.4901 -0.3841  0.1233
   35POPC   H4Y 4733   2.503  -0.043  10.213 -0.9469 -0.7160 -2.0541
   35POPC   C35 4734   2.617  -0.189  10.091 -0.6722  0.3605  0.1282
   35POPC   H5X 4735   2.707  -0.124  10.094 -0.1712 -0.2547 -0.9982
   35POPC   H5Y 4736   2.564  -0.164   9.997 -0.6689 -0.5542 -0.1248
   35POPC   C36 4737   2.663  -0.334  10.081  0.2569  0.4106 -0.1685
   35POPC   H6X 4738   2.578  -0.405  10.089 -0.3921  1.0638 -1.0259
   35POPC   H6Y 4739   2.725  -0.353  10.171  0.5246 -0.6197 -0.5649
   35POPC   C37 4740   2.746  -0.377   9.953 -0.1446  0.0796  0.1150
   35POPC   H7X 4741   2.775  -0.483   9.968  2.2074  0.4709 -1.2266
   35POPC   H7Y 4742   2.844  -0.327   9.939  1.1658 -2.8431 -2.2081
   35POPC   C38 4743   2.666  -0.356   9.826  0.2315  0.0968 -0.1750
   35POPC   H8X 4744   2.667  -0.248   9.798 -0.7856 -0.6313 -3.4279
   35POPC   H8Y 4745   2.562  -0.392   9.837 -0.3459  1.5696 -0.4679
   35POPC   C39 4746   2.725  -0.444   9.714  0.2559 -0.5957  0.0988
   35POPC   H9X 4747   2.645  -0.510   9.674 -1.4617  0.3000  1.8700
   35POPC   H9Y 4748   2.792  -0.526   9.747  0.5354 -0.2990  0.2762
   35POPC  C310 4749   2.793  -0.367   9.600  0.5984 -0.0215 -0.0428
   35POPC  H10X 4750   2.873  -0.305   9.645  1.6064 -2.9291  2.6118
   35POPC  H10Y 4751   2.717  -0.309   9.544  1.4344 -0.9536 -2.2654
   35POPC  C311 4752   2.861  -0.460   9.496  0.0382  0.3996 -0.8059
   35POPC  H11X 4753   2.948  -0.504   9.549 -0.6535  1.6787  1.4837
   35POPC  H11Y 4754   2.883  -0.398   9.407  2.0974 -1.5960 -1.7898
   35POPC  C312 4755   2.775  -0.579   9.446  0.1615  0.0768 -0.0122
   35POPC  H12X 4756   2.740  -0.654   9.520  1.9477  0.4539  1.2984
   35POPC  H12Y 4757   2.835  -0.641   9.376  0.7025 -0.8060  1.2015
   35POPC  C313 4758   2.659  -0.533   9.363 -0.2207 -0.0242 -0.2889
   35POPC  H13X 4759   2.698  -0.456   9.293  1.1353  1.0413  1.5307
   35POPC  H13Y 4760   2.585  -0.497   9.438 -0.7429 -1.2791 -0.1691
   35POPC  C314 4761   2.593  -0.639   9.275  0.0073 -0.0797  0.3213
   35POPC  H14X 4762   2.663  -0.659   9.190 -2.0707 -2.1645 -1.0393
   35POPC  H14Y 4763   2.499  -0.594   9.237 -0.6972 -0.5128  1.4976
   35POPC  C315 4764   2.550  -0.764   9.351 -0.0583  0.3527 -0.3089
   35POPC  H15X 4765   2.631  -0.831   9.385 -0.6684 -0.8188 -1.0700
   35POPC  H15Y 4766   2.492  -0.819   9.273  1.0009  2.2283 -2.5263
   35POPC  C316 4767   2.457  -0.757   9.470  0.2198 -0.3264  0.5231
   35POPC  H16X 4768   2.508  -0.713   9.558 -0.9859  1.6339  0.2848
   35POPC  H16Y 4769   2.417  -0.857   9.497 -1.6571 -0.0295 -0.9613
   35POPC  H16Z 4770   2.366  -0.696   9.456  0.6964  0.0399 -1.2565
   36POPC     N 4771   3.975   5.307  10.856 -0.3032  0.0145  0.2707
   36POPC   C12 4772   4.032   5.210  10.953 -0.1390  0.2561 -0.3092
   36POPC  H12A 4773   3.952   5.139  10.968  0.0564 -0.1009 -0.9210
   36POPC  H12B 4774   4.059   5.257  11.046 -1.8001  1.5578 -0.4276
   36POPC   C13 4775   3.912   5.231  10.739 -0.1532  0.2155  0.2495
   36POPC  H13A 4776   3.838   5.294  10.692 -1.8614 -2.2400 -0.5735
   36POPC  H13B 4777   3.991   5.203  10.670  1.0932  0.5401  1.4957
   36POPC  H13C 4778   3.856   5.141  10.761  0.1614 -0.1443 -0.3802
   36POPC   C14 4779   3.873   5.396  10.917  0.5126  0.9372  0.4383
   36POPC  H14A 4780   3.800   5.429  10.846 -0.7253 -0.2520  1.1113
   36POPC  H14B 4781   3.807   5.335  10.977 -1.0687  1.2360 -0.9547
   36POPC  H14C 4782   3.915   5.483  10.967  3.1743  0.3398 -0.5845
   36POPC   C15 4783   4.083   5.396  10.794  0.9302  0.2118  0.0042
   36POPC  H15A 4784   4.136   5.444  10.875 -0.8178  2.3943 -0.0482
   36POPC  H15B 4785   4.035   5.479  10.746  1.0455  0.9325  1.1027
   36POPC  H15C 4786   4.146   5.339  10.727 -2.6688 -1.2966 -2.3752
   36POPC   C11 4787   4.164   5.137  10.917  0.3753 -0.1008 -0.3242
   36POPC  H11A 4788   4.160   5.107  10.810  0.5386  0.1600 -0.4040
   36POPC  H11B 4789   4.177   5.047  10.982 -0.7293 -0.9640 -1.2514
   36POPC     P 4790   4.404   5.228  10.905 -0.1375 -0.3037  0.0619
   36POPC   O13 4791   4.485   5.137  10.992 -0.5251  0.0616  0.2183
   36POPC   O14 4792   4.447   5.369  10.886  0.2260  0.1238 -0.1973
   36POPC   O12 4793   4.258   5.230  10.952 -0.1000  0.0714 -0.2544
   36POPC   O11 4794   4.385   5.159  10.760  0.1103  0.4086  0.1183
   36POPC    C1 4795   4.489   5.094  10.692 -0.8279 -0.1817  0.2312
   36POPC    HA 4796   4.553   5.028  10.754 -0.1059 -0.3901 -0.7193
   36POPC    HB 4797   4.556   5.151  10.625  3.0745 -1.0875  3.0399
   36POPC    C2 4798   4.420   4.984  10.601  0.0061  0.9002  0.0957
   36POPC    HS 4799   4.495   4.905  10.576  0.4927  0.3695  2.8511
   36POPC   O21 4800   4.339   5.031  10.492  0.7194 -0.1772  0.0408
   36POPC   C21 4801   4.412   5.068  10.385  0.4934  1.1237  1.3610
   36POPC   O22 4802   4.527   5.039  10.360 -0.4340  0.2295  0.1442
   36POPC   C22 4803   4.326   5.142  10.276  0.6040 -0.5516 -0.0759
   36POPC   H2R 4804   4.357   5.248  10.274  0.4276 -0.4805  0.6065
   36POPC   H2S 4805   4.223   5.133  10.315 -0.0859 -0.6796 -1.8359
   36POPC    C3 4806   4.327   4.901  10.702  0.6745  0.3379 -0.3100
   36POPC    HX 4807   4.245   4.966  10.736  0.8737  0.7983 -0.6967
   36POPC    HY 4808   4.387   4.868  10.790 -1.5353 -2.9041  0.1293
   36POPC   O31 4809   4.274   4.792  10.628  0.2466  1.0238 -0.0521
   36POPC   C31 4810   4.179   4.722  10.691 -0.5836 -0.5027 -0.1056
   36POPC   O32 4811   4.132   4.750  10.796 -0.1806 -0.1050  0.2500
   36POPC   C32 4812   4.158   4.596  10.618 -0.1100  0.0301  0.3513
   36POPC   H2X 4813   4.137   4.510  10.685  0.3719 -0.1481  0.2781
   36POPC   H2Y 4814   4.249   4.571  10.560  0.0086 -1.9219  1.2829
   36POPC   C23 4815   4.341   5.084  10.130 -0.1663 -0.1021  0.2361
   36POPC   H3R 4816   4.304   4.980  10.131 -1.1058  0.1380 -2.2926
   36POPC   H3S 4817   4.450   5.087  10.110 -0.3927  0.3825 -1.0454
   36POPC   C24 4818   4.252   5.158  10.025 -0.2818 -0.1278  0.2663
   36POPC   H4R 4819   4.290   5.118   9.929  0.4886  0.8841  0.1274
   36POPC   H4S 4820   4.272   5.268  10.024 -0.7856 -0.0349  0.0901
   36POPC   C25 4821   4.100   5.140  10.031 -0.4090  0.5108  0.2268
   36POPC   H5R 4822   4.066   5.167  10.133 -1.4295  0.6548 -0.1455
   36POPC   H5S 4823   4.074   5.034  10.013 -1.3963  0.3417  2.3455
   36POPC   C26 4824   4.035   5.213   9.922  0.0052 -0.3239  0.7430
   36POPC   H6R 4825   4.053   5.162   9.825  0.2691 -0.1314  0.6885
   36POPC   H6S 4826   4.082   5.313   9.908 -0.0417 -0.1137  1.9399
   36POPC   C27 4827   3.887   5.249   9.951  0.0352  0.0725 -0.0288
   36POPC   H7R 4828   3.889   5.309  10.044 -0.1652  1.0884 -0.6596
   36POPC   H7S 4829   3.842   5.149   9.972  2.9611 -0.8119  2.7266
   36POPC   C28 4830   3.814   5.340   9.849 -0.0801 -0.0460 -0.3974
   36POPC   H8R 4831   3.866   5.435   9.822  0.2495 -0.6655 -2.0969
   36POPC   H8S 4832   3.710   5.358   9.886 -0.3271  0.1005 -1.1352
   36POPC   C29 4833   3.800   5.266   9.716 -0.2571 -0.1369  0.6180
   36POPC   H91 4834   3.718   5.193   9.707 -1.4356  1.1654  0.4705
   36POPC  C210 4835   3.861   5.290   9.594 -0.1251  0.0826  0.0206
   36POPC  H101 4836   3.841   5.227   9.506 -0.9272  0.1871  0.1141
   36POPC  C211 4837   3.962   5.403   9.577  0.3678  0.2038  0.1457
   36POPC  H11R 4838   4.047   5.362   9.518  1.2463  1.3398  0.6066
   36POPC  H11S 4839   3.998   5.425   9.679 -0.2190  1.0806  0.1715
   36POPC  C212 4840   3.914   5.526   9.503  0.1153  0.7910  0.0236
   36POPC  H12R 4841   3.824   5.566   9.555 -0.5654 -0.0877 -0.4560
   36POPC  H12S 4842   3.894   5.509   9.395  0.0795  1.4073 -0.0697
   36POPC  C213 4843   4.014   5.636   9.493 -0.4635 -0.6243  0.1806
   36POPC  H13R 4844   4.114   5.598   9.461 -1.1059 -0.4783 -2.1849
   36POPC  H13S 4845   4.030   5.692   9.587  0.4661  2.6460 -1.7451
   36POPC  C214 4846   3.971   5.739   9.389  0.0952 -0.9378  0.4960
   36POPC  H14R 4847   3.869   5.770   9.419  0.3353  2.6532 -1.8132
   36POPC  H14S 4848   3.968   5.694   9.288  0.3292 -0.8053  0.4294
   36POPC  C215 4849   4.060   5.864   9.372  0.5498  0.4423 -0.1327
   36POPC  H15R 4850   4.162   5.839   9.337  0.4071  1.3427 -1.2363
   36POPC  H15S 4851   4.068   5.917   9.470  3.2220 -0.3002  0.1248
   36POPC  C216 4852   3.998   5.955   9.262 -0.0352  0.2837  1.3619
   36POPC  H16R 4853   3.906   5.997   9.309 -2.0462  2.3928 -3.7424
   36POPC  H16S 4854   3.964   5.894   9.176  1.6902  0.1762  0.7408
   36POPC  C217 4855   4.106   6.062   9.227  0.1817 -0.2906  1.1791
   36POPC  H17R 4856   4.194   6.015   9.177 -0.4098 -0.9519  0.7496
   36POPC  H17S 4857   4.146   6.103   9.322  3.3868  1.1433 -0.6226
   36POPC  C218 4858   4.069   6.185   9.143 -0.3146  0.0161 -0.0408
   36POPC  H18R 4859   4.153   6.258   9.132 -1.3867  1.2495 -0.3160
   36POPC  H18S 4860   3.987   6.237   9.198  0.4586 -0.4135  1.5912
   36POPC  H18T 4861   4.032   6.149   9.045  2.2569 -3.9649  0.2172
   36POPC   C33 4862   4.055   4.607  10.510 -0.3495  0.3405  0.5332
   36POPC   H3X 4863   3.955   4.633  10.550 -0.4946  0.4846  0.0880
   36POPC   H3Y 4864   4.033   4.510  10.462 -0.0062  0.2796  0.4957
   36POPC   C34 4865   4.096   4.706  10.401 -0.7205 -0.3140 -0.6821
   36POPC   H4X 4866   4.183   4.665  10.344  0.0313  2.7686 -1.9374
   36POPC   H4Y 4867   4.130   4.801  10.446  3.7546 -1.6090 -0.8117
   36POPC   C35 4868   3.990   4.710  10.296 -0.3589 -0.7070 -0.1694
   36POPC   H5X 4869   3.902   4.755  10.347  0.5248 -0.7798  1.5274
   36POPC   H5Y 4870   3.982   4.601  10.281  1.6762 -0.8764 -0.2343
   36POPC   C36 4871   4.038   4.785  10.174  0.3898  0.5709  0.3925
   36POPC   H6X 4872   4.127   4.726  10.144  0.2803  1.3002 -1.4928
   36POPC   H6Y 4873   4.068   4.891  10.191  0.6718  0.1704  2.8256
   36POPC   C37 4874   3.931   4.789  10.071  0.2945  0.4608  0.1839
   36POPC   H7X 4875   3.885   4.692  10.042  0.8617  0.5549 -1.1399
   36POPC   H7Y 4876   3.984   4.821   9.978  2.7356  0.0318  1.3601
   36POPC   C38 4877   3.810   4.893  10.087 -0.2946  0.3800 -0.1484
   36POPC   H8X 4878   3.852   4.993  10.116  1.4495 -0.3433 -0.0307
   36POPC   H8Y 4879   3.745   4.863  10.172 -1.7130  2.1112 -0.5596
   36POPC   C39 4880   3.730   4.906   9.961 -0.1753 -0.8224  0.8845
   36POPC   H9X 4881   3.797   4.913   9.873  0.3927 -2.2650  1.1608
   36POPC   H9Y 4882   3.675   5.002   9.970 -0.5197 -0.9716  0.4173
   36POPC  C310 4883   3.637   4.790   9.930 -0.1565  0.3865  0.3432
   36POPC  H10X 4884   3.693   4.694   9.920  1.5594  1.3464  0.4962
   36POPC  H10Y 4885   3.592   4.802   9.829  2.2084  1.9480 -0.6012
   36POPC  C311 4886   3.536   4.767  10.040 -0.5283 -0.1261 -0.7568
   36POPC  H11X 4887   3.505   4.866  10.079 -2.9874 -1.2027  0.1771
   36POPC  H11Y 4888   3.587   4.714  10.123  0.6314  1.2612 -0.5306
   36POPC  C312 4889   3.417   4.680   9.991  0.4538  0.2171  0.2788
   36POPC  H12X 4890   3.357   4.735   9.916  1.0741  2.7633  1.5204
   36POPC  H12Y 4891   3.348   4.660  10.077  1.6218  1.7904  1.6427
   36POPC  C313 4892   3.465   4.541   9.948 -0.0085 -0.4481 -0.4484
   36POPC  H13X 4893   3.507   4.484  10.033  0.5928  1.1515  0.3678
   36POPC  H13Y 4894   3.547   4.560   9.875  0.3667 -2.0370 -0.4735
   36POPC  C314 4895   3.378   4.455   9.866  0.3926 -0.1287 -0.5711
   36POPC  H14X 4896   3.291   4.415   9.922 -0.1856 -1.7322 -2.5142
   36POPC  H14Y 4897   3.451   4.375   9.843 -0.7871 -1.8890  1.5349
   36POPC  C315 4898   3.324   4.523   9.735 -0.2493 -0.1318 -0.4353
   36POPC  H15X 4899   3.267   4.612   9.768 -0.1568 -1.3592  3.4264
   36POPC  H15Y 4900   3.254   4.449   9.689 -1.8315  0.2983  1.1869
   36POPC  C316 4901   3.421   4.564   9.627  0.1675  0.5115  0.4147
   36POPC  H16X 4902   3.365   4.591   9.535 -1.9282  0.0113  1.4931
   36POPC  H16Y 4903   3.491   4.479   9.617 -1.4122 -0.7157 -0.8200
   36POPC  H16Z 4904   3.467   4.660   9.660  0.8918  0.0795  0.6799
   37POPC     N 4905   0.029   6.751   6.336 -0.0618 -0.7146  0.0185
   37POPC   C12 4906   0.142   6.853   6.359  0.4546  0.3005  0.5320
   37POPC  H12A 4907   0.125   6.940   6.297  2.4710  2.1232  2.3502
   37POPC  H12B 4908   0.230   6.809   6.315  0.1332  1.0954 -0.9529
   37POPC   C13 4909   0.024   6.729   6.192 -0.0737  0.8906  0.8296
   37POPC  H13A 4910   0.003   6.817   6.134 -1.4527 -0.8098 -1.4294
   37POPC  H13B 4911   0.117   6.687   6.158 -0.0125 -2.2356  4.2029
   37POPC  H13C 4912  -0.062   6.668   6.166 -0.0569  0.6286  1.3593
   37POPC   C14 4913   0.059   6.617   6.399  0.1141 -0.0339 -0.2593
   37POPC  H14A 4914  -0.017   6.546   6.370 -0.9181  1.5821 -1.7302
   37POPC  H14B 4915   0.160   6.591   6.372 -0.3019  0.7415 -2.7865
   37POPC  H14C 4916   0.046   6.623   6.506 -0.9074  0.0944 -0.3808
   37POPC   C15 4917  -0.103   6.799   6.382  0.7625  0.7758  0.5901
   37POPC  H15A 4918  -0.174   6.721   6.359  3.3331 -2.1310  1.7544
   37POPC  H15B 4919  -0.134   6.888   6.328  1.4873  1.3538  1.0953
   37POPC  H15C 4920  -0.114   6.819   6.487  0.0668  0.7954  0.5172
   37POPC   C11 4921   0.171   6.908   6.500 -0.3153  0.4601 -0.4703
   37POPC  H11A 4922   0.263   6.969   6.488 -1.0666  1.3967 -1.7183
   37POPC  H11B 4923   0.190   6.811   6.550  0.5275  0.3501 -0.9803
   37POPC     P 4924   0.000   6.938   6.694 -0.3446 -0.3426 -0.4050
   37POPC   O13 4925  -0.090   6.826   6.673 -0.4686  0.1993  0.6544
   37POPC   O14 4926  -0.061   7.057   6.763 -0.3143  0.6351  0.5929
   37POPC   O12 4927   0.059   6.985   6.552  0.2581  0.1127  0.1803
   37POPC   O11 4928   0.118   6.905   6.794 -0.2767 -0.0005  0.5341
   37POPC    C1 4929   0.190   7.020   6.846 -0.2575 -0.5896 -0.5252
   37POPC    HA 4930   0.127   7.082   6.913 -0.9553  0.6308 -2.2512
   37POPC    HB 4931   0.226   7.078   6.758 -1.2538  0.8471 -0.0167
   37POPC    C2 4932   0.317   6.974   6.915  0.3256 -0.5027 -0.1525
   37POPC    HS 4933   0.365   6.904   6.844 -0.9401 -3.2889  1.5397
   37POPC   O21 4934   0.285   6.898   7.031  0.1300  0.9407  0.3786
   37POPC   C21 4935   0.390   6.832   7.078 -0.2777  0.1221 -0.2073
   37POPC   O22 4936   0.493   6.796   7.022  0.2841 -0.8654  0.1504
   37POPC   C22 4937   0.357   6.810   7.227 -0.0916  0.2311 -0.4295
   37POPC   H2R 4938   0.449   6.840   7.281 -1.9883  0.0615  3.2268
   37POPC   H2S 4939   0.356   6.699   7.234  0.4455  0.1506 -1.3489
   37POPC    C3 4940   0.416   7.095   6.955  0.5445  0.1486  0.2754
   37POPC    HX 4941   0.411   7.177   6.880 -0.2924  0.7008  0.9151
   37POPC    HY 4942   0.510   7.035   6.958  0.4775  0.0814  2.1569
   37POPC   O31 4943   0.384   7.153   7.084  0.1448  0.1436  0.0721
   37POPC   C31 4944   0.483   7.226   7.133  0.3930 -0.2726 -0.5248
   37POPC   O32 4945   0.585   7.256   7.073  1.1202  0.0343  0.0596
   37POPC   C32 4946   0.454   7.278   7.269 -0.5922 -0.1749 -0.7523
   37POPC   H2X 4947   0.365   7.345   7.264 -0.2771  0.3541  0.2736
   37POPC   H2Y 4948   0.535   7.352   7.290 -0.5926 -0.0822 -1.0797
   37POPC   C23 4949   0.226   6.871   7.283 -0.9747  0.1072 -0.2399
   37POPC   H3R 4950   0.136   6.853   7.221 -2.0872  1.2207  0.9788
   37POPC   H3S 4951   0.236   6.982   7.286  0.0034  0.0211  0.8563
   37POPC   C24 4952   0.190   6.820   7.431 -0.1550  0.2258  0.2932
   37POPC   H4R 4953   0.174   6.711   7.424  1.4893 -0.0136 -0.1664
   37POPC   H4S 4954   0.101   6.883   7.451 -1.0724 -1.0242  0.2041
   37POPC   C25 4955   0.292   6.869   7.539  0.1735 -0.0955 -0.2376
   37POPC   H5R 4956   0.264   6.974   7.563 -1.5434 -0.3683 -0.8820
   37POPC   H5S 4957   0.399   6.852   7.516  0.8405  1.6066  1.3285
   37POPC   C26 4958   0.260   6.785   7.661  0.7742 -0.4737  0.3400
   37POPC   H6R 4959   0.267   6.679   7.630 -1.0171  0.2659 -3.1763
   37POPC   H6S 4960   0.155   6.808   7.691  0.2610  0.3673 -1.8798
   37POPC   C27 4961   0.359   6.812   7.777 -0.1442  0.7952 -1.0738
   37POPC   H7R 4962   0.369   6.919   7.803 -0.2932  0.5484  0.0407
   37POPC   H7S 4963   0.454   6.772   7.736 -0.2160 -0.9034  0.2896
   37POPC   C28 4964   0.323   6.714   7.893 -0.3218  0.9028 -0.5611
   37POPC   H8R 4965   0.394   6.701   7.977  1.5634  1.2430 -2.0175
   37POPC   H8S 4966   0.307   6.615   7.845  2.6447  0.6514 -1.2467
   37POPC   C29 4967   0.197   6.776   7.953 -0.9428  0.5248  1.0594
   37POPC   H91 4968   0.162   6.875   7.921 -0.7821  0.0309 -0.7312
   37POPC  C210 4969   0.135   6.712   8.052  0.3535 -0.0575 -0.0257
   37POPC  H101 4970   0.051   6.768   8.094 -2.8562 -3.4292 -1.3466
   37POPC  C211 4971   0.160   6.579   8.123  0.1652 -0.5257  0.0958
   37POPC  H11R 4972   0.208   6.513   8.048 -1.6104 -0.3338 -1.2632
   37POPC  H11S 4973   0.061   6.534   8.146 -0.1909 -1.0753 -2.3380
   37POPC  C212 4974   0.235   6.591   8.251 -0.1517 -1.1336 -0.3879
   37POPC  H12R 4975   0.186   6.659   8.324  1.4281 -3.0813  2.7064
   37POPC  H12S 4976   0.338   6.632   8.238 -0.0288 -1.4385 -0.3716
   37POPC  C213 4977   0.251   6.459   8.326 -0.1160 -0.1988 -0.0196
   37POPC  H13R 4978   0.295   6.388   8.253 -1.6310 -1.8378  0.5677
   37POPC  H13S 4979   0.151   6.415   8.347  0.2117 -1.9511 -1.8663
   37POPC  C214 4980   0.349   6.461   8.447  0.4903  0.1521  0.0603
   37POPC  H14R 4981   0.315   6.542   8.514  0.0140 -0.4400  0.5514
   37POPC  H14S 4982   0.450   6.481   8.407  1.4718 -1.1907  1.7073
   37POPC  C215 4983   0.349   6.337   8.535  0.0740  0.1479 -0.1684
   37POPC  H15R 4984   0.247   6.319   8.574  0.8515 -1.1765  1.3747
   37POPC  H15S 4985   0.404   6.361   8.629  0.5914  1.8687 -0.8632
   37POPC  C216 4986   0.387   6.195   8.472  0.0531 -0.2466 -0.1558
   37POPC  H16R 4987   0.491   6.183   8.435  1.0166  1.1287  1.9279
   37POPC  H16S 4988   0.325   6.174   8.382 -0.3701  0.3372 -0.0060
   37POPC  C217 4989   0.352   6.071   8.561  0.0926 -0.6826 -0.0132
   37POPC  H17R 4990   0.351   5.970   8.516  0.7309 -0.8743  0.3988
   37POPC  H17S 4991   0.248   6.093   8.594  0.4282 -0.7487  1.1297
   37POPC  C218 4992   0.445   6.058   8.686 -0.0849 -0.1565 -0.4870
   37POPC  H18R 4993   0.439   6.137   8.764  2.1081 -1.3049  0.9518
   37POPC  H18S 4994   0.549   6.057   8.647 -0.2289  0.0967 -0.8891
   37POPC  H18T 4995   0.438   5.956   8.729  1.2128  0.7455  2.0666
   37POPC   C33 4996   0.427   7.165   7.379 -1.0146 -0.2096 -0.2349
   37POPC   H3X 4997   0.493   7.076   7.370  1.0668  1.1429  0.8760
   37POPC   H3Y 4998   0.325   7.121   7.385  0.0600 -3.1640 -1.4017
   37POPC   C34 4999   0.447   7.210   7.525  0.0947  0.0932 -0.1115
   37POPC   H4X 5000   0.547   7.256   7.543 -0.8114  1.5879  1.3656
   37POPC   H4Y 5001   0.432   7.134   7.604 -0.2344 -0.1055 -0.3644
   37POPC   C35 5002   0.340   7.315   7.567 -0.0340  1.3383  0.5476
   37POPC   H5X 5003   0.247   7.259   7.593  0.7895 -0.0571  0.5818
   37POPC   H5Y 5004   0.314   7.384   7.484 -3.0733 -0.4518 -0.1705
   37POPC   C36 5005   0.382   7.391   7.695 -0.4003 -0.8893  0.5935
   37POPC   H6X 5006   0.301   7.462   7.724  0.1468  0.7350 -1.5701
   37POPC   H6Y 5007   0.474   7.451   7.680 -1.5977  0.7392 -0.7708
   37POPC   C37 5008   0.416   7.295   7.807  0.8625 -0.3561  0.0734
   37POPC   H7X 5009   0.510   7.236   7.799  1.7112  0.5968  2.2009
   37POPC   H7Y 5010   0.332   7.222   7.811  0.4831  0.0595 -0.1765
   37POPC   C38 5011   0.435   7.387   7.934 -0.3476 -0.0987  0.4399
   37POPC   H8X 5012   0.359   7.467   7.941 -0.0509  0.2067  0.2238
   37POPC   H8Y 5013   0.536   7.433   7.927 -0.0620 -0.8363 -0.4276
   37POPC   C39 5014   0.416   7.315   8.071 -0.8474  0.0793 -0.8626
   37POPC   H9X 5015   0.494   7.237   8.086 -1.5223 -0.4289  0.0882
   37POPC   H9Y 5016   0.324   7.255   8.060 -1.5530  0.6425  1.4387
   37POPC  C310 5017   0.419   7.410   8.187  0.0999  0.4799  0.3387
   37POPC  H10X 5018   0.399   7.360   8.285  1.2990 -2.4383 -0.7846
   37POPC  H10Y 5019   0.347   7.493   8.170 -1.9144 -1.0728  0.8335
   37POPC  C311 5020   0.563   7.471   8.213  0.8478  0.1076  0.1474
   37POPC  H11X 5021   0.550   7.534   8.304  2.7927  3.3850 -1.6781
   37POPC  H11Y 5022   0.588   7.542   8.132  0.4463 -1.8975 -1.8251
   37POPC  C312 5023   0.679   7.370   8.216  0.0926  0.4415 -0.6983
   37POPC  H12X 5024   0.688   7.331   8.112 -1.9531 -1.1711 -0.3374
   37POPC  H12Y 5025   0.654   7.284   8.282  3.0780  0.4785  0.6513
   37POPC  C313 5026   0.807   7.435   8.277 -0.0936 -0.3240 -0.3225
   37POPC  H13X 5027   0.883   7.355   8.270  0.1758 -0.0699 -0.3048
   37POPC  H13Y 5028   0.781   7.464   8.381  3.1926 -0.5609  0.6658
   37POPC  C314 5029   0.864   7.565   8.208  0.2791  0.1647 -0.1801
   37POPC  H14X 5030   0.782   7.640   8.209  0.1565  0.0483 -0.9465
   37POPC  H14Y 5031   0.886   7.542   8.101 -0.3015 -1.2858 -0.0051
   37POPC  C315 5032   0.989   7.627   8.267  0.2796  0.0688 -0.0007
   37POPC  H15X 5033   0.963   7.662   8.369  0.2754  0.2289 -0.0559
   37POPC  H15Y 5034   1.019   7.718   8.212  0.6218 -0.1836 -0.2337
   37POPC  C316 5035   1.106   7.525   8.280 -0.3711 -0.4569  0.7650
   37POPC  H16X 5036   1.201   7.569   8.317  0.5146 -0.7276 -1.0335
   37POPC  H16Y 5037   1.131   7.478   8.182 -1.8213 -0.7938  0.5360
   37POPC  H16Z 5038   1.081   7.439   8.345  2.6267 -0.4573  2.0583
   38POPC     N 5039   3.605   5.537   6.344 -0.3494  0.6176  0.0816
   38POPC   C12 5040   3.699   5.423   6.377 -0.6670  0.2199 -0.0690
   38POPC  H12A 5041   3.798   5.465   6.388  0.1938 -1.8700  0.6668
   38POPC  H12B 5042   3.701   5.357   6.292  1.6974  0.0805  0.0445
   38POPC   C13 5043   3.477   5.481   6.289 -0.4165 -0.0404 -1.0066
   38POPC  H13A 5044   3.437   5.406   6.354  0.8971  0.4393  0.4160
   38POPC  H13B 5045   3.399   5.553   6.269  0.4416  0.6475 -2.0259
   38POPC  H13C 5046   3.509   5.434   6.197 -0.0608 -0.0597 -0.8762
   38POPC   C14 5047   3.566   5.611   6.466 -0.4816 -0.1057  0.0825
   38POPC  H14A 5048   3.514   5.554   6.541  0.6205  0.6963  1.5198
   38POPC  H14B 5049   3.647   5.663   6.514  0.2487  0.0534 -1.2866
   38POPC  H14C 5050   3.491   5.681   6.432 -1.7920 -1.2251  0.5835
   38POPC   C15 5051   3.672   5.627   6.249  0.4025 -0.1684  0.1353
   38POPC  H15A 5052   3.678   5.571   6.157 -1.2788  1.4898 -1.0803
   38POPC  H15B 5053   3.769   5.653   6.289 -0.1988  1.8755  0.4186
   38POPC  H15C 5054   3.611   5.717   6.243  0.1561 -0.3406  0.0391
   38POPC   C11 5055   3.669   5.329   6.497  0.0033 -0.4092 -0.5263
   38POPC  H11A 5056   3.651   5.385   6.591 -1.2930  3.0411 -2.6476
   38POPC  H11B 5057   3.765   5.275   6.509 -0.7993 -2.2705 -1.9704
   38POPC     P 5058   3.597   5.101   6.372 -0.3548  0.0382  0.3191
   38POPC   O13 5059   3.693   5.129   6.262 -0.4670 -0.8580  0.1389
   38POPC   O14 5060   3.466   5.037   6.338 -0.3470  0.5602  0.5297
   38POPC   O12 5061   3.563   5.238   6.459  0.7060 -0.7494 -0.0741
   38POPC   O11 5062   3.677   5.016   6.474  0.5512 -0.0527  0.2375
   38POPC    C1 5063   3.622   4.920   6.557  0.8993  0.1216  0.1448
   38POPC    HA 5064   3.674   4.822   6.551  1.2873  0.2098  1.6574
   38POPC    HB 5065   3.519   4.891   6.528  0.6751 -1.5283  2.2940
   38POPC    C2 5066   3.622   4.960   6.708 -0.6802  0.0240 -0.2601
   38POPC    HS 5067   3.564   5.055   6.704  0.2351  0.6402  0.6175
   38POPC   O21 5068   3.759   4.978   6.741  0.6009 -0.6089 -0.1190
   38POPC   C21 5069   3.787   5.089   6.806 -0.2022 -0.3531 -0.1252
   38POPC   O22 5070   3.709   5.169   6.856 -0.0169 -0.6466  0.4743
   38POPC   C22 5071   3.939   5.086   6.834 -0.0841 -0.0212  0.2199
   38POPC   H2R 5072   3.998   5.101   6.741 -1.1089  0.5856 -0.3353
   38POPC   H2S 5073   3.937   4.984   6.880 -2.2525  0.4708  1.3333
   38POPC    C3 5074   3.553   4.862   6.798  0.2994  0.8673 -0.0766
   38POPC    HX 5075   3.581   4.759   6.767  0.4546  0.5864  0.9823
   38POPC    HY 5076   3.447   4.852   6.764  0.8969 -3.0355 -1.2879
   38POPC   O31 5077   3.566   4.886   6.943  0.5870  0.3756 -0.2638
   38POPC   C31 5078   3.652   4.802   7.001 -0.2388 -0.0813  0.3919
   38POPC   O32 5079   3.690   4.696   6.949  0.1936  0.0204  0.0915
   38POPC   C32 5080   3.704   4.857   7.137  0.6385 -0.0105 -0.0265
   38POPC   H2X 5081   3.617   4.861   7.207 -0.3017 -0.7409 -1.1204
   38POPC   H2Y 5082   3.733   4.963   7.120 -0.1715 -0.0423 -1.8146
   38POPC   C23 5083   3.975   5.188   6.943  0.8232 -0.6462 -0.1803
   38POPC   H3R 5084   3.894   5.181   7.018  1.3535 -0.4590  0.4190
   38POPC   H3S 5085   3.971   5.292   6.905 -2.4403 -1.2436 -1.8796
   38POPC   C24 5086   4.107   5.154   6.995 -0.4212 -0.1868 -0.6954
   38POPC   H4R 5087   4.172   5.243   6.990  0.5275 -0.9149 -1.8559
   38POPC   H4S 5088   4.161   5.085   6.927 -1.2680  0.1548 -1.7369
   38POPC   C25 5089   4.121   5.089   7.141  0.6910 -0.3916  0.5262
   38POPC   H5R 5090   4.073   4.989   7.130 -1.8905  0.9951 -2.4846
   38POPC   H5S 5091   4.066   5.151   7.215  0.7051 -1.5596  1.5498
   38POPC   C26 5092   4.269   5.084   7.186  0.1746  0.3405  0.0155
   38POPC   H6R 5093   4.311   5.185   7.205 -0.7747  0.7264  0.1004
   38POPC   H6S 5094   4.318   5.036   7.099 -1.8245 -1.1977 -0.3447
   38POPC   C27 5095   4.285   4.994   7.320 -0.4910  0.1263  0.2945
   38POPC   H7R 5096   4.261   4.888   7.298  0.7022 -0.4434  1.6121
   38POPC   H7S 5097   4.214   5.028   7.399 -1.5758  0.9017 -0.9623
   38POPC   C28 5098   4.430   4.998   7.373 -0.6573 -0.2356 -0.7628
   38POPC   H8R 5099   4.448   5.105   7.398  2.1312 -0.9121  0.4550
   38POPC   H8S 5100   4.497   4.970   7.289 -0.0115  0.1123 -0.3695
   38POPC   C29 5101   4.451   4.903   7.489  0.6258 -0.3820 -0.2892
   38POPC   H91 5102   4.474   4.798   7.465  1.1786 -0.1339 -0.8741
   38POPC  C210 5103   4.424   4.931   7.622  0.1802  0.7961  0.1271
   38POPC  H101 5104   4.439   4.853   7.698 -1.5710  0.7485  0.4460
   38POPC  C211 5105   4.381   5.066   7.677  0.5172 -0.2287  0.2301
   38POPC  H11R 5106   4.332   5.124   7.596 -0.8363  0.1022  1.2485
   38POPC  H11S 5107   4.456   5.129   7.731  0.7812  0.3917 -0.8378
   38POPC  C212 5108   4.270   5.022   7.781 -0.6129 -0.2418 -0.2676
   38POPC  H12R 5109   4.311   4.967   7.869 -1.0636  1.1866  0.8693
   38POPC  H12S 5110   4.192   4.963   7.729 -0.4535 -0.5209 -0.1921
   38POPC  C213 5111   4.188   5.139   7.844 -0.3507 -0.2716  0.3067
   38POPC  H13R 5112   4.086   5.101   7.868  0.1119 -0.9213  1.3490
   38POPC  H13S 5113   4.166   5.210   7.762 -2.5453 -2.8139 -1.5237
   38POPC  C214 5114   4.245   5.200   7.973  0.0041  0.4470 -0.2685
   38POPC  H14R 5115   4.191   5.294   7.994  0.0548 -0.0853  2.6151
   38POPC  H14S 5116   4.351   5.227   7.952  0.7182 -0.5601  1.7621
   38POPC  C215 5117   4.229   5.113   8.108 -0.4729 -0.6153  0.7055
   38POPC  H15R 5118   4.288   5.019   8.114  0.8446  0.2496  2.3009
   38POPC  H15S 5119   4.121   5.092   8.122 -1.0328  0.8839 -1.0641
   38POPC  C216 5120   4.292   5.205   8.214 -0.3701  0.0545 -0.0884
   38POPC  H16R 5121   4.235   5.301   8.219 -1.7458 -0.7789  1.1428
   38POPC  H16S 5122   4.397   5.223   8.184  0.9014 -2.2704  2.5058
   38POPC  C217 5123   4.296   5.130   8.347 -0.3698  0.5236  0.5304
   38POPC  H17R 5124   4.345   5.033   8.324 -1.1049 -0.0250  1.2158
   38POPC  H17S 5125   4.196   5.101   8.386 -0.2427  1.1426  1.3279
   38POPC  C218 5126   4.377   5.210   8.446 -0.1093  0.2486 -0.6524
   38POPC  H18R 5127   4.484   5.196   8.419  0.3149 -2.3589  1.8987
   38POPC  H18S 5128   4.358   5.160   8.543 -0.3336  3.6596  1.1980
   38POPC  H18T 5129   4.341   5.314   8.456 -0.0622  0.1062  1.2811
   38POPC   C33 5130   3.831   4.779   7.193 -0.0612 -0.4936 -0.7657
   38POPC   H3X 5131   3.911   4.775   7.116  1.1329  0.1782  0.3912
   38POPC   H3Y 5132   3.809   4.670   7.195 -2.1787 -0.1221  0.8376
   38POPC   C34 5133   3.893   4.828   7.325  0.4761  0.1693  0.6445
   38POPC   H4X 5134   3.909   4.937   7.337 -0.8767  0.4745 -0.1620
   38POPC   H4Y 5135   3.993   4.781   7.335 -0.0042 -0.9771  0.2323
   38POPC   C35 5136   3.809   4.779   7.442 -0.7344 -0.5133  0.1378
   38POPC   H5X 5137   3.824   4.673   7.471 -1.6060 -0.1755  1.9909
   38POPC   H5Y 5138   3.701   4.804   7.437 -0.5652  0.3470  0.5677
   38POPC   C36 5139   3.868   4.857   7.564 -0.0266  0.2841 -0.5405
   38POPC   H6X 5140   3.823   4.954   7.595 -1.4722 -1.1839  2.2894
   38POPC   H6Y 5141   3.976   4.877   7.545  0.2790 -0.8268 -0.0547
   38POPC   C37 5142   3.860   4.778   7.690 -0.0568 -0.3852  0.1466
   38POPC   H7X 5143   3.911   4.679   7.694  1.4616  0.4013  1.4193
   38POPC   H7Y 5144   3.751   4.757   7.703 -0.2076  1.0835  1.5636
   38POPC   C38 5145   3.898   4.864   7.812 -0.7100 -0.1721 -0.3811
   38POPC   H8X 5146   3.848   4.961   7.795  0.5828  0.8443  1.2846
   38POPC   H8Y 5147   4.008   4.874   7.803 -0.7878  0.4339 -0.6497
   38POPC   C39 5148   3.861   4.810   7.946 -0.1321  0.8247 -0.4067
   38POPC   H9X 5149   3.927   4.722   7.964  0.7561  1.0709 -2.2569
   38POPC   H9Y 5150   3.755   4.778   7.958  0.3782 -0.7036  0.4264
   38POPC  C310 5151   3.878   4.910   8.064  0.9037  0.5461 -0.6621
   38POPC  H10X 5152   3.794   4.981   8.049 -0.9522 -1.0548  1.4906
   38POPC  H10Y 5153   3.980   4.955   8.062  2.2687 -2.2639  0.2191
   38POPC  C311 5154   3.848   4.846   8.194  0.0791 -0.2270  0.5284
   38POPC  H11X 5155   3.741   4.818   8.200  0.4782 -2.3399 -0.9976
   38POPC  H11Y 5156   3.859   4.919   8.277  1.3383  0.0783  0.1155
   38POPC  C312 5157   3.938   4.722   8.227 -0.4517 -0.1445 -0.4725
   38POPC  H12X 5158   4.037   4.723   8.178 -0.9975 -1.8276 -1.7004
   38POPC  H12Y 5159   3.888   4.642   8.169  3.6526 -0.5781 -3.8235
   38POPC  C313 5160   3.948   4.675   8.374 -0.5848  0.5516  0.8876
   38POPC  H13X 5161   4.012   4.585   8.373 -3.2836 -1.4918  0.6669
   38POPC  H13Y 5162   3.844   4.645   8.401 -0.1134  0.9993  3.3852
   38POPC  C314 5163   4.008   4.787   8.460  0.1855 -0.5119 -0.6059
   38POPC  H14X 5164   3.928   4.862   8.480 -0.5441 -1.3321 -0.3484
   38POPC  H14Y 5165   4.091   4.834   8.405 -0.0112  0.4639 -0.0911
   38POPC  C315 5166   4.050   4.726   8.599 -0.8986  0.4498  0.0291
   38POPC  H15X 5167   3.955   4.696   8.649 -1.1570  0.5086 -0.4246
   38POPC  H15Y 5168   4.075   4.798   8.681  0.4294 -2.5140  2.4192
   38POPC  C316 5169   4.153   4.614   8.600  0.2151 -0.8884 -0.0794
   38POPC  H16X 5170   4.177   4.576   8.498  1.0329  1.8800 -1.0112
   38POPC  H16Y 5171   4.094   4.527   8.636 -0.6420 -0.1366  0.3996
   38POPC  H16Z 5172   4.247   4.619   8.658  0.4272 -2.6835 -0.2094
   39POPC     N 5173   6.555   5.625   5.979 -0.1266  0.4527  0.2195
   39POPC   C12 5174   6.604   5.764   5.998  0.8304 -0.1506  0.2094
   39POPC  H12A 5175   6.655   5.765   6.093  1.5270  0.7602 -0.1628
   39POPC  H12B 5176   6.524   5.836   6.000  1.6616  0.9071 -1.8310
   39POPC   C13 5177   6.435   5.610   6.069 -0.3004 -0.1637 -0.1749
   39POPC  H13A 5178   6.387   5.514   6.056  1.4159 -0.8968 -1.5311
   39POPC  H13B 5179   6.461   5.620   6.174  0.1862 -0.8208 -0.2241
   39POPC  H13C 5180   6.364   5.684   6.036 -0.5824 -1.0314 -1.5807
   39POPC   C14 5181   6.507   5.609   5.841  0.2417 -0.2648  0.3596
   39POPC  H14A 5182   6.455   5.514   5.837 -1.3760  0.6384 -1.6984
   39POPC  H14B 5183   6.440   5.685   5.805 -0.8199 -1.6981 -0.8156
   39POPC  H14C 5184   6.593   5.610   5.777  0.1653  3.2414  0.1400
   39POPC   C15 5185   6.655   5.510   6.010  0.0174 -0.1236 -0.6121
   39POPC  H15A 5186   6.697   5.535   6.107  2.1923  2.0031 -1.9800
   39POPC  H15B 5187   6.738   5.499   5.941 -0.0349 -0.9440 -0.5519
   39POPC  H15C 5188   6.604   5.415   6.008  0.3379 -0.3603 -3.9880
   39POPC   C11 5189   6.706   5.810   5.896 -0.3813 -0.4663 -0.5202
   39POPC  H11A 5190   6.722   5.920   5.904  3.9515 -0.9168 -0.5009
   39POPC  H11B 5191   6.663   5.795   5.794 -3.6295  1.4660  0.4271
   39POPC     P 5192   6.924   5.778   6.028 -0.1649 -0.2367 -0.1037
   39POPC   O13 5193   7.001   5.901   5.993  0.1632  0.1694  0.4107
   39POPC   O14 5194   7.016   5.665   6.064  0.4433  0.1775  0.0288
   39POPC   O12 5195   6.828   5.745   5.902 -0.5477  0.4631  0.5911
   39POPC   O11 5196   6.840   5.812   6.154  0.5103  0.0828  0.9609
   39POPC    C1 5197   6.828   5.931   6.227  0.1809  0.5952  0.2805
   39POPC    HA 5198   6.728   5.923   6.277  0.3743  0.4473  0.6481
   39POPC    HB 5199   6.838   6.023   6.166 -2.1996 -1.1289 -2.9881
   39POPC    C2 5200   6.933   5.932   6.337 -0.9290  0.2792 -0.2629
   39POPC    HS 5201   7.027   5.938   6.279 -0.2143  2.8641  1.0046
   39POPC   O21 5202   6.914   5.817   6.417 -0.3471 -0.3864 -0.2155
   39POPC   C21 5203   7.009   5.748   6.469  0.5619  0.3211 -0.2618
   39POPC   O22 5204   7.124   5.760   6.445 -0.2687 -0.1160  0.1331
   39POPC   C22 5205   6.961   5.650   6.570 -0.4840  0.6456 -0.0414
   39POPC   H2R 5206   7.047   5.600   6.621 -1.1733 -0.4780  0.0618
   39POPC   H2S 5207   6.915   5.562   6.520  2.2100 -2.5777  2.6429
   39POPC    C3 5208   6.918   6.064   6.428 -0.1064  0.6237 -0.0424
   39POPC    HX 5209   6.825   6.032   6.479  0.5657 -1.4494 -0.0028
   39POPC    HY 5210   6.899   6.164   6.383  0.7788  1.6651  1.7563
   39POPC   O31 5211   7.020   6.054   6.529  0.5287 -0.0333 -0.0207
   39POPC   C31 5212   7.134   6.115   6.509  0.1796  0.1972 -0.5681
   39POPC   O32 5213   7.166   6.171   6.404  0.3138  0.1732  0.2778
   39POPC   C32 5214   7.221   6.093   6.629  0.8621  0.0110 -0.2662
   39POPC   H2X 5215   7.260   6.191   6.662 -1.2721  0.6574  0.4662
   39POPC   H2Y 5216   7.152   6.068   6.712  0.7051  1.9038  0.2143
   39POPC   C23 5217   6.851   5.709   6.667  0.2806  0.5320  0.3079
   39POPC   H3R 5218   6.793   5.621   6.701  1.7738 -1.2774 -1.6208
   39POPC   H3S 5219   6.779   5.770   6.609  0.8351 -0.0816 -1.0613
   39POPC   C24 5220   6.906   5.790   6.789  0.2200  0.3904 -0.4172
   39POPC   H4R 5221   6.830   5.846   6.847 -0.4008 -1.1159  0.2674
   39POPC   H4S 5222   6.980   5.860   6.745 -2.6782  1.6436 -3.7911
   39POPC   C25 5223   6.979   5.712   6.894  0.3797 -0.2160 -0.4814
   39POPC   H5R 5224   7.060   5.773   6.940 -1.1702  0.3657  1.6291
   39POPC   H5S 5225   7.035   5.630   6.842  0.1652  1.1677 -3.0599
   39POPC   C26 5226   6.897   5.642   7.001 -0.3140 -0.0921  0.3372
   39POPC   H6R 5227   6.820   5.587   6.942 -0.6849  0.5768  0.1881
   39POPC   H6S 5228   6.850   5.720   7.064 -0.0856  0.4841 -0.1939
   39POPC   C27 5229   6.975   5.545   7.090 -0.0469  0.2363  0.5989
   39POPC   H7R 5230   7.069   5.589   7.130  1.3631 -1.7730 -0.2685
   39POPC   H7S 5231   7.010   5.452   7.039 -2.4461 -0.5139  0.1969
   39POPC   C28 5232   6.884   5.513   7.209 -0.8921  0.2534  0.4783
   39POPC   H8R 5233   6.781   5.482   7.184 -0.8323 -1.0450  1.7298
   39POPC   H8S 5234   6.884   5.600   7.277 -1.7117 -0.4578  1.4141
   39POPC   C29 5235   6.928   5.389   7.285  0.5422  0.1402 -0.3813
   39POPC   H91 5236   6.907   5.291   7.240  0.1603 -0.6134  1.3515
   39POPC  C210 5237   6.963   5.391   7.412 -0.5388 -0.0717 -0.4233
   39POPC  H101 5238   6.984   5.293   7.457 -1.0199 -0.4949 -1.1009
   39POPC  C211 5239   6.982   5.505   7.510 -0.7263 -0.1124  0.1722
   39POPC  H11R 5240   6.976   5.608   7.468 -0.6952  0.2170  0.9547
   39POPC  H11S 5241   7.084   5.504   7.553 -0.1069 -0.4751 -1.2575
   39POPC  C212 5242   6.891   5.497   7.626 -0.3166 -0.4900 -0.0401
   39POPC  H12R 5243   6.920   5.407   7.683 -1.3463  0.0664  1.4207
   39POPC  H12S 5244   6.788   5.489   7.585 -0.2945 -0.7462 -0.0468
   39POPC  C213 5245   6.896   5.626   7.716 -0.1911 -0.4683  0.7557
   39POPC  H13R 5246   6.834   5.700   7.661 -1.6879 -1.9540  0.3467
   39POPC  H13S 5247   6.997   5.667   7.738 -0.0560 -0.3283 -0.1100
   39POPC  C214 5248   6.815   5.613   7.851  0.4446 -0.7634 -0.3195
   39POPC  H14R 5249   6.718   5.562   7.832 -0.9150  1.0838  1.3285
   39POPC  H14S 5250   6.790   5.712   7.894  0.6655 -1.2930  1.0848
   39POPC  C215 5251   6.892   5.540   7.969 -0.7097 -0.8086  0.3134
   39POPC  H15R 5252   6.988   5.594   7.984 -1.1515  0.4383 -1.0091
   39POPC  H15S 5253   6.922   5.434   7.953  1.6011 -0.1787  0.1522
   39POPC  C216 5254   6.809   5.539   8.094 -0.3560  0.7575 -0.2221
   39POPC  H16R 5255   6.858   5.468   8.163 -0.3092  0.8776 -0.1303
   39POPC  H16S 5256   6.708   5.502   8.065 -1.1948 -0.1422  3.4004
   39POPC  C217 5257   6.774   5.661   8.170  0.1659 -1.0959 -0.2936
   39POPC  H17R 5258   6.753   5.740   8.095  0.8340  1.2309  1.8288
   39POPC  H17S 5259   6.857   5.702   8.230  1.0031 -0.6480 -1.7197
   39POPC  C218 5260   6.666   5.642   8.271 -0.2537 -0.2504  0.1212
   39POPC  H18R 5261   6.571   5.614   8.221 -0.4561  3.7314 -2.1365
   39POPC  H18S 5262   6.634   5.739   8.317  1.8303  0.9633 -0.8516
   39POPC  H18T 5263   6.693   5.558   8.338 -1.0610  0.2729  1.1432
   39POPC   C33 5264   7.336   5.990   6.594  0.7768 -0.3062  0.4232
   39POPC   H3X 5265   7.390   6.035   6.508  1.4500  0.9985  1.4885
   39POPC   H3Y 5266   7.294   5.891   6.566  0.4813 -0.6503  1.9791
   39POPC   C34 5267   7.426   5.969   6.714  0.2218 -0.4141 -0.2274
   39POPC   H4X 5268   7.464   6.063   6.759  1.6775 -1.4040  0.7054
   39POPC   H4Y 5269   7.520   5.924   6.676  1.7864  2.6806 -0.3475
   39POPC   C35 5270   7.390   5.869   6.816  0.5812  0.3231 -0.3052
   39POPC   H5X 5271   7.467   5.795   6.847  0.0989 -1.5957 -3.2927
   39POPC   H5Y 5272   7.314   5.810   6.761  0.8942  0.0682 -0.4653
   39POPC   C36 5273   7.332   5.924   6.950 -0.6030 -0.7719 -0.2731
   39POPC   H6X 5274   7.223   5.942   6.943 -0.5608 -0.7933 -0.9740
   39POPC   H6Y 5275   7.390   6.015   6.973 -0.6904 -0.1898 -2.2521
   39POPC   C37 5276   7.338   5.825   7.067  0.5050  0.5342  0.8954
   39POPC   H7X 5277   7.437   5.774   7.071  1.6284  2.5366 -0.2335
   39POPC   H7Y 5278   7.261   5.749   7.040  0.2655  1.4433 -1.1466
   39POPC   C38 5279   7.312   5.896   7.204  0.5250  0.1342  0.5343
   39POPC   H8X 5280   7.209   5.939   7.197  0.5321  0.3922  1.8166
   39POPC   H8Y 5281   7.374   5.988   7.207 -0.4322  0.7791  0.9505
   39POPC   C39 5282   7.302   5.806   7.322  0.1193  0.5765  0.5473
   39POPC   H9X 5283   7.392   5.741   7.326  0.2179  0.6009 -0.8368
   39POPC   H9Y 5284   7.212   5.742   7.314 -0.7882  1.7904  0.8545
   39POPC  C310 5285   7.278   5.884   7.448  1.2075  0.2758 -0.1323
   39POPC  H10X 5286   7.179   5.934   7.448  0.4075 -1.2487 -0.4739
   39POPC  H10Y 5287   7.367   5.951   7.457  1.6434  0.0351 -2.1244
   39POPC  C311 5288   7.287   5.789   7.565 -0.0544  0.7460 -0.6703
   39POPC  H11X 5289   7.391   5.752   7.583 -0.4022  0.2030  0.3044
   39POPC  H11Y 5290   7.215   5.706   7.552 -1.7521  1.9484  0.5249
   39POPC  C312 5291   7.248   5.858   7.698  0.1330 -0.3068 -0.8347
   39POPC  H12X 5292   7.142   5.891   7.699  0.1241 -0.2419  1.4419
   39POPC  H12Y 5293   7.307   5.951   7.706 -0.8745  0.2632  0.3468
   39POPC  C313 5294   7.275   5.784   7.827 -0.1975  0.1323 -0.7800
   39POPC  H13X 5295   7.381   5.750   7.818  0.6133  1.8504  1.2122
   39POPC  H13Y 5296   7.205   5.698   7.823 -0.2395  0.1102  0.1127
   39POPC  C314 5297   7.246   5.854   7.962  0.5156  0.8559 -0.1305
   39POPC  H14X 5298   7.145   5.899   7.971  0.3528  0.1968  1.6788
   39POPC  H14Y 5299   7.319   5.938   7.970 -0.5231  1.6595  1.4625
   39POPC  C315 5300   7.278   5.753   8.072 -0.0806  0.1992 -0.0740
   39POPC  H15X 5301   7.384   5.720   8.071 -0.4826 -1.3237 -2.6145
   39POPC  H15Y 5302   7.223   5.658   8.056 -0.7830  0.9447 -2.6227
   39POPC  C316 5303   7.255   5.820   8.209 -0.2921  0.1342  0.4042
   39POPC  H16X 5304   7.326   5.904   8.228 -1.7417  1.6199 -0.4314
   39POPC  H16Y 5305   7.272   5.737   8.280 -1.8919 -2.3923 -1.9638
   39POPC  H16Z 5306   7.149   5.854   8.213  0.4659  2.6804  1.2300
   40POPC     N 5307   6.247   4.857   6.038  0.3606  0.0701  0.0104
   40POPC   C12 5308   6.198   4.928   6.164  0.2798 -0.3971  0.1361
   40POPC  H12A 5309   6.147   4.860   6.231 -1.1282 -1.1113 -1.5780
   40POPC  H12B 5310   6.129   5.002   6.127  0.0649 -2.6889 -4.8127
   40POPC   C13 5311   6.320   4.954   5.941 -0.2021 -0.1857 -0.9723
   40POPC  H13A 5312   6.336   4.899   5.850  2.3819  0.6899 -1.1337
   40POPC  H13B 5313   6.257   5.041   5.927 -0.7944 -0.7940 -2.2342
   40POPC  H13C 5314   6.411   4.993   5.983 -1.6279  1.0608  1.1592
   40POPC   C14 5315   6.348   4.758   6.082 -0.5008  1.0953  0.0080
   40POPC  H14A 5316   6.313   4.691   6.160 -1.2929  1.1718 -0.2722
   40POPC  H14B 5317   6.372   4.690   6.002  2.1777 -1.0971  2.4444
   40POPC  H14C 5318   6.429   4.818   6.121 -1.1752  1.5009  0.8538
   40POPC   C15 5319   6.130   4.795   5.972 -0.0578  0.5934  0.2219
   40POPC  H15A 5320   6.054   4.864   5.939 -2.0242 -0.8742  1.4753
   40POPC  H15B 5321   6.082   4.723   6.036  0.4402  0.4195  0.4068
   40POPC  H15C 5322   6.168   4.747   5.883  2.6713  2.9048 -0.0231
   40POPC   C11 5323   6.304   5.000   6.256 -0.0694  0.8801  0.0705
   40POPC  H11A 5324   6.377   4.923   6.288 -3.1322 -1.7452  1.2674
   40POPC  H11B 5325   6.246   5.020   6.349 -3.0284 -0.4775 -1.3228
   40POPC     P 5326   6.276   5.246   6.198  0.3757  0.1258 -0.0779
   40POPC   O13 5327   6.144   5.223   6.258  0.8136  0.0530  0.0235
   40POPC   O14 5328   6.275   5.313   6.067 -0.2675  0.1690 -0.1080
   40POPC   O12 5329   6.364   5.114   6.200 -0.1782  0.3113 -0.2582
   40POPC   O11 5330   6.370   5.328   6.299  0.1314 -0.3144 -0.2843
   40POPC    C1 5331   6.510   5.334   6.294 -0.7806  0.3411 -0.7752
   40POPC    HA 5332   6.541   5.438   6.320 -2.7383  1.2593 -1.8950
   40POPC    HB 5333   6.564   5.321   6.198  0.3881 -0.2663 -0.0622
   40POPC    C2 5334   6.575   5.226   6.390 -0.0037  0.1508  0.3122
   40POPC    HS 5335   6.543   5.125   6.355 -1.3658  0.7204 -0.1709
   40POPC   O21 5336   6.523   5.245   6.525 -0.4378  0.2263 -0.4620
   40POPC   C21 5337   6.521   5.140   6.620  0.2892 -0.2767 -0.1344
   40POPC   O22 5338   6.520   5.022   6.593  0.0743 -0.0629  0.1113
   40POPC   C22 5339   6.525   5.198   6.762  0.3136  0.1307 -0.0856
   40POPC   H2R 5340   6.423   5.237   6.780 -0.3187 -1.8447  0.8457
   40POPC   H2S 5341   6.603   5.277   6.763  0.6358 -0.1133 -1.9773
   40POPC    C3 5342   6.737   5.231   6.391 -0.7139 -0.5424 -0.4038
   40POPC    HX 5343   6.771   5.337   6.400  2.1800 -1.4352  0.1661
   40POPC    HY 5344   6.766   5.206   6.287  0.0290  0.0465 -0.3449
   40POPC   O31 5345   6.795   5.146   6.490  0.0947 -0.3752  0.6049
   40POPC   C31 5346   6.847   5.205   6.603 -1.2347 -0.4040  0.4105
   40POPC   O32 5347   6.832   5.318   6.637  0.0037 -0.1312 -0.0415
   40POPC   C32 5348   6.941   5.111   6.687 -0.1221  0.0310  0.6144
   40POPC   H2X 5349   7.020   5.083   6.614  0.0100 -1.2862  1.2296
   40POPC   H2Y 5350   6.879   5.025   6.719 -1.2431  0.9191  0.9045
   40POPC   C23 5351   6.547   5.086   6.868  0.9549 -0.3456 -0.0734
   40POPC   H3R 5352   6.653   5.054   6.864  1.2379  0.6540 -0.9338
   40POPC   H3S 5353   6.475   5.003   6.848 -2.5271  2.6469 -1.2818
   40POPC   C24 5354   6.527   5.153   7.007 -0.6923  0.0422 -0.6542
   40POPC   H4R 5355   6.418   5.162   7.022 -0.9055 -2.0692 -0.6191
   40POPC   H4S 5356   6.590   5.244   7.008 -2.0274  0.9831 -0.0818
   40POPC   C25 5357   6.571   5.085   7.140  0.1331  0.1103  0.4377
   40POPC   H5R 5358   6.682   5.074   7.131  0.1088 -0.0979  0.3793
   40POPC   H5S 5359   6.515   4.989   7.137 -0.6625  0.5707  0.4854
   40POPC   C26 5360   6.540   5.159   7.268  0.0927 -0.1378  0.7282
   40POPC   H6R 5361   6.440   5.205   7.282  0.6030  1.3605 -0.2036
   40POPC   H6S 5362   6.619   5.238   7.276 -0.3700  0.3196  0.8152
   40POPC   C27 5363   6.562   5.062   7.391 -0.3236 -0.4545  0.0972
   40POPC   H7R 5364   6.669   5.033   7.382 -0.0539  1.0193 -2.2101
   40POPC   H7S 5365   6.506   4.966   7.379  2.9978 -2.9241  2.3380
   40POPC   C28 5366   6.527   5.130   7.525 -0.6599  0.0383 -0.5761
   40POPC   H8R 5367   6.417   5.138   7.521 -0.7100  1.0718  1.8345
   40POPC   H8S 5368   6.566   5.234   7.519 -0.4000 -0.0876 -1.2945
   40POPC   C29 5369   6.600   5.059   7.643  0.6721 -0.9077  0.1765
   40POPC   H91 5370   6.624   4.953   7.628  2.0118 -0.7901  1.3655
   40POPC  C210 5371   6.632   5.124   7.757  0.2215  0.3478 -0.4409
   40POPC  H101 5372   6.683   5.068   7.837 -0.0218  0.5969 -0.1096
   40POPC  C211 5373   6.602   5.266   7.790  0.5550 -0.1190 -0.2880
   40POPC  H11R 5374   6.520   5.322   7.740  1.5944  3.1410  1.3913
   40POPC  H11S 5375   6.695   5.326   7.783  0.3805  0.2677  0.5943
   40POPC  C212 5376   6.557   5.275   7.937  0.3742 -0.3198 -0.5146
   40POPC  H12R 5377   6.513   5.376   7.949 -1.3576 -1.1727  0.8840
   40POPC  H12S 5378   6.649   5.259   7.997  0.0526  0.6302  0.2407
   40POPC  C213 5379   6.438   5.192   7.988 -0.2633 -0.5486  0.0618
   40POPC  H13R 5380   6.458   5.084   7.974 -1.5945 -0.8449  0.2784
   40POPC  H13S 5381   6.347   5.194   7.925 -1.1212  0.9236  1.2674
   40POPC  C214 5382   6.396   5.233   8.132 -0.1691  0.2175  0.2599
   40POPC  H14R 5383   6.377   5.342   8.125 -1.6391 -0.0366 -0.0664
   40POPC  H14S 5384   6.486   5.221   8.197  1.0706 -0.3999 -1.4721
   40POPC  C215 5385   6.275   5.157   8.175 -0.5997 -0.3232 -0.5856
   40POPC  H15R 5386   6.277   5.047   8.158  1.1799 -0.9764  2.9112
   40POPC  H15S 5387   6.188   5.183   8.111 -2.0288  0.6826  1.6359
   40POPC  C216 5388   6.230   5.184   8.326  0.3471  0.0850 -0.2429
   40POPC  H16R 5389   6.213   5.294   8.330 -0.2525  0.1167 -2.3572
   40POPC  H16S 5390   6.303   5.146   8.401  1.5083 -0.3796 -1.5539
   40POPC  C217 5391   6.089   5.119   8.360 -0.0071  0.2728  0.4366
   40POPC  H17R 5392   6.097   5.011   8.337 -1.0955 -0.7347  4.0491
   40POPC  H17S 5393   6.008   5.162   8.297 -0.4635 -0.5586  0.4472
   40POPC  C218 5394   6.042   5.118   8.508 -0.6152  0.5176 -0.9875
   40POPC  H18R 5395   6.100   5.046   8.569 -3.9623 -2.0815 -0.5217
   40POPC  H18S 5396   5.934   5.091   8.511 -0.2094 -1.3071 -1.1809
   40POPC  H18T 5397   6.056   5.215   8.559  0.3035 -0.3210  0.4232
   40POPC   C33 5398   6.995   5.178   6.819 -0.2855 -0.1805  0.1462
   40POPC   H3X 5399   6.925   5.253   6.864  2.3289  2.4644  0.1019
   40POPC   H3Y 5400   7.089   5.233   6.799 -1.3424  1.3110 -0.9741
   40POPC   C34 5401   7.009   5.072   6.924 -0.4947  0.0413 -0.3387
   40POPC   H4X 5402   7.052   4.975   6.893 -2.3918 -1.1949  0.6697
   40POPC   H4Y 5403   6.905   5.037   6.941 -0.4752 -0.4256 -1.1536
   40POPC   C35 5404   7.086   5.132   7.048  0.6414  0.3640 -0.0481
   40POPC   H5X 5405   7.045   5.234   7.062  1.3903  0.7331 -0.5173
   40POPC   H5Y 5406   7.186   5.162   7.009  1.9354 -4.0098 -0.6657
   40POPC   C36 5407   7.096   5.048   7.175 -0.4271 -0.4078  0.7875
   40POPC   H6X 5408   7.129   4.946   7.148  1.7726 -0.2978  2.7144
   40POPC   H6Y 5409   7.003   5.058   7.236  1.0793  2.2449  2.8911
   40POPC   C37 5410   7.208   5.100   7.269 -0.1166  0.1539  0.0175
   40POPC   H7X 5411   7.185   5.197   7.318  1.5209 -0.1775  1.5862
   40POPC   H7Y 5412   7.303   5.104   7.211 -0.2560 -0.8410 -0.3014
   40POPC   C38 5413   7.239   4.999   7.380  0.3110 -0.2185  0.0019
   40POPC   H8X 5414   7.348   5.014   7.398 -0.0912  0.0186  2.6878
   40POPC   H8Y 5415   7.218   4.896   7.344  1.9898 -0.3325 -0.7836
   40POPC   C39 5416   7.162   5.045   7.510 -0.1551  0.7084 -0.2448
   40POPC   H9X 5417   7.052   5.036   7.500  0.1101 -1.7528 -1.8924
   40POPC   H9Y 5418   7.182   5.154   7.517 -0.0684  0.8609 -2.2092
   40POPC  C310 5419   7.201   4.969   7.640 -0.3447  0.8621 -0.1492
   40POPC  H10X 5420   7.310   4.970   7.658 -0.4571  1.2654  0.5898
   40POPC  H10Y 5421   7.156   4.871   7.615  0.1160  1.3608 -3.2653
   40POPC  C311 5422   7.136   5.017   7.773  0.3762 -0.1359 -0.4011
   40POPC  H11X 5423   7.027   5.022   7.752  0.6568  0.8231 -1.7269
   40POPC  H11Y 5424   7.169   5.121   7.792 -0.3547 -0.3055  2.1368
   40POPC  C312 5425   7.160   4.910   7.887  0.5642  0.0678 -0.3685
   40POPC  H12X 5426   7.267   4.929   7.911 -0.1606  1.7926  1.9089
   40POPC  H12Y 5427   7.144   4.811   7.841 -0.5081 -0.1856  0.5064
   40POPC  C313 5428   7.079   4.934   8.018 -0.6260  0.4841  0.5395
   40POPC  H13X 5429   7.093   5.037   8.057  1.6526  0.4834 -0.1071
   40POPC  H13Y 5430   7.121   4.861   8.090 -1.0483 -0.9661 -0.6250
   40POPC  C314 5431   6.930   4.897   8.000 -1.0053  0.4713  0.6955
   40POPC  H14X 5432   6.918   4.786   8.000  0.9277  0.2126 -0.7894
   40POPC  H14Y 5433   6.896   4.959   7.915  0.1087 -0.5891 -0.5862
   40POPC  C315 5434   6.847   4.939   8.121  0.4786  0.7439  0.4084
   40POPC  H15X 5435   6.868   5.042   8.157 -0.6187  0.9360  0.5397
   40POPC  H15Y 5436   6.867   4.873   8.208 -0.5716 -1.4292 -0.9249
   40POPC  C316 5437   6.686   4.927   8.108 -0.2896 -0.4686 -0.5996
   40POPC  H16X 5438   6.667   4.996   8.024  0.0530 -0.6636 -0.8402
   40POPC  H16Y 5439   6.636   4.985   8.188  0.7442  1.4129 -1.2624
   40POPC  H16Z 5440   6.647   4.824   8.095  2.3978 -1.6969  0.2809
   41CHL1    C3 5441   5.840   4.593  10.113  0.1342 -0.3130 -0.3416
   41CHL1    H3 5442   5.747   4.533  10.119 -0.2788  0.4308  1.0686
   41CHL1    O3 5443   5.880   4.620  10.249 -0.0964  0.0865  0.0548
   41CHL1   H3' 5444   5.793   4.637  10.286 -0.5412  0.9669 -1.3222
   41CHL1    C4 5445   5.959   4.521  10.045 -0.1962 -0.0971  0.4160
   41CHL1   H4A 5446   6.047   4.589  10.048  1.3086 -1.9508  0.8475
   41CHL1   H4B 5447   5.979   4.437  10.115 -1.8327 -0.9633 -0.1060
   41CHL1    C5 5448   5.922   4.487   9.904  0.4408  0.5220 -0.6561
   41CHL1    C6 5449   5.920   4.352   9.859 -0.7639 -0.0999 -0.8528
   41CHL1    H6 5450   5.933   4.265   9.924 -0.7653  0.2889 -0.3242
   41CHL1    C7 5451   5.903   4.316   9.714  0.1040  0.3981  0.1167
   41CHL1   H7A 5452   5.971   4.230   9.698  2.9583  2.6708 -0.8817
   41CHL1   H7B 5453   5.804   4.271   9.692  0.3688 -0.3537  0.4409
   41CHL1    C8 5454   5.920   4.428   9.610 -0.6220 -0.8215 -0.0428
   41CHL1    H8 5455   6.027   4.457   9.600 -0.3473 -0.2531  3.2763
   41CHL1   C14 5456   5.860   4.401   9.472 -0.2721 -0.1307  0.3012
   41CHL1   H14 5457   5.752   4.382   9.487  0.1792 -1.1618  2.7941
   41CHL1   C15 5458   5.922   4.276   9.401 -0.4331  0.0852 -0.1683
   41CHL1  H15A 5459   6.032   4.287   9.400 -0.5150  0.9709 -0.3961
   41CHL1  H15B 5460   5.899   4.180   9.450  0.6653 -0.9853 -1.6562
   41CHL1   C16 5461   5.872   4.300   9.256 -0.4737 -0.3479 -0.3867
   41CHL1  H16A 5462   5.960   4.303   9.188 -0.9725 -0.9491 -1.0718
   41CHL1  H16B 5463   5.805   4.224   9.211  0.7531 -1.4142 -0.4738
   41CHL1   C17 5464   5.809   4.444   9.246 -0.0082  0.0462 -0.4858
   41CHL1   H17 5465   5.701   4.430   9.269  0.3711  1.1338  2.3495
   41CHL1   C13 5466   5.866   4.521   9.373 -1.0683 -0.0095  0.6119
   41CHL1   C18 5467   6.010   4.567   9.337 -0.7521  0.1231 -0.1111
   41CHL1  H18A 5468   6.077   4.592   9.422  1.1174  0.6739 -1.6692
   41CHL1  H18B 5469   6.063   4.486   9.283 -1.1521  0.6983 -1.4159
   41CHL1  H18C 5470   6.008   4.656   9.270 -2.1545  1.0483  1.0979
   41CHL1   C12 5471   5.783   4.638   9.431  0.1482  0.2515  0.0122
   41CHL1  H12A 5472   5.768   4.722   9.359 -3.0792 -0.1300  0.1027
   41CHL1  H12B 5473   5.678   4.604   9.442  0.1199  0.6556  1.1056
   41CHL1   C11 5474   5.836   4.678   9.568  1.0047 -0.6964  0.2180
   41CHL1  H11A 5475   5.940   4.709   9.545  0.2506  1.5463 -0.4186
   41CHL1  H11B 5476   5.785   4.766   9.613 -1.3128 -2.2617  0.8347
   41CHL1    C9 5477   5.846   4.554   9.667 -0.0990 -0.6081 -0.0009
   41CHL1    H9 5478   5.739   4.530   9.683 -0.0842 -0.8225 -0.2155
   41CHL1   C10 5479   5.885   4.608   9.810 -0.4675  0.7200  0.5718
   41CHL1   C19 5480   6.013   4.692   9.794  0.4501 -0.2222 -1.0376
   41CHL1  H19A 5481   6.000   4.790   9.743  2.1316  0.8232  0.4324
   41CHL1  H19B 5482   6.044   4.728   9.894  0.3056 -1.9737 -0.3239
   41CHL1  H19C 5483   6.104   4.642   9.754  2.7630  1.0065  2.2967
   41CHL1    C1 5484   5.778   4.697   9.888  0.9682  0.1222 -0.6935
   41CHL1   H1A 5485   5.753   4.791   9.834 -0.9718 -0.1812 -0.3960
   41CHL1   H1B 5486   5.687   4.634   9.894  1.1968 -0.0826  2.6552
   41CHL1    C2 5487   5.807   4.720  10.044 -0.0049 -0.2735 -0.1981
   41CHL1   H2A 5488   5.723   4.769  10.099  0.5646  0.3134  0.1749
   41CHL1   H2B 5489   5.891   4.789  10.066 -0.6837  0.3082  0.6125
   41CHL1   C20 5490   5.820   4.508   9.106 -0.2731  0.7281 -0.0026
   41CHL1   H20 5491   5.930   4.517   9.091  0.1285 -0.9637  1.5906
   41CHL1   C21 5492   5.750   4.649   9.101  0.3026  0.3941  0.0902
   41CHL1  H21A 5493   5.810   4.722   9.158  0.1102 -1.2028  2.4960
   41CHL1  H21B 5494   5.650   4.651   9.150  0.1189  2.2819 -0.3228
   41CHL1  H21C 5495   5.734   4.692   9.000 -1.0165 -0.1202  0.0447
   41CHL1   C22 5496   5.755   4.426   8.987  0.4230  0.0635 -0.7328
   41CHL1  H22A 5497   5.732   4.321   9.017 -1.4084  0.5026 -0.4771
   41CHL1  H22B 5498   5.654   4.470   8.973  0.4257  1.3858  2.5497
   41CHL1   C23 5499   5.826   4.422   8.850 -0.5867 -0.0678 -0.3840
   41CHL1  H23A 5500   5.925   4.374   8.864  0.0915  1.6590  1.2461
   41CHL1  H23B 5501   5.769   4.358   8.779  0.1723 -2.0638  0.7014
   41CHL1   C24 5502   5.868   4.555   8.783 -0.0166 -0.3969 -0.6529
   41CHL1  H24A 5503   5.772   4.603   8.756 -0.9604 -2.2226 -0.7048
   41CHL1  H24B 5504   5.933   4.604   8.859 -1.4062 -1.4255  1.2906
   41CHL1   C25 5505   5.942   4.552   8.647  0.5921 -0.0764 -0.6594
   41CHL1   H25 5506   6.040   4.501   8.662  0.4054 -0.6454 -1.3320
   41CHL1   C26 5507   5.848   4.474   8.549 -0.8528 -0.7683 -0.1345
   41CHL1  H26A 5508   5.828   4.366   8.564 -0.9647 -0.7393 -0.0735
   41CHL1  H26B 5509   5.750   4.525   8.538 -0.5626 -0.2794 -0.5382
   41CHL1  H26C 5510   5.893   4.486   8.449  0.8822 -1.6503  0.5012
   41CHL1   C27 5511   5.973   4.687   8.591 -0.1246  0.0780 -0.6844
   41CHL1  H27A 5512   5.883   4.737   8.548  1.2855  1.9902 -1.5109
   41CHL1  H27B 5513   6.012   4.753   8.672 -2.5565 -1.2363  1.7523
   41CHL1  H27C 5514   6.045   4.675   8.508  0.8233 -0.4826  0.1972
   42CHL1    C3 5515   2.146   2.355  10.112  0.2998 -0.7426  0.4236
   42CHL1    H3 5516   2.140   2.257  10.060  1.0038  0.2736 -1.6992
   42CHL1    O3 5517   2.159   2.324  10.247  0.3908  0.0306  0.3671
   42CHL1   H3' 5518   2.070   2.320  10.284  1.8993  0.7238  4.6412
   42CHL1    C4 5519   2.272   2.420  10.061 -0.1044 -0.5346  0.8671
   42CHL1   H4A 5520   2.285   2.505  10.132 -0.5732  0.6143 -0.3825
   42CHL1   H4B 5521   2.357   2.349  10.069 -1.4002 -2.1286  1.0529
   42CHL1    C5 5522   2.248   2.458   9.914 -0.1267  0.0497 -0.0329
   42CHL1    C6 5523   2.332   2.412   9.818  0.4443 -0.5178 -0.7232
   42CHL1    H6 5524   2.411   2.343   9.849  0.2878 -0.5910 -0.4871
   42CHL1    C7 5525   2.329   2.459   9.675  0.2882 -0.6872 -0.3718
   42CHL1   H7A 5526   2.427   2.501   9.644  0.6120 -1.1591 -0.0043
   42CHL1   H7B 5527   2.321   2.367   9.613  1.9738 -0.8469 -0.4040
   42CHL1    C8 5528   2.226   2.573   9.649 -0.2292 -0.6431 -1.1060
   42CHL1    H8 5529   2.278   2.668   9.674  0.0783 -1.5482  2.1435
   42CHL1   C14 5530   2.186   2.587   9.501  0.0397 -0.9151  0.0509
   42CHL1   H14 5531   2.130   2.496   9.469 -1.2958 -0.3821  0.8031
   42CHL1   C15 5532   2.295   2.602   9.399 -0.3290 -0.3785 -0.0191
   42CHL1  H15A 5533   2.366   2.683   9.424  0.7561 -1.1637 -0.4841
   42CHL1  H15B 5534   2.345   2.503   9.394  0.4767  0.0592 -0.8448
   42CHL1   C16 5535   2.229   2.637   9.266  0.3686  0.1203  0.0003
   42CHL1  H16A 5536   2.269   2.716   9.199  0.3415 -1.8407 -2.4828
   42CHL1  H16B 5537   2.222   2.552   9.195  1.5791  0.4722 -0.5613
   42CHL1   C17 5538   2.087   2.686   9.311 -0.4631  0.3866 -0.2964
   42CHL1   H17 5539   2.021   2.600   9.287 -1.1946  1.5167 -2.7211
   42CHL1   C13 5540   2.093   2.701   9.467 -0.2318 -0.9610 -1.2900
   42CHL1   C18 5541   2.162   2.835   9.511 -0.4904 -0.1159  0.6139
   42CHL1  H18A 5542   2.261   2.841   9.462  0.0519 -1.5137  1.4725
   42CHL1  H18B 5543   2.100   2.923   9.484 -0.1467  0.0109  0.2351
   42CHL1  H18C 5544   2.169   2.839   9.622 -1.3021  0.2312  0.6624
   42CHL1   C12 5545   1.960   2.679   9.540 -0.3849  0.5676 -0.2336
   42CHL1  H12A 5546   1.892   2.766   9.549  0.3678  0.9252  2.9486
   42CHL1  H12B 5547   1.897   2.599   9.494 -1.6158  2.1303 -1.3902
   42CHL1   C11 5548   1.984   2.658   9.694  0.4010  0.0976  0.1946
   42CHL1  H11A 5549   2.004   2.761   9.730  1.6370 -0.0083 -0.1612
   42CHL1  H11B 5550   1.887   2.618   9.732 -1.6085  1.2277 -3.2662
   42CHL1    C9 5551   2.100   2.557   9.731  0.7331 -0.0802 -0.2130
   42CHL1    H9 5552   2.059   2.460   9.697  1.6136 -0.2251 -0.8983
   42CHL1   C10 5553   2.118   2.548   9.885 -0.1668  0.1098  0.9445
   42CHL1   C19 5554   2.148   2.692   9.934  0.2767  0.8199 -0.3121
   42CHL1  H19A 5555   2.237   2.734   9.882  2.6041  0.3509  3.0432
   42CHL1  H19B 5556   2.060   2.758   9.914 -0.2391 -0.2361 -1.6999
   42CHL1  H19C 5557   2.167   2.697  10.043  1.6275  0.3101 -0.5126
   42CHL1    C1 5558   1.998   2.478   9.956  0.0538  0.7385  0.1764
   42CHL1   H1A 5559   1.911   2.547   9.950 -0.2092  0.3081 -2.2142
   42CHL1   H1B 5560   1.977   2.389   9.892  0.5031  1.7232 -1.3876
   42CHL1    C2 5561   2.019   2.436  10.097  0.1569 -0.1839  0.0153
   42CHL1   H2A 5562   1.931   2.376  10.126  0.4655 -1.0827 -0.8187
   42CHL1   H2B 5563   2.026   2.520  10.170  0.2378 -0.4693  0.3376
   42CHL1   C20 5564   2.032   2.809   9.228 -0.1994 -0.1190  0.3943
   42CHL1   H20 5565   2.098   2.898   9.235  0.4298 -0.5970  0.6302
   42CHL1   C21 5566   1.893   2.839   9.266  1.2582  0.3028 -0.2385
   42CHL1  H21A 5567   1.843   2.898   9.187  1.8351  0.5629 -0.4153
   42CHL1  H21B 5568   1.889   2.907   9.353  0.0854  3.9361 -2.9069
   42CHL1  H21C 5569   1.829   2.749   9.284  2.4730 -0.2053  1.9072
   42CHL1   C22 5570   2.029   2.787   9.066  0.1637 -0.1144  0.1295
   42CHL1  H22A 5571   2.119   2.736   9.026 -1.3229 -0.0234 -3.7071
   42CHL1  H22B 5572   1.945   2.722   9.033  0.7313 -1.9632  2.0877
   42CHL1   C23 5573   2.021   2.913   8.984  0.6211  0.3860 -0.2560
   42CHL1  H23A 5574   1.929   2.963   9.021  0.0621 -2.7378  3.2713
   42CHL1  H23B 5575   2.096   2.989   9.014 -1.4458  1.5698  2.3155
   42CHL1   C24 5576   2.012   2.893   8.826  0.2922  1.2389  0.4468
   42CHL1  H24A 5577   2.116   2.868   8.797  0.3077  2.2486 -0.4158
   42CHL1  H24B 5578   1.943   2.809   8.802  0.4721  1.0563  0.5652
   42CHL1   C25 5579   1.977   3.018   8.738 -0.1092 -0.8142 -0.1343
   42CHL1   H25 5580   2.079   3.062   8.745  0.5915 -2.3909 -0.1236
   42CHL1   C26 5581   1.949   2.998   8.592  0.6053  1.0114  0.6657
   42CHL1  H26A 5582   1.848   2.953   8.574  1.5794 -1.8089  1.6672
   42CHL1  H26B 5583   1.972   3.088   8.532  0.8267  0.8796  0.5541
   42CHL1  H26C 5584   2.016   2.929   8.537 -0.1109  1.6048 -1.0096
   42CHL1   C27 5585   1.869   3.104   8.805 -0.3925  0.2036  0.8391
   42CHL1  H27A 5586   1.777   3.043   8.815 -0.1433 -0.9618 -2.5321
   42CHL1  H27B 5587   1.905   3.132   8.906 -0.9807  0.3816  1.0059
   42CHL1  H27C 5588   1.853   3.192   8.738  2.6282 -0.2624 -0.6888
   43CHL1    C3 5589   2.460   2.857   9.994  0.1505  0.4559  0.2392
   43CHL1    H3 5590   2.417   2.755   9.980  0.4281  0.1391  1.5509
   43CHL1    O3 5591   2.462   2.886  10.132  0.5893  0.0925  0.0410
   43CHL1   H3' 5592   2.550   2.856  10.156  1.5455  2.3122 -0.4034
   43CHL1    C4 5593   2.608   2.849   9.945 -0.5126  0.2826  0.2448
   43CHL1   H4A 5594   2.666   2.938   9.978  1.6935 -0.4252 -1.4695
   43CHL1   H4B 5595   2.657   2.757   9.984  0.1275  1.5042  2.4661
   43CHL1    C5 5596   2.617   2.850   9.788  0.2970  0.4495  0.0775
   43CHL1    C6 5597   2.680   2.751   9.725 -0.7734  0.7872 -0.7536
   43CHL1    H6 5598   2.730   2.665   9.772 -0.5316  1.1118 -0.4087
   43CHL1    C7 5599   2.705   2.750   9.577  0.4941  0.4927 -0.2867
   43CHL1   H7A 5600   2.807   2.720   9.545 -0.0478 -0.1126 -1.5184
   43CHL1   H7B 5601   2.626   2.684   9.536 -1.8600  2.3254  1.0227
   43CHL1    C8 5602   2.662   2.877   9.512  0.5199 -0.1231 -0.0541
   43CHL1    H8 5603   2.739   2.955   9.532 -1.4417  2.2146 -1.0882
   43CHL1   C14 5604   2.647   2.861   9.362  0.0157 -0.5089  1.0690
   43CHL1   H14 5605   2.559   2.794   9.356  0.6055 -1.3354  1.5018
   43CHL1   C15 5606   2.769   2.802   9.284 -0.1675 -0.0643 -0.0177
   43CHL1  H15A 5607   2.869   2.836   9.316 -0.4338  1.2833 -0.5723
   43CHL1  H15B 5608   2.779   2.692   9.298  1.5473  0.1751  0.8349
   43CHL1   C16 5609   2.733   2.831   9.137  0.0067 -0.2678 -0.4734
   43CHL1  H16A 5610   2.814   2.894   9.093 -0.3582  0.2262 -0.4475
   43CHL1  H16B 5611   2.710   2.742   9.075 -2.7242 -0.9030  1.2914
   43CHL1   C17 5612   2.602   2.926   9.131 -0.3024  0.3497  0.0239
   43CHL1   H17 5613   2.514   2.859   9.120 -1.0485  1.2891  0.2358
   43CHL1   C13 5614   2.603   2.989   9.275  0.0076 -0.6939 -0.0969
   43CHL1   C18 5615   2.713   3.096   9.294  0.0181  0.4691  0.1166
   43CHL1  H18A 5616   2.808   3.057   9.251 -1.1318 -1.3551 -0.9238
   43CHL1  H18B 5617   2.681   3.190   9.243 -0.0777 -0.0723 -0.8525
   43CHL1  H18C 5618   2.737   3.129   9.397  1.2128  2.3101 -0.6975
   43CHL1   C12 5619   2.462   3.036   9.323  0.0603 -0.1384 -0.2108
   43CHL1  H12A 5620   2.433   3.132   9.275 -0.1033  0.4367  1.0088
   43CHL1  H12B 5621   2.391   2.953   9.305  0.8557 -0.7969 -0.3970
   43CHL1   C11 5622   2.465   3.052   9.476 -0.5089 -0.1590  0.4445
   43CHL1  H11A 5623   2.530   3.142   9.484  0.2477 -0.6662  0.1562
   43CHL1  H11B 5624   2.363   3.079   9.510 -0.5138  0.6443 -0.1532
   43CHL1    C9 5625   2.524   2.935   9.564 -0.5583 -0.4699 -0.2246
   43CHL1    H9 5626   2.449   2.857   9.542 -2.7388  1.2823  0.5249
   43CHL1   C10 5627   2.535   2.958   9.715  0.3971 -0.2330  0.2069
   43CHL1   C19 5628   2.610   3.094   9.742  0.2603  0.5173  0.0046
   43CHL1  H19A 5629   2.710   3.089   9.695  0.1765 -1.6212 -0.0204
   43CHL1  H19B 5630   2.552   3.176   9.695  1.1130 -0.3260 -2.6964
   43CHL1  H19C 5631   2.627   3.114   9.850 -1.4035 -0.1156  0.4094
   43CHL1    C1 5632   2.393   2.954   9.781  0.3311  0.0885 -1.3942
   43CHL1   H1A 5633   2.347   3.035   9.721  1.0030  0.6524 -1.1509
   43CHL1   H1B 5634   2.336   2.862   9.753 -0.1892  0.1460 -0.5434
   43CHL1    C2 5635   2.383   2.971   9.927 -0.0340  0.1156 -0.8704
   43CHL1   H2A 5636   2.277   2.964   9.961 -0.4840 -1.0388 -2.4059
   43CHL1   H2B 5637   2.433   3.068   9.949  1.1807 -1.1692  2.5905
   43CHL1   C20 5638   2.613   3.024   9.003 -0.3632  0.2547  0.2473
   43CHL1   H20 5639   2.701   3.091   9.015  0.6644 -0.4575 -2.3602
   43CHL1   C21 5640   2.483   3.103   8.988  0.4552 -0.6533  0.1448
   43CHL1  H21A 5641   2.387   3.046   8.996 -0.5333  1.0143  0.6109
   43CHL1  H21B 5642   2.478   3.159   8.893  2.0912 -0.5497  0.0970
   43CHL1  H21C 5643   2.481   3.169   9.077 -1.2058 -0.3079 -0.1127
   43CHL1   C22 5644   2.647   2.944   8.872 -0.2488  0.3733  0.2822
   43CHL1  H22A 5645   2.733   2.874   8.882  0.5879  1.1096 -1.4424
   43CHL1  H22B 5646   2.558   2.882   8.845 -0.1901  0.2612  0.3476
   43CHL1   C23 5647   2.686   3.026   8.742  0.6743  0.2612 -0.2793
   43CHL1  H23A 5648   2.605   3.101   8.731 -1.2746 -1.7146  0.0034
   43CHL1  H23B 5649   2.783   3.073   8.768  0.1350  2.0303 -1.2679
   43CHL1   C24 5650   2.719   2.940   8.617 -0.0244 -0.5392 -0.7438
   43CHL1  H24A 5651   2.808   2.884   8.651  0.3070  0.1263 -0.5061
   43CHL1  H24B 5652   2.641   2.867   8.584 -0.6131  0.3505 -1.3840
   43CHL1   C25 5653   2.763   3.014   8.488  0.0106  0.0747  0.0264
   43CHL1   H25 5654   2.841   3.090   8.510 -0.2965  0.7532 -1.1398
   43CHL1   C26 5655   2.832   2.913   8.397 -0.2056  0.4466 -0.0614
   43CHL1  H26A 5656   2.868   2.975   8.312  0.6353  0.0024 -0.0374
   43CHL1  H26B 5657   2.920   2.872   8.450 -0.6170 -2.0991 -1.1997
   43CHL1  H26C 5658   2.755   2.840   8.364 -0.8787  1.7572 -1.5515
   43CHL1   C27 5659   2.648   3.086   8.416 -0.0220 -0.2602 -0.6856
   43CHL1  H27A 5660   2.607   3.157   8.492  0.6972 -0.7866  0.2128
   43CHL1  H27B 5661   2.691   3.140   8.329  0.4503  1.4542  0.5525
   43CHL1  H27C 5662   2.568   3.016   8.383 -1.8143  3.0559 -4.1770
   44CHL1    C3 5663   1.520   6.019  10.213  0.0554 -0.0586 -0.3398
   44CHL1    H3 5664   1.603   5.945  10.203 -1.1290 -1.5829  0.6864
   44CHL1    O3 5665   1.500   6.033  10.352 -0.6619 -0.3550  0.4510
   44CHL1   H3' 5666   1.407   6.014  10.364 -0.5657 -0.5523  0.9055
   44CHL1    C4 5667   1.539   6.156  10.138  0.4402 -0.0951 -0.0292
   44CHL1   H4A 5668   1.451   6.221  10.158  0.4569  0.1162 -0.6220
   44CHL1   H4B 5669   1.626   6.206  10.185 -0.0310  0.8933 -0.1608
   44CHL1    C5 5670   1.555   6.135   9.984 -0.3784  0.2141 -0.0621
   44CHL1    C6 5671   1.673   6.157   9.920  0.2060 -0.0087 -0.2349
   44CHL1    H6 5672   1.758   6.199   9.975 -1.3064  2.6047  0.2532
   44CHL1    C7 5673   1.693   6.138   9.772  0.0163 -0.4265  0.7831
   44CHL1   H7A 5674   1.751   6.221   9.727 -0.6553 -0.6736 -0.6224
   44CHL1   H7B 5675   1.737   6.037   9.756  0.2233 -0.2477  0.1809
   44CHL1    C8 5676   1.560   6.139   9.696 -0.7963  0.3140 -0.0052
   44CHL1    H8 5677   1.509   6.238   9.689 -2.2599 -0.3565  0.6646
   44CHL1   C14 5678   1.585   6.081   9.553 -0.6472  0.0288  0.0319
   44CHL1   H14 5679   1.628   5.980   9.570  1.1744  0.7693  0.0628
   44CHL1   C15 5680   1.692   6.157   9.474 -0.4998 -0.0374  0.7729
   44CHL1  H15A 5681   1.671   6.266   9.478  0.2835  0.1424  0.2605
   44CHL1  H15B 5682   1.798   6.136   9.501  0.1270  0.1140 -1.3916
   44CHL1   C16 5683   1.681   6.096   9.335  0.4722 -0.3254  1.1221
   44CHL1  H16A 5684   1.696   6.173   9.255  0.5866 -0.7887  0.6937
   44CHL1  H16B 5685   1.752   6.013   9.316  1.1513  0.3837  0.4675
   44CHL1   C17 5686   1.540   6.030   9.332  0.3830  0.7469  0.1680
   44CHL1   H17 5687   1.560   5.921   9.344  2.0014  1.1120  1.0459
   44CHL1   C13 5688   1.465   6.073   9.461  0.4882 -0.4080 -0.6953
   44CHL1   C18 5689   1.406   6.217   9.440 -0.7046  0.0387  0.5871
   44CHL1  H18A 5690   1.324   6.206   9.366 -0.3363  3.1443 -0.4169
   44CHL1  H18B 5691   1.369   6.269   9.531 -0.7753  0.2554  0.4344
   44CHL1  H18C 5692   1.472   6.295   9.399 -0.3896  0.3255  1.6009
   44CHL1   C12 5693   1.373   5.973   9.526  0.1244 -0.1904 -0.0430
   44CHL1  H12A 5694   1.280   5.968   9.465 -0.0888 -0.4637  0.3027
   44CHL1  H12B 5695   1.413   5.870   9.525  0.6574  0.0106  0.0741
   44CHL1   C11 5696   1.329   6.014   9.669  0.0016  0.4295 -0.2305
   44CHL1  H11A 5697   1.270   6.107   9.658 -0.2442  0.2384 -0.5474
   44CHL1  H11B 5698   1.268   5.935   9.718  1.9504 -0.7511  0.4176
   44CHL1    C9 5699   1.457   6.037   9.763  0.3896  0.1755  0.2503
   44CHL1    H9 5700   1.513   5.941   9.761 -0.3065 -0.2270 -0.1028
   44CHL1   C10 5701   1.433   6.077   9.916 -0.0600  0.9774 -0.3073
   44CHL1   C19 5702   1.315   6.173   9.912  0.1849 -0.1718 -0.2448
   44CHL1  H19A 5703   1.332   6.259   9.845  1.6721  0.6796  1.1562
   44CHL1  H19B 5704   1.224   6.116   9.881 -0.4482  1.1203 -0.8005
   44CHL1  H19C 5705   1.297   6.218  10.012 -1.4920  0.2134 -0.6937
   44CHL1    C1 5706   1.396   5.943   9.991 -0.2150  0.2852 -0.3697
   44CHL1   H1A 5707   1.291   5.913   9.971 -0.2902 -0.4464  0.9740
   44CHL1   H1B 5708   1.469   5.866   9.958  0.6903  1.3709 -0.9700
   44CHL1    C2 5709   1.395   5.948  10.148 -0.9536  0.4093  0.9642
   44CHL1   H2A 5710   1.403   5.843  10.185 -0.9562  0.5902  1.4918
   44CHL1   H2B 5711   1.308   6.012  10.173 -0.3996  1.2889  0.6792
   44CHL1   C20 5712   1.461   6.024   9.201  0.0856  0.4967  0.0205
   44CHL1   H20 5713   1.398   6.112   9.177  1.8611  1.4888 -1.2335
   44CHL1   C21 5714   1.350   5.912   9.200 -0.0115 -0.5739  0.1680
   44CHL1  H21A 5715   1.302   5.892   9.102 -0.4490 -0.7966  0.4231
   44CHL1  H21B 5716   1.267   5.937   9.269  1.4613  0.8637  1.5264
   44CHL1  H21C 5717   1.391   5.814   9.232 -1.1101 -0.2778  2.7518
   44CHL1   C22 5718   1.548   6.015   9.074 -0.5746 -0.4301 -0.5734
   44CHL1  H22A 5719   1.484   6.025   8.984 -0.0240  0.7930 -0.8551
   44CHL1  H22B 5720   1.625   6.095   9.079 -0.4696 -0.5071 -0.9242
   44CHL1   C23 5721   1.619   5.878   9.040  0.4024 -0.3129 -0.1183
   44CHL1  H23A 5722   1.656   5.838   9.137  3.9554  1.5605 -0.5780
   44CHL1  H23B 5723   1.540   5.812   8.996  1.3319 -0.7866 -1.1234
   44CHL1   C24 5724   1.733   5.908   8.945 -0.0422  0.2535  0.4389
   44CHL1  H24A 5725   1.703   5.988   8.874  1.0141  1.4892  1.3499
   44CHL1  H24B 5726   1.825   5.943   8.996  1.3890  0.8321 -2.3014
   44CHL1   C25 5727   1.776   5.777   8.868  0.0828 -0.1630 -0.0006
   44CHL1   H25 5728   1.803   5.700   8.944  0.4481 -3.2598 -3.0531
   44CHL1   C26 5729   1.676   5.711   8.777  1.3772 -0.1141  0.3765
   44CHL1  H26A 5730   1.636   5.784   8.704  0.0581 -0.8449  0.3353
   44CHL1  H26B 5731   1.726   5.625   8.727  1.7324 -0.4973  1.3666
   44CHL1  H26C 5732   1.598   5.674   8.846  1.2423 -0.3709  0.0860
   44CHL1   C27 5733   1.898   5.820   8.780 -0.0227 -0.0102 -0.0263
   44CHL1  H27A 5734   1.953   5.907   8.822 -0.5011  0.0168  0.5497
   44CHL1  H27B 5735   1.963   5.729   8.775  0.0943  0.0451  0.4415
   44CHL1  H27C 5736   1.877   5.844   8.674  0.0050  1.6730  0.3223
   45CHL1    C3 5737   3.065   0.166  10.356  0.2176  0.2057  0.4123
   45CHL1    H3 5738   2.970   0.118  10.328  0.1427  0.5444  0.0694
   45CHL1    O3 5739   3.074   0.180  10.496 -0.0058  0.1349  0.4660
   45CHL1   H3' 5740   3.159   0.222  10.514 -0.0633 -0.1477  1.4468
   45CHL1    C4 5741   3.177   0.073  10.298  0.4003 -0.2389  0.0155
   45CHL1   H4A 5742   3.278   0.113  10.323  0.0106  1.0848 -0.4188
   45CHL1   H4B 5743   3.175  -0.032  10.334  0.7776 -0.8608 -1.7162
   45CHL1    C5 5744   3.148   0.059  10.150  1.0987  0.5802  0.2278
   45CHL1    C6 5745   3.113  -0.053  10.087 -0.0813 -0.5412  0.0087
   45CHL1    H6 5746   3.103  -0.144  10.149 -1.3745  0.1005  0.7878
   45CHL1    C7 5747   3.074  -0.065   9.939 -0.3744 -0.2098 -0.0621
   45CHL1   H7A 5748   3.154  -0.089   9.865 -0.4166  0.6314 -0.3864
   45CHL1   H7B 5749   2.994  -0.141   9.924  0.8701 -1.6965  0.5119
   45CHL1    C8 5750   3.014   0.066   9.889 -0.0287  0.7333 -0.3614
   45CHL1    H8 5751   2.920   0.081   9.947 -0.0018 -2.1714  0.5969
   45CHL1   C14 5752   2.972   0.040   9.748 -0.2440 -0.2710  0.1161
   45CHL1   H14 5753   2.946  -0.068   9.745 -0.1650 -0.3966  2.5076
   45CHL1   C15 5754   2.834   0.105   9.714 -0.3805  0.2305  0.4985
   45CHL1  H15A 5755   2.753   0.072   9.782 -2.0837  1.8229 -0.6795
   45CHL1  H15B 5756   2.835   0.216   9.720  0.1292  0.3819 -1.5642
   45CHL1   C16 5757   2.820   0.068   9.561 -0.1715 -0.8759 -0.6224
   45CHL1  H16A 5758   2.800  -0.041   9.557  1.2887 -1.2374  0.8522
   45CHL1  H16B 5759   2.740   0.123   9.506  0.9663  1.4732 -0.0318
   45CHL1   C17 5760   2.960   0.104   9.510 -0.6786  0.1062  0.2075
   45CHL1   H17 5761   2.962   0.215   9.516  1.8556  0.0593  1.9844
   45CHL1   C13 5762   3.062   0.068   9.625  0.1940  0.2875 -0.9613
   45CHL1   C18 5763   3.138  -0.069   9.592  0.1323 -0.2009 -0.2336
   45CHL1  H18A 5764   3.214  -0.093   9.669 -1.7496 -0.7483  1.5345
   45CHL1  H18B 5765   3.066  -0.153   9.582  0.2123 -0.1069 -1.9350
   45CHL1  H18C 5766   3.204  -0.062   9.503  1.1229 -0.8111  0.4434
   45CHL1   C12 5767   3.160   0.183   9.665  0.1794  0.6955  0.1323
   45CHL1  H12A 5768   3.241   0.188   9.588  0.4085 -0.6254  0.2560
   45CHL1  H12B 5769   3.101   0.277   9.663 -1.2826 -0.2151 -0.7329
   45CHL1   C11 5770   3.223   0.170   9.799  0.1230 -0.1719 -0.6859
   45CHL1  H11A 5771   3.293   0.087   9.821 -1.0765 -1.0694 -0.1195
   45CHL1  H11B 5772   3.294   0.255   9.796  0.4647 -0.4813 -1.9454
   45CHL1    C9 5773   3.108   0.178   9.911 -0.6231  0.0434  0.1678
   45CHL1    H9 5774   3.069   0.278   9.886 -1.1415 -0.3747 -0.7838
   45CHL1   C10 5775   3.150   0.191  10.065 -0.2047 -0.5763 -0.1205
   45CHL1   C19 5776   3.296   0.250  10.069  0.8251 -0.0113 -0.2333
   45CHL1  H19A 5777   3.360   0.176  10.017 -0.7789 -1.4595 -0.2598
   45CHL1  H19B 5778   3.306   0.349  10.021 -0.8018 -0.5886 -1.8966
   45CHL1  H19C 5779   3.336   0.262  10.172  1.0711  2.3007 -0.5459
   45CHL1    C1 5780   3.055   0.289  10.144 -0.1265  0.3762 -0.3845
   45CHL1   H1A 5781   3.069   0.388  10.095 -0.4720  0.4453 -0.3414
   45CHL1   H1B 5782   2.951   0.257  10.125 -0.4934  1.1658  0.2647
   45CHL1    C2 5783   3.082   0.304  10.297 -0.5122 -0.4083  0.0007
   45CHL1   H2A 5784   3.018   0.378  10.349  0.2073 -0.3613  0.8380
   45CHL1   H2B 5785   3.186   0.339  10.314 -0.9684  0.9810  0.0600
   45CHL1   C20 5786   2.996   0.054   9.372  0.0598  0.0319 -0.1235
   45CHL1   H20 5787   3.013  -0.055   9.385  1.3936  0.2332 -0.0779
   45CHL1   C21 5788   3.117   0.130   9.320 -0.0205 -0.8408  0.2050
   45CHL1  H21A 5789   3.081   0.229   9.285 -3.9114 -2.5436 -1.1005
   45CHL1  H21B 5790   3.150   0.072   9.231 -1.1436 -2.2522  0.6632
   45CHL1  H21C 5791   3.200   0.155   9.389 -0.6688  2.0891  0.0428
   45CHL1   C22 5792   2.880   0.059   9.270 -0.0216 -0.2690 -0.3799
   45CHL1  H22A 5793   2.795  -0.005   9.301  1.5238 -2.8089 -1.0967
   45CHL1  H22B 5794   2.845   0.165   9.273  3.4770  1.0307 -0.6450
   45CHL1   C23 5795   2.915   0.035   9.117  0.1503  0.3253  0.3395
   45CHL1  H23A 5796   2.994   0.110   9.094 -1.8477  2.4755  0.1094
   45CHL1  H23B 5797   2.955  -0.068   9.116 -3.2596 -1.1391 -1.0839
   45CHL1   C24 5798   2.793   0.044   9.025  0.3822 -0.2629 -0.0057
   45CHL1  H24A 5799   2.709  -0.005   9.078 -0.3875 -0.9339 -1.7634
   45CHL1  H24B 5800   2.773   0.153   9.027 -0.6401 -0.4453  0.0233
   45CHL1   C25 5801   2.811  -0.018   8.888  0.1407 -0.3717  0.0950
   45CHL1   H25 5802   2.858  -0.117   8.904  1.1378  0.4497  2.7333
   45CHL1   C26 5803   2.676  -0.025   8.811 -0.0721 -0.0036 -0.1065
   45CHL1  H26A 5804   2.604  -0.098   8.853 -0.0257  0.5644  1.0035
   45CHL1  H26B 5805   2.630   0.075   8.807  0.8075  0.5791  2.4175
   45CHL1  H26C 5806   2.705  -0.059   8.709 -2.2125 -2.2668 -0.0544
   45CHL1   C27 5807   2.916   0.068   8.807 -0.2138 -0.1249  0.3145
   45CHL1  H27A 5808   2.885   0.174   8.819  0.2083 -0.1352  1.6721
   45CHL1  H27B 5809   3.014   0.039   8.850  0.1785 -0.2653 -0.6490
   45CHL1  H27C 5810   2.928   0.055   8.698 -1.8896 -0.3242  0.1255
   46CHL1    C3 5811   6.087   5.800   9.867  0.0611  0.5558 -0.1493
   46CHL1    H3 5812   6.169   5.728   9.848 -0.4750 -0.7716  2.2780
   46CHL1    O3 5813   6.088   5.809  10.009 -0.0599 -0.0984  0.1651
   46CHL1   H3' 5814   6.015   5.866  10.034  0.1554  0.9118 -1.3458
   46CHL1    C4 5815   6.110   5.933   9.805 -0.0111  0.3808 -0.1543
   46CHL1   H4A 5816   6.035   6.004   9.844  0.6401  0.5757  0.7704
   46CHL1   H4B 5817   6.206   5.967   9.849 -0.8703 -0.4820  2.5711
   46CHL1    C5 5818   6.103   5.924   9.654 -0.1027 -0.2519 -0.9258
   46CHL1    C6 5819   6.203   5.969   9.581  0.0399 -0.4898 -0.0703
   46CHL1    H6 5820   6.293   6.008   9.632 -0.9211  2.4616 -0.4322
   46CHL1    C7 5821   6.206   5.954   9.430 -0.0888 -0.1959 -0.2713
   46CHL1   H7A 5822   6.251   6.045   9.384 -1.2172  0.2749 -0.4637
   46CHL1   H7B 5823   6.272   5.872   9.394  0.5947  1.0259 -1.9035
   46CHL1    C8 5824   6.068   5.943   9.365  0.1469 -0.1575 -0.0167
   46CHL1    H8 5825   6.009   6.035   9.385 -0.9474 -1.2016  1.8670
   46CHL1   C14 5826   6.082   5.918   9.210 -0.7902  0.2929 -0.8540
   46CHL1   H14 5827   6.150   5.831   9.198  0.3630  1.2237 -1.2414
   46CHL1   C15 5828   6.153   6.028   9.126  0.1296 -0.6071  0.0871
   46CHL1  H15A 5829   6.113   6.127   9.159  0.0124 -0.3373 -0.8312
   46CHL1  H15B 5830   6.263   6.016   9.117  0.3279  0.6953  0.4820
   46CHL1   C16 5831   6.106   5.999   8.983  0.1090  0.1138 -0.5645
   46CHL1  H16A 5832   6.055   6.090   8.944 -2.1871 -0.2849  1.3089
   46CHL1  H16B 5833   6.193   5.968   8.920 -1.6497 -3.5310 -1.4705
   46CHL1   C17 5834   5.995   5.884   8.992  0.1952  0.0147  0.3073
   46CHL1   H17 5835   6.049   5.789   8.971 -0.1974  0.3949 -3.0290
   46CHL1   C13 5836   5.952   5.887   9.136  0.7436 -0.2039  0.4026
   46CHL1   C18 5837   5.840   5.990   9.151  0.8074 -0.6914  0.2123
   46CHL1  H18A 5838   5.851   6.085   9.095 -0.9057 -0.8864 -0.5260
   46CHL1  H18B 5839   5.746   5.945   9.110  1.6429 -0.5319 -2.0053
   46CHL1  H18C 5840   5.834   6.021   9.257  1.5853 -1.1716  0.4026
   46CHL1   C12 5841   5.903   5.753   9.200  0.7321  0.0296 -0.1533
   46CHL1  H12A 5842   5.806   5.717   9.160  0.3495  0.2038  0.6032
   46CHL1  H12B 5843   5.974   5.669   9.181 -0.5737 -1.1989  0.2242
   46CHL1   C11 5844   5.878   5.764   9.360  0.7911 -0.4079 -0.0180
   46CHL1  H11A 5845   5.787   5.828   9.365 -0.3966 -1.8990 -1.4725
   46CHL1  H11B 5846   5.849   5.666   9.402 -0.4172 -0.0065  0.1097
   46CHL1    C9 5847   6.000   5.823   9.440 -0.5077 -0.0278  0.1141
   46CHL1    H9 5848   6.076   5.742   9.439  1.8470  2.0360  0.1684
   46CHL1   C10 5849   5.978   5.856   9.590 -0.1504  0.3207  0.2811
   46CHL1   C19 5850   5.863   5.960   9.599 -0.6975  0.2955  0.2477
   46CHL1  H19A 5851   5.877   6.061   9.643 -1.8761  0.2699  0.6993
   46CHL1  H19B 5852   5.815   5.984   9.501 -1.2962 -3.3083 -0.4893
   46CHL1  H19C 5853   5.783   5.926   9.668 -1.6845 -0.0533 -1.0268
   46CHL1    C1 5854   5.949   5.725   9.669 -1.0556 -1.2211 -0.4676
   46CHL1   H1A 5855   5.850   5.684   9.641 -1.1651 -0.2832 -1.4848
   46CHL1   H1B 5856   6.019   5.641   9.647 -1.7911 -1.8396 -0.4681
   46CHL1    C2 5857   5.953   5.735   9.822  0.3416 -0.2489  1.2044
   46CHL1   H2A 5858   5.939   5.637   9.872  0.5627 -0.2662  1.2323
   46CHL1   H2B 5859   5.866   5.795   9.855  0.3970 -0.5090  1.8330
   46CHL1   C20 5860   5.899   5.899   8.875 -0.3835 -0.2122  0.0610
   46CHL1   H20 5861   5.824   5.980   8.886  0.0294  0.2647 -0.5546
   46CHL1   C21 5862   5.820   5.771   8.873 -0.9977  0.1605 -0.3839
   46CHL1  H21A 5863   5.882   5.679   8.879 -2.1543 -0.6096  0.0314
   46CHL1  H21B 5864   5.774   5.760   8.772 -2.0327 -2.2321  0.2805
   46CHL1  H21C 5865   5.743   5.764   8.952 -1.3240  0.9340 -0.6155
   46CHL1   C22 5866   5.959   5.941   8.732 -0.1549  0.4891  0.3818
   46CHL1  H22A 5867   6.021   6.030   8.755 -0.8560  1.1525 -0.2315
   46CHL1  H22B 5868   6.033   5.864   8.700 -0.3563  0.3429  0.2614
   46CHL1   C23 5869   5.860   5.975   8.616 -0.9309 -0.4337 -0.1014
   46CHL1  H23A 5870   5.922   5.976   8.524  0.9455 -0.6343  1.1193
   46CHL1  H23B 5871   5.795   5.886   8.600 -2.0692  0.6196 -1.7886
   46CHL1   C24 5872   5.783   6.110   8.632  0.0065 -0.2232  0.2773
   46CHL1  H24A 5873   5.710   6.102   8.549  0.3695 -0.6334 -0.0059
   46CHL1  H24B 5874   5.730   6.090   8.728 -1.6110 -1.0891 -0.7447
   46CHL1   C25 5875   5.869   6.239   8.651 -0.6417 -0.0390  0.2754
   46CHL1   H25 5876   5.952   6.210   8.718 -1.8096 -1.0641  1.3479
   46CHL1   C26 5877   5.935   6.282   8.520 -0.0059 -0.2327 -0.8659
   46CHL1  H26A 5878   5.989   6.199   8.469  1.9987  0.7600 -0.4184
   46CHL1  H26B 5879   5.869   6.332   8.446  0.6897  1.5598 -0.3185
   46CHL1  H26C 5880   6.003   6.366   8.544 -1.1339  0.5701 -0.4187
   46CHL1   C27 5881   5.794   6.354   8.710  0.7199 -0.3405 -0.2132
   46CHL1  H27A 5882   5.720   6.405   8.645 -1.2025 -0.0226  2.0697
   46CHL1  H27B 5883   5.756   6.335   8.813  0.0440  1.1065 -0.1722
   46CHL1  H27C 5884   5.871   6.433   8.721 -0.0201  0.3736 -0.0386
   47CHL1    C3 5885   1.686   1.935  10.136 -0.1753  0.2590  0.4568
   47CHL1    H3 5886   1.615   2.017  10.112 -1.1182 -0.4517  0.7432
   47CHL1    O3 5887   1.655   1.878  10.262  0.3957 -0.3689  0.2880
   47CHL1   H3' 5888   1.739   1.837  10.286  1.4634  1.4763 -0.0928
   47CHL1    C4 5889   1.684   1.824  10.025 -0.5055  0.3410  0.3112
   47CHL1   H4A 5890   1.741   1.735  10.058 -3.1704 -1.4411  0.4694
   47CHL1   H4B 5891   1.578   1.790  10.022  0.0828 -1.5855 -0.0982
   47CHL1    C5 5892   1.738   1.866   9.890 -0.5065 -1.5469  0.2401
   47CHL1    C6 5893   1.670   1.849   9.773 -0.2741  0.1672  0.4341
   47CHL1    H6 5894   1.576   1.795   9.793  1.7771 -3.8204  0.2695
   47CHL1    C7 5895   1.717   1.887   9.636  1.2459 -0.5456 -0.8595
   47CHL1   H7A 5896   1.687   1.810   9.562 -0.9453 -2.2872  1.6500
   47CHL1   H7B 5897   1.649   1.973   9.616  0.6538 -0.4145  1.3977
   47CHL1    C8 5898   1.864   1.932   9.633 -0.4835 -0.5839 -0.1447
   47CHL1    H8 5899   1.918   1.836   9.645 -1.7333 -1.0889  1.9275
   47CHL1   C14 5900   1.897   2.010   9.505  0.3397 -0.3426  0.0079
   47CHL1   H14 5901   1.838   2.104   9.508 -1.0340 -1.1823  3.0697
   47CHL1   C15 5902   1.860   1.941   9.372  0.3085 -0.3990 -0.1235
   47CHL1  H15A 5903   1.891   1.836   9.392  1.6243  0.0158  0.1255
   47CHL1  H15B 5904   1.749   1.939   9.365  0.1978  0.2593  1.3246
   47CHL1   C16 5905   1.939   2.014   9.265 -0.0599  0.6166 -0.0615
   47CHL1  H16A 5906   2.012   1.946   9.216 -1.7841 -0.3489 -1.3886
   47CHL1  H16B 5907   1.875   2.075   9.198 -3.9360 -2.6843  0.2356
   47CHL1   C17 5908   2.042   2.107   9.347  0.2918  0.1516  0.8139
   47CHL1   H17 5909   1.992   2.205   9.362 -1.5633 -0.7937  1.0317
   47CHL1   C13 5910   2.045   2.047   9.488 -0.0096  0.7738  0.3228
   47CHL1   C18 5911   2.143   1.923   9.480  0.9258  0.0508 -0.5203
   47CHL1  H18A 5912   2.244   1.965   9.500  0.6371  1.8111 -2.4492
   47CHL1  H18B 5913   2.122   1.839   9.550 -1.1777  0.7797 -0.1993
   47CHL1  H18C 5914   2.157   1.877   9.380  1.9043 -0.4945 -0.1454
   47CHL1   C12 5915   2.075   2.138   9.614 -0.3166 -0.6094  0.5441
   47CHL1  H12A 5916   2.180   2.173   9.613 -0.6531  0.4301  0.7753
   47CHL1  H12B 5917   2.012   2.226   9.592  1.1718  0.8079  1.7216
   47CHL1   C11 5918   2.045   2.067   9.743 -0.4109 -0.9699 -0.4084
   47CHL1  H11A 5919   2.118   1.984   9.741  0.2963 -0.3451 -2.2251
   47CHL1  H11B 5920   2.060   2.140   9.826 -1.2943 -0.4077 -0.7290
   47CHL1    C9 5921   1.900   2.017   9.758 -0.3709  0.2425  0.4757
   47CHL1    H9 5922   1.837   2.109   9.765  0.7066  1.1372 -1.0373
   47CHL1   C10 5923   1.874   1.937   9.889 -0.0416 -0.0314 -0.1002
   47CHL1   C19 5924   1.985   1.836   9.910 -0.2666  0.5111  0.2654
   47CHL1  H19A 5925   1.993   1.774   9.818  2.1640 -0.6568  1.1934
   47CHL1  H19B 5926   2.088   1.876   9.924  0.2047  0.2592 -2.0323
   47CHL1  H19C 5927   1.946   1.774   9.993 -0.4861  2.1880  1.4615
   47CHL1    C1 5928   1.886   2.036  10.003 -0.0809 -0.1550 -0.3577
   47CHL1   H1A 5929   1.991   2.068  10.019 -0.3064 -0.0430  1.0951
   47CHL1   H1B 5930   1.835   2.126   9.963  0.5212 -0.6561 -2.3689
   47CHL1    C2 5931   1.829   1.985  10.141  0.6163 -0.5554  0.7301
   47CHL1   H2A 5932   1.834   2.076  10.204 -1.7991  0.0611  0.1465
   47CHL1   H2B 5933   1.900   1.903  10.166 -0.3534 -1.7658 -0.3113
   47CHL1   C20 5934   2.175   2.137   9.269  0.3341 -0.1757  0.1808
   47CHL1   H20 5935   2.241   2.048   9.282  0.6565  0.1848  1.1357
   47CHL1   C21 5936   2.253   2.241   9.350 -0.7192 -0.4944 -0.2011
   47CHL1  H21A 5937   2.292   2.189   9.440  0.0986 -0.4586 -0.5269
   47CHL1  H21B 5938   2.193   2.333   9.363 -2.1063 -1.2313 -1.1372
   47CHL1  H21C 5939   2.346   2.273   9.298 -1.3780  1.6658 -0.1333
   47CHL1   C22 5940   2.168   2.164   9.114  0.2034 -0.0429 -0.3674
   47CHL1  H22A 5941   2.272   2.187   9.081  0.0791  2.4064  0.7192
   47CHL1  H22B 5942   2.124   2.077   9.060  1.2276  0.5111 -2.1726
   47CHL1   C23 5943   2.090   2.286   9.068 -0.0650  0.6905  0.4322
   47CHL1  H23A 5944   1.982   2.272   9.090  0.1310 -0.5935  0.6624
   47CHL1  H23B 5945   2.124   2.377   9.121  2.7816 -0.3185  0.4937
   47CHL1   C24 5946   2.096   2.318   8.922 -1.3684  0.2627  0.2548
   47CHL1  H24A 5947   2.198   2.345   8.887 -1.0037 -1.7977 -0.4007
   47CHL1  H24B 5948   2.079   2.225   8.863  0.5550 -0.0821  0.1519
   47CHL1   C25 5949   1.996   2.428   8.871 -0.0351  0.0901  0.6862
   47CHL1   H25 5950   2.009   2.516   8.938  0.4981 -1.0290  2.1189
   47CHL1   C26 5951   2.021   2.470   8.724 -0.4204  0.3566 -0.0611
   47CHL1  H26A 5952   2.124   2.510   8.709 -0.5578  0.8711  0.3661
   47CHL1  H26B 5953   1.952   2.553   8.695  0.6920  0.9074 -1.2562
   47CHL1  H26C 5954   2.011   2.376   8.666 -1.9917 -0.7703  1.9332
   47CHL1   C27 5955   1.848   2.401   8.893 -0.0787 -0.9922  0.1481
   47CHL1  H27A 5956   1.817   2.412   8.999  0.7517  0.9670  0.2172
   47CHL1  H27B 5957   1.792   2.477   8.835 -1.3277 -1.7338  0.3382
   47CHL1  H27C 5958   1.825   2.303   8.845  2.1860  0.0431 -3.4390
   48CHL1    C3 5959   2.290   1.881  10.130 -0.0121  0.2182  0.3919
   48CHL1    H3 5960   2.190   1.910  10.090 -0.4588 -0.0003  1.3360
   48CHL1    O3 5961   2.295   1.870  10.267  0.1601 -0.4699 -0.6587
   48CHL1   H3' 5962   2.204   1.883  10.294  0.5849 -1.6603  1.5859
   48CHL1    C4 5963   2.326   1.738  10.078 -0.0291 -0.2637  0.3512
   48CHL1   H4A 5964   2.420   1.696  10.121  0.6934  0.6208 -0.3196
   48CHL1   H4B 5965   2.242   1.670  10.101  0.5725 -1.0819  0.1468
   48CHL1    C5 5966   2.353   1.740   9.926 -0.0446  0.1773 -0.7454
   48CHL1    C6 5967   2.285   1.667   9.837  0.4726  0.4820  0.4528
   48CHL1    H6 5968   2.210   1.599   9.880 -0.9239  2.7410  1.8173
   48CHL1    C7 5969   2.326   1.656   9.693 -0.0667  1.1650  0.3442
   48CHL1   H7A 5970   2.326   1.550   9.658 -0.9489  0.9936  0.8319
   48CHL1   H7B 5971   2.244   1.699   9.631 -0.9808 -1.0313 -0.0478
   48CHL1    C8 5972   2.463   1.715   9.656 -0.5216 -1.1221 -0.1112
   48CHL1    H8 5973   2.541   1.646   9.693 -1.2596 -0.4489  2.9642
   48CHL1   C14 5974   2.467   1.742   9.502  0.3209  0.1445  0.5776
   48CHL1   H14 5975   2.398   1.828   9.489  1.7471  1.4368  1.2677
   48CHL1   C15 5976   2.419   1.632   9.404 -0.1933  0.1208 -0.2203
   48CHL1  H15A 5977   2.460   1.530   9.425  1.3127 -0.0891 -3.6560
   48CHL1  H15B 5978   2.309   1.626   9.418 -0.2051 -1.2032 -0.7439
   48CHL1   C16 5979   2.468   1.681   9.266 -0.1701  0.0301 -0.1446
   48CHL1  H16A 5980   2.522   1.596   9.219  0.5337 -0.2464  1.1350
   48CHL1  H16B 5981   2.385   1.711   9.198 -0.0443 -0.8569 -0.7075
   48CHL1   C17 5982   2.561   1.804   9.296  0.2569 -0.0948 -0.1598
   48CHL1   H17 5983   2.486   1.883   9.275  0.3951  0.3445  0.9408
   48CHL1   C13 5984   2.600   1.797   9.443 -0.1446 -0.1374  0.4532
   48CHL1   C18 5985   2.711   1.693   9.468 -0.0840  0.8020  0.2970
   48CHL1  H18A 5986   2.677   1.595   9.429  0.8248  0.2504  0.8464
   48CHL1  H18B 5987   2.799   1.720   9.405 -1.2585 -0.1833 -1.8685
   48CHL1  H18C 5988   2.728   1.677   9.577  1.4190 -1.5268 -0.1894
   48CHL1   C12 5989   2.622   1.935   9.517 -0.2037  0.3337 -0.0351
   48CHL1  H12A 5990   2.724   1.968   9.491  0.9814 -0.6048  2.9490
   48CHL1  H12B 5991   2.555   2.016   9.482 -0.9321 -0.4900 -0.6117
   48CHL1   C11 5992   2.616   1.920   9.672 -0.5986 -0.0352  0.0272
   48CHL1  H11A 5993   2.692   1.848   9.708 -1.0481  0.1930  1.4761
   48CHL1  H11B 5994   2.631   2.018   9.723  0.0853 -0.4261  0.5978
   48CHL1    C9 5995   2.485   1.850   9.725  0.0788 -0.0844 -0.4829
   48CHL1    H9 5996   2.399   1.911   9.690 -0.4857 -0.3382  0.4357
   48CHL1   C10 5997   2.469   1.832   9.879 -0.4515  0.4890  0.0529
   48CHL1   C19 5998   2.605   1.781   9.939  0.5496  0.0109  0.6548
   48CHL1  H19A 5999   2.679   1.861   9.918  0.3081  0.2446  0.6796
   48CHL1  H19B 6000   2.612   1.769  10.050 -0.0645 -2.8638  0.4464
   48CHL1  H19C 6001   2.651   1.694   9.888 -0.6900 -0.0837 -0.3450
   48CHL1    C1 6002   2.437   1.973   9.943  0.4457  0.1613  0.2007
   48CHL1   H1A 6003   2.514   2.045   9.908 -0.2027 -0.0577 -1.8037
   48CHL1   H1B 6004   2.345   2.015   9.895 -0.8655 -1.0582  1.5556
   48CHL1    C2 6005   2.413   1.974  10.095 -0.3305  0.1183 -0.3851
   48CHL1   H2A 6006   2.385   2.073  10.138 -0.0602  0.3132 -0.6582
   48CHL1   H2B 6007   2.500   1.937  10.154  0.0370 -0.2704 -1.1665
   48CHL1   C20 6008   2.670   1.816   9.192 -0.4034  0.3255  0.3142
   48CHL1   H20 6009   2.742   1.733   9.203 -0.2635  0.3569 -0.2859
   48CHL1   C21 6010   2.742   1.948   9.215 -0.3217 -1.0408  0.4071
   48CHL1  H21A 6011   2.801   1.977   9.125  1.2708 -3.1021  0.7195
   48CHL1  H21B 6012   2.817   1.949   9.296  0.7178  2.1891 -0.4321
   48CHL1  H21C 6013   2.674   2.030   9.245 -0.9344 -1.3788 -0.0275
   48CHL1   C22 6014   2.621   1.810   9.044  0.1399  0.1772  0.0512
   48CHL1  H22A 6015   2.718   1.816   8.990  0.2309  0.7648  0.2674
   48CHL1  H22B 6016   2.570   1.712   9.032  0.1886  0.2979 -1.3252
   48CHL1   C23 6017   2.528   1.925   8.990  0.3624  0.5381 -0.9702
   48CHL1  H23A 6018   2.429   1.906   9.035  0.8088 -0.1626 -0.2493
   48CHL1  H23B 6019   2.565   2.024   9.023 -2.7388  2.1977 -2.0817
   48CHL1   C24 6020   2.527   1.932   8.838 -0.4486  0.7034  0.2951
   48CHL1  H24A 6021   2.631   1.955   8.806 -0.3314  1.0564  0.9071
   48CHL1  H24B 6022   2.493   1.840   8.787 -1.4265  0.8434  0.6758
   48CHL1   C25 6023   2.428   2.038   8.787  0.5412  0.0238 -0.6678
   48CHL1   H25 6024   2.453   2.134   8.837  2.3125  0.7437 -2.7752
   48CHL1   C26 6025   2.455   2.072   8.642  0.2914  0.6696 -0.4958
   48CHL1  H26A 6026   2.394   2.162   8.616  1.1721  1.6542  0.7057
   48CHL1  H26B 6027   2.562   2.095   8.624  0.2766 -0.9908 -3.3125
   48CHL1  H26C 6028   2.431   1.977   8.590  0.2756  0.8211 -0.7658
   48CHL1   C27 6029   2.283   1.992   8.810  0.1881 -0.0450 -0.6969
   48CHL1  H27A 6030   2.268   1.891   8.764  0.8013  0.3352 -1.7782
   48CHL1  H27B 6031   2.250   1.986   8.916 -0.5972  1.4058 -0.8341
   48CHL1  H27C 6032   2.213   2.060   8.756 -0.5932  0.3060  0.7292
   49CHL1    C3 6033   0.040   5.384  10.105  0.2404 -0.5275 -0.2228
   49CHL1    H3 6034  -0.006   5.284  10.117  0.9617 -0.6274  2.2869
   49CHL1    O3 6035   0.082   5.421  10.237 -0.0688  0.0898 -0.3533
   49CHL1   H3' 6036   0.077   5.342  10.290 -1.7144  1.1086  1.1267
   49CHL1    C4 6037   0.176   5.380  10.020  0.0960 -0.3586 -0.3223
   49CHL1   H4A 6038   0.216   5.481  10.043  1.5133 -1.1006  0.6077
   49CHL1   H4B 6039   0.243   5.303  10.063  0.6554 -1.7904 -3.5319
   49CHL1    C5 6040   0.150   5.357   9.877  0.2640 -0.7882  0.9972
   49CHL1    C6 6041   0.202   5.248   9.818  0.5558 -0.1804  0.2173
   49CHL1    H6 6042   0.277   5.183   9.867 -0.3147 -1.3414  0.0449
   49CHL1    C7 6043   0.178   5.216   9.675  0.0553 -0.2510  0.1162
   49CHL1   H7A 6044   0.269   5.178   9.624 -0.8935 -4.2578  1.0618
   49CHL1   H7B 6045   0.109   5.131   9.661  2.7156 -2.2613 -1.9228
   49CHL1    C8 6046   0.136   5.349   9.592 -0.4626  0.1057 -0.2282
   49CHL1    H8 6047   0.221   5.420   9.593 -0.1286 -0.2862 -0.3875
   49CHL1   C14 6048   0.094   5.307   9.455  0.2794 -0.9941 -0.3111
   49CHL1   H14 6049   0.009   5.240   9.480 -2.0539  2.6048  2.4040
   49CHL1   C15 6050   0.190   5.221   9.375  0.2154  0.1488  0.6756
   49CHL1  H15A 6051   0.288   5.272   9.368  0.0931  0.3581  0.4330
   49CHL1  H15B 6052   0.199   5.116   9.408  0.7970 -0.3438 -0.9576
   49CHL1   C16 6053   0.125   5.229   9.230  0.3040  0.8159  0.0811
   49CHL1  H16A 6054   0.208   5.262   9.164 -0.0953 -1.2518 -1.5616
   49CHL1  H16B 6055   0.085   5.128   9.207  1.4255  0.7395 -1.7292
   49CHL1   C17 6056   0.006   5.334   9.238  0.2513 -0.7525 -0.3322
   49CHL1   H17 6057  -0.084   5.272   9.258  0.8464 -2.0796 -1.5000
   49CHL1   C13 6058   0.038   5.419   9.361  0.0746 -0.2582 -0.7309
   49CHL1   C18 6059   0.157   5.510   9.323 -0.2053  0.1047  0.1650
   49CHL1  H18A 6060   0.224   5.531   9.409  0.5376 -1.1533 -0.0847
   49CHL1  H18B 6061   0.218   5.470   9.239 -0.6948  0.0426 -0.1660
   49CHL1  H18C 6062   0.125   5.612   9.291 -0.1993 -0.3662 -1.4136
   49CHL1   C12 6063  -0.082   5.485   9.424  0.1448  0.4493  0.2827
   49CHL1  H12A 6064  -0.112   5.577   9.370  1.9982  1.6548  1.2052
   49CHL1  H12B 6065  -0.168   5.415   9.438 -0.2491  0.6857 -0.8863
   49CHL1   C11 6066  -0.039   5.526   9.571  0.6674  0.4011  0.2252
   49CHL1  H11A 6067   0.036   5.606   9.550  0.3450  1.0092  1.2952
   49CHL1  H11B 6068  -0.118   5.577   9.631  0.2679  2.4698 -1.9039
   49CHL1    C9 6069   0.014   5.414   9.658  0.1297  0.3100 -0.2524
   49CHL1    H9 6070  -0.059   5.333   9.678 -0.0505  0.6976  0.7100
   49CHL1   C10 6071   0.048   5.449   9.809  0.0418 -0.2549 -0.3260
   49CHL1   C19 6072   0.122   5.589   9.797  0.5153  0.1618  0.3429
   49CHL1  H19A 6073   0.155   5.621   9.898  0.6151 -0.3451  0.4713
   49CHL1  H19B 6074   0.204   5.576   9.723  0.0660 -1.1863  0.0606
   49CHL1  H19C 6075   0.055   5.670   9.759  0.5296 -1.6806 -4.2169
   49CHL1    C1 6076  -0.081   5.458   9.900 -0.2573  0.1469 -0.2229
   49CHL1   H1A 6077  -0.144   5.541   9.863 -1.9468 -0.4356  1.1988
   49CHL1   H1B 6078  -0.138   5.363   9.888  2.0190 -1.2655 -0.4182
   49CHL1    C2 6079  -0.058   5.483  10.049 -0.0105  0.1798 -0.1065
   49CHL1   H2A 6080  -0.154   5.491  10.104 -2.0748  1.5849 -3.5640
   49CHL1   H2B 6081  -0.011   5.584  10.053  1.4493 -0.4958  0.9076
   49CHL1   C20 6082  -0.013   5.401   9.098 -0.3934 -0.2692 -0.1449
   49CHL1   H20 6083   0.077   5.454   9.060 -1.5798 -0.8055 -4.2689
   49CHL1   C21 6084  -0.130   5.500   9.113  0.0928 -0.2575  0.5394
   49CHL1  H21A 6085  -0.149   5.556   9.019 -0.3901 -0.2704  0.6285
   49CHL1  H21B 6086  -0.118   5.591   9.175  2.2796  2.0941 -2.9904
   49CHL1  H21C 6087  -0.216   5.440   9.150  0.0897 -0.1821  0.6561
   49CHL1   C22 6088  -0.040   5.292   8.994 -0.3146  0.4840 -0.1508
   49CHL1  H22A 6089   0.045   5.225   8.967  0.2033  1.4922 -1.0779
   49CHL1  H22B 6090  -0.129   5.237   9.032 -0.8239  1.5951  0.2895
   49CHL1   C23 6091  -0.066   5.355   8.853 -0.2481 -0.1921 -1.1505
   49CHL1  H23A 6092  -0.166   5.402   8.850  0.0990  0.6613 -0.0508
   49CHL1  H23B 6093   0.015   5.428   8.830  0.4995 -0.7752 -0.4309
   49CHL1   C24 6094  -0.051   5.247   8.746 -0.1580 -0.2519  0.3499
   49CHL1  H24A 6095   0.060   5.238   8.744 -0.0060  1.4066 -0.4395
   49CHL1  H24B 6096  -0.094   5.146   8.765  1.5709 -0.9740  0.5868
   49CHL1   C25 6097  -0.087   5.299   8.608 -0.5963  0.0095 -0.4392
   49CHL1   H25 6098  -0.060   5.406   8.603 -1.1585  0.1941  0.3069
   49CHL1   C26 6099  -0.004   5.229   8.507 -0.4604  0.1432 -0.0586
   49CHL1  H26A 6100  -0.015   5.278   8.407  1.8407  0.2885 -0.2961
   49CHL1  H26B 6101   0.101   5.253   8.533 -1.1623  2.4938  0.9286
   49CHL1  H26C 6102  -0.027   5.122   8.488 -2.2643  0.9815 -3.5100
   49CHL1   C27 6103  -0.242   5.278   8.587  0.9936  0.1978  0.3227
   49CHL1  H27A 6104  -0.291   5.363   8.639 -0.1015 -0.8726  1.0904
   49CHL1  H27B 6105  -0.275   5.280   8.481  2.0169  2.8122 -0.0015
   49CHL1  H27C 6106  -0.294   5.190   8.630 -2.0103  2.1593  0.9629
   50CHL1    C3 6107   3.798   0.868  10.037  0.3086 -0.2135 -0.1373
   50CHL1    H3 6108   3.762   0.769  10.001  0.3870 -0.4880  0.5318
   50CHL1    O3 6109   3.818   0.849  10.175  0.7478 -0.2223  0.1579
   50CHL1   H3' 6110   3.746   0.788  10.192  1.0983 -1.7232 -3.1493
   50CHL1    C4 6111   3.915   0.919   9.959 -0.2638 -0.5647  0.0103
   50CHL1   H4A 6112   3.943   1.023   9.984  0.0028 -0.5171 -0.4824
   50CHL1   H4B 6113   4.004   0.854   9.971  1.1200  1.5914  2.2160
   50CHL1    C5 6114   3.885   0.940   9.809 -0.0857  0.7891  0.1731
   50CHL1    C6 6115   3.970   0.893   9.717  0.1531 -0.2728 -0.9802
   50CHL1    H6 6116   4.063   0.839   9.743  0.1436 -0.4350 -1.2775
   50CHL1    C7 6117   3.949   0.909   9.573 -0.7204 -0.9346  0.2163
   50CHL1   H7A 6118   4.038   0.953   9.524  0.9133 -3.2093  1.0060
   50CHL1   H7B 6119   3.944   0.808   9.527  1.7383  0.7939 -4.5030
   50CHL1    C8 6120   3.832   1.005   9.530  0.0563 -0.8902  0.4252
   50CHL1    H8 6121   3.872   1.108   9.523  0.0175 -0.9571 -1.3048
   50CHL1   C14 6122   3.790   0.964   9.393 -0.0475  0.6336  0.0717
   50CHL1   H14 6123   3.761   0.858   9.402 -3.0725  1.2868 -1.0838
   50CHL1   C15 6124   3.902   0.959   9.286 -0.1884 -0.6273 -0.7308
   50CHL1  H15A 6125   3.958   1.055   9.281 -0.6353 -0.3914 -1.4697
   50CHL1  H15B 6126   3.970   0.873   9.298  2.1966  0.8358 -2.7625
   50CHL1   C16 6127   3.822   0.952   9.165  0.0438 -0.1234 -0.2123
   50CHL1  H16A 6128   3.866   1.013   9.084  0.3542  0.6889  0.5495
   50CHL1  H16B 6129   3.833   0.844   9.140  0.0507  0.4443 -2.9658
   50CHL1   C17 6130   3.677   0.988   9.194  0.1869 -0.4816 -0.1037
   50CHL1   H17 6131   3.623   0.891   9.203 -0.7538  0.0786  0.4522
   50CHL1   C13 6132   3.679   1.052   9.332 -0.3545  0.3448  0.2509
   50CHL1   C18 6133   3.715   1.202   9.326 -0.8670 -0.1133  0.0089
   50CHL1  H18A 6134   3.753   1.254   9.417 -0.4043  1.2254 -0.9085
   50CHL1  H18B 6135   3.798   1.219   9.255  0.3045 -1.3512  1.0323
   50CHL1  H18C 6136   3.628   1.263   9.292  0.0116  0.5816 -1.0365
   50CHL1   C12 6137   3.557   1.026   9.423  1.0402 -0.2722 -0.3440
   50CHL1  H12A 6138   3.465   1.086   9.405  0.1160 -0.0800  3.9157
   50CHL1  H12B 6139   3.516   0.923   9.415  3.3012 -1.1498 -1.5016
   50CHL1   C11 6140   3.588   1.066   9.568  0.1577 -0.5307 -0.6439
   50CHL1  H11A 6141   3.603   1.176   9.573 -1.2671 -0.2672 -1.6886
   50CHL1  H11B 6142   3.501   1.046   9.634  0.3907  0.5361  0.0114
   50CHL1    C9 6143   3.717   0.995   9.628 -0.1086  0.8809 -0.2644
   50CHL1    H9 6144   3.688   0.890   9.604  0.9763  1.0237 -2.4152
   50CHL1   C10 6145   3.752   1.017   9.781 -0.4474  0.3257 -0.4874
   50CHL1   C19 6146   3.776   1.163   9.806 -0.6280 -0.2288  0.0992
   50CHL1  H19A 6147   3.849   1.208   9.736 -1.3371 -0.2621 -0.6789
   50CHL1  H19B 6148   3.685   1.226   9.792 -0.5451 -0.4604 -1.7633
   50CHL1  H19C 6149   3.815   1.179   9.909 -0.4020 -0.1558  0.0018
   50CHL1    C1 6150   3.632   0.979   9.870  0.2257  0.3351  0.1843
   50CHL1   H1A 6151   3.548   1.052   9.868 -1.0117 -1.0337 -1.9997
   50CHL1   H1B 6152   3.597   0.882   9.829  0.3619  0.3654 -0.0049
   50CHL1    C2 6153   3.666   0.959  10.020 -0.4135  0.1378 -0.3044
   50CHL1   H2A 6154   3.576   0.914  10.067 -0.2057  0.4910  0.4482
   50CHL1   H2B 6155   3.674   1.059  10.068  3.3256  0.7140 -1.7955
   50CHL1   C20 6156   3.602   1.054   9.076 -0.2682  0.0784  0.4066
   50CHL1   H20 6157   3.659   1.145   9.050  0.6892 -0.8016 -0.6448
   50CHL1   C21 6158   3.457   1.084   9.114 -0.4918  0.5255 -0.1866
   50CHL1  H21A 6159   3.466   1.136   9.212  1.3875 -1.4605  0.8060
   50CHL1  H21B 6160   3.395   0.992   9.128 -0.3818 -0.0575 -3.0439
   50CHL1  H21C 6161   3.397   1.153   9.052 -1.4140  1.3960  1.5765
   50CHL1   C22 6162   3.601   0.973   8.944 -0.3105  0.0264 -0.3200
   50CHL1  H22A 6163   3.705   0.951   8.911 -0.8388 -0.0668 -2.0537
   50CHL1  H22B 6164   3.552   0.875   8.962  0.3615 -0.0709  1.1383
   50CHL1   C23 6165   3.545   1.045   8.827  0.6639 -0.3581 -0.4841
   50CHL1  H23A 6166   3.436   1.058   8.845  0.7649 -0.8992  0.6190
   50CHL1  H23B 6167   3.587   1.146   8.807 -0.0005 -0.0859 -0.5088
   50CHL1   C24 6168   3.562   0.965   8.690  0.2178  0.0966  0.4712
   50CHL1  H24A 6169   3.670   0.951   8.672  0.5174  1.2906  1.2500
   50CHL1  H24B 6170   3.510   0.869   8.711 -2.8105  1.8373  1.5999
   50CHL1   C25 6171   3.496   1.030   8.565 -0.3383  0.3083  0.0725
   50CHL1   H25 6172   3.528   1.135   8.581 -1.7859  0.4966  2.1574
   50CHL1   C26 6173   3.547   0.983   8.429 -0.3975 -0.1329  1.1392
   50CHL1  H26A 6174   3.523   0.875   8.413 -1.4539  0.2137  0.3146
   50CHL1  H26B 6175   3.516   1.046   8.343  1.2077  1.4900  1.6811
   50CHL1  H26C 6176   3.657   0.995   8.420 -0.8551  3.4744 -2.4628
   50CHL1   C27 6177   3.342   1.021   8.564  0.6970  0.0069 -0.2708
   50CHL1  H27A 6178   3.297   1.055   8.660  0.3612 -1.6842  0.1963
   50CHL1  H27B 6179   3.311   1.094   8.486  2.0692 -1.4092 -2.2362
   50CHL1  H27C 6180   3.300   0.921   8.540  0.5637 -0.0837  0.3343
   51CHL1    C3 6181   3.984   5.441  10.312  0.1938 -0.7905 -0.5813
   51CHL1    H3 6182   4.023   5.376  10.230  1.1153  0.2469 -0.9959
   51CHL1    O3 6183   3.919   5.373  10.404 -0.9761  0.7215 -0.1794
   51CHL1   H3' 6184   3.882   5.435  10.468 -1.4840 -0.5610  0.7997
   51CHL1    C4 6185   4.091   5.530  10.376 -0.1623 -0.2849 -0.5433
   51CHL1   H4A 6186   4.056   5.597  10.457  0.1711 -3.6268  2.6502
   51CHL1   H4B 6187   4.166   5.466  10.428 -1.8011 -2.1403 -0.3431
   51CHL1    C5 6188   4.157   5.614  10.271  0.0278  0.0674 -0.2366
   51CHL1    C6 6189   4.291   5.599  10.251  0.6220  0.0281 -0.2851
   51CHL1    H6 6190   4.341   5.526  10.317 -1.3549 -2.0510 -0.9729
   51CHL1    C7 6191   4.371   5.680  10.150  0.6258 -0.3271  0.1783
   51CHL1   H7A 6192   4.471   5.720  10.176  0.1416 -0.4034  2.3437
   51CHL1   H7B 6193   4.396   5.607  10.070 -0.1339 -0.3401 -0.0587
   51CHL1    C8 6194   4.284   5.796  10.084 -0.2008  0.0316 -0.0023
   51CHL1    H8 6195   4.277   5.874  10.162 -1.1746  0.0163 -0.0685
   51CHL1   C14 6196   4.351   5.848   9.958 -0.0634 -0.0243 -0.0172
   51CHL1   H14 6197   4.342   5.767   9.883  0.5722  0.5891 -0.7794
   51CHL1   C15 6198   4.501   5.888   9.959  0.0604  0.3709 -0.1533
   51CHL1  H15A 6199   4.544   5.929  10.053  1.2394 -0.2669 -0.3906
   51CHL1  H15B 6200   4.561   5.795   9.946  0.2169  0.6907 -1.9470
   51CHL1   C16 6201   4.510   5.983   9.844  0.7760 -0.8831 -0.6667
   51CHL1  H16A 6202   4.553   6.071   9.896 -1.6735 -0.6578  1.1538
   51CHL1  H16B 6203   4.584   5.949   9.769  1.4562 -0.4560 -0.1971
   51CHL1   C17 6204   4.366   6.010   9.781  0.4721 -0.3283 -0.2063
   51CHL1   H17 6205   4.345   5.933   9.704 -2.0507 -1.1662  1.2107
   51CHL1   C13 6206   4.269   5.964   9.892  0.0504 -0.8180 -0.3026
   51CHL1   C18 6207   4.245   6.072  10.005 -0.2536 -0.5121  0.1646
   51CHL1  H18A 6208   4.338   6.113  10.049  0.5733  0.0926 -2.0306
   51CHL1  H18B 6209   4.191   6.158   9.960  1.6501  0.4109 -0.4760
   51CHL1  H18C 6210   4.172   6.036  10.081 -1.7658 -0.3410 -1.1632
   51CHL1   C12 6211   4.128   5.899   9.843 -0.0833 -0.4746  0.1806
   51CHL1  H12A 6212   4.078   5.976   9.781  1.5547 -1.2024 -2.1955
   51CHL1  H12B 6213   4.168   5.830   9.766  1.8883 -0.7102  1.3488
   51CHL1   C11 6214   4.051   5.829   9.956 -0.7861  0.9433 -0.2559
   51CHL1  H11A 6215   4.010   5.912  10.019 -1.0829 -0.8523  2.0497
   51CHL1  H11B 6216   3.967   5.775   9.907 -1.6342  1.5609  0.4773
   51CHL1    C9 6217   4.140   5.750  10.056 -0.5461  0.0227  0.0300
   51CHL1    H9 6218   4.156   5.657   9.997 -1.0575  0.4999 -0.9040
   51CHL1   C10 6219   4.069   5.699  10.181  0.1930 -0.0242  0.7199
   51CHL1   C19 6220   4.025   5.832  10.254  0.3370  0.0623 -0.0332
   51CHL1  H19A 6221   4.113   5.885  10.296 -0.0031  1.7800 -1.3688
   51CHL1  H19B 6222   3.962   5.901  10.194 -3.2546 -2.2504  0.7824
   51CHL1  H19C 6223   3.955   5.810  10.337  0.3606  0.5855  0.1295
   51CHL1    C1 6224   3.941   5.622  10.139 -0.0180 -0.3689 -0.2587
   51CHL1   H1A 6225   3.859   5.684  10.096 -0.4373 -0.2110  0.7467
   51CHL1   H1B 6226   3.976   5.548  10.064 -1.4410 -0.4073 -0.9235
   51CHL1    C2 6227   3.877   5.536  10.250 -0.4761  0.4986 -0.2056
   51CHL1   H2A 6228   3.794   5.474  10.213 -0.8829  0.8748  0.0615
   51CHL1   H2B 6229   3.832   5.598  10.331  0.4375  1.3197 -0.2991
   51CHL1   C20 6230   4.359   6.148   9.717  0.4758 -0.8248  0.1988
   51CHL1   H20 6231   4.333   6.231   9.786 -0.0688 -2.1056  1.6026
   51CHL1   C21 6232   4.225   6.152   9.631 -0.1053 -0.3786  0.1631
   51CHL1  H21A 6233   4.138   6.178   9.695  0.6096  1.1637  0.5562
   51CHL1  H21B 6234   4.207   6.050   9.591 -1.3326  0.1889 -0.7718
   51CHL1  H21C 6235   4.221   6.228   9.551 -1.5469  1.4189  1.8205
   51CHL1   C22 6236   4.476   6.190   9.626 -0.2046 -0.2860 -0.7337
   51CHL1  H22A 6237   4.446   6.288   9.583  0.7311  0.7800  0.9148
   51CHL1  H22B 6238   4.562   6.204   9.695 -1.2008  0.5014  0.4032
   51CHL1   C23 6239   4.513   6.095   9.510  0.6131  0.0724 -0.6988
   51CHL1  H23A 6240   4.586   6.015   9.533 -1.6592 -2.4215 -1.6593
   51CHL1  H23B 6241   4.428   6.044   9.459  0.8589  1.1662 -2.3167
   51CHL1   C24 6242   4.580   6.167   9.391 -0.0919  0.0088 -0.1670
   51CHL1  H24A 6243   4.505   6.232   9.341  0.3093  1.4437  1.0174
   51CHL1  H24B 6244   4.669   6.213   9.440  1.1646  0.8855 -3.0784
   51CHL1   C25 6245   4.635   6.062   9.284  0.3950  0.8736  0.6772
   51CHL1   H25 6246   4.697   5.984   9.331 -0.0552 -0.4025 -0.7634
   51CHL1   C26 6247   4.526   5.994   9.204  0.4313 -0.2365 -0.0534
   51CHL1  H26A 6248   4.437   5.983   9.269 -0.7800  3.7948 -0.7350
   51CHL1  H26B 6249   4.489   6.064   9.127 -0.1240 -0.9361 -0.4332
   51CHL1  H26C 6250   4.551   5.895   9.160 -0.0853 -0.5383  0.3140
   51CHL1   C27 6251   4.722   6.139   9.183  0.2476 -0.1416  0.8898
   51CHL1  H27A 6252   4.727   6.078   9.090  0.6059  1.0243  0.1141
   51CHL1  H27B 6253   4.684   6.238   9.148  3.9699  0.0615 -3.5636
   51CHL1  H27C 6254   4.826   6.147   9.223  0.6713  0.9469 -0.3545
   52CHL1    C3 6255   6.367   3.984  10.031 -0.3563 -0.1473 -0.5500
   52CHL1    H3 6256   6.449   4.054  10.006 -0.2577  0.7535  1.9428
   52CHL1    O3 6257   6.327   4.000  10.167 -0.4550 -0.3425 -0.3341
   52CHL1   H3' 6258   6.278   3.922  10.197 -1.0930  0.1641 -0.0445
   52CHL1    C4 6259   6.237   4.016   9.954 -1.0131  0.1343 -0.4340
   52CHL1   H4A 6260   6.146   3.963   9.989 -0.7203  0.1702  0.3993
   52CHL1   H4B 6261   6.218   4.121   9.985 -0.4821 -0.6627  2.9336
   52CHL1    C5 6262   6.266   3.997   9.808  0.2077  0.4298  0.0751
   52CHL1    C6 6263   6.251   4.094   9.719 -0.2987 -0.2819  0.0255
   52CHL1    H6 6264   6.217   4.192   9.754 -0.4513 -0.3050 -0.0591
   52CHL1    C7 6265   6.274   4.075   9.580  0.2320  0.1728  0.7109
   52CHL1   H7A 6266   6.202   4.144   9.531  0.4467 -0.0511  0.0721
   52CHL1   H7B 6267   6.371   4.111   9.540  1.4525 -1.3949  2.1279
   52CHL1    C8 6268   6.250   3.928   9.526  0.6760  0.4315  0.2161
   52CHL1    H8 6269   6.139   3.917   9.535  0.3315  1.1171 -2.3535
   52CHL1   C14 6270   6.277   3.915   9.385  0.4319 -0.4083  0.4306
   52CHL1   H14 6271   6.381   3.949   9.370 -0.6451  2.6731 -0.7782
   52CHL1   C15 6272   6.210   4.004   9.281 -0.2778 -0.6623 -0.2127
   52CHL1  H15A 6273   6.103   4.026   9.304  0.1446 -0.5187  1.8351
   52CHL1  H15B 6274   6.260   4.102   9.273  3.9701 -2.7116 -1.5786
   52CHL1   C16 6275   6.235   3.923   9.155 -0.2261 -0.0971  0.1498
   52CHL1  H16A 6276   6.140   3.891   9.107  1.0781  0.6672 -3.2417
   52CHL1  H16B 6277   6.281   3.986   9.075  0.8720 -0.7287  0.2583
   52CHL1   C17 6278   6.304   3.792   9.191  0.0670  0.3738  0.0394
   52CHL1   H17 6279   6.412   3.820   9.184 -0.3010  2.3928  1.4288
   52CHL1   C13 6280   6.281   3.763   9.335  1.0836 -0.2913  0.0743
   52CHL1   C18 6281   6.138   3.707   9.345 -0.0282 -0.5702  0.1339
   52CHL1  H18A 6282   6.142   3.599   9.322 -1.4276 -0.4900 -0.6466
   52CHL1  H18B 6283   6.101   3.715   9.449 -0.8642  1.2966 -0.2506
   52CHL1  H18C 6284   6.060   3.757   9.283  1.0077  0.2416 -0.5558
   52CHL1   C12 6285   6.385   3.675   9.412  0.7806  0.8838  0.4973
   52CHL1  H12A 6286   6.378   3.570   9.377 -0.2952  1.3329 -0.7110
   52CHL1  H12B 6287   6.487   3.715   9.393  1.2724 -0.3727  0.3861
   52CHL1   C11 6288   6.354   3.687   9.565  0.1906 -0.2500  0.4304
   52CHL1  H11A 6289   6.263   3.623   9.570  0.1254 -0.3495 -1.4889
   52CHL1  H11B 6290   6.438   3.643   9.624  0.4998 -2.8772 -1.7608
   52CHL1    C9 6291   6.331   3.839   9.612 -0.5267  0.8903 -0.0566
   52CHL1    H9 6292   6.430   3.889   9.602 -1.2409  2.7442  1.4716
   52CHL1   C10 6293   6.297   3.851   9.763 -0.3331  0.2229  0.7537
   52CHL1   C19 6294   6.163   3.779   9.782 -0.7187  0.1246  0.4154
   52CHL1  H19A 6295   6.148   3.771   9.892  0.4576 -0.2781  0.5672
   52CHL1  H19B 6296   6.083   3.833   9.729  0.1242  1.3149  0.3173
   52CHL1  H19C 6297   6.179   3.678   9.740 -1.3557  0.5527 -0.9025
   52CHL1    C1 6298   6.423   3.809   9.853  0.6623 -0.4847  0.0012
   52CHL1   H1A 6299   6.434   3.699   9.841 -0.7612 -0.5869 -0.6084
   52CHL1   H1B 6300   6.507   3.873   9.818 -0.7072  1.8449  0.7886
   52CHL1    C2 6301   6.398   3.836  10.005  0.9278 -0.1899  0.1077
   52CHL1   H2A 6302   6.480   3.799  10.069  0.1202 -0.2154  1.1623
   52CHL1   H2B 6303   6.308   3.775  10.029  0.3594 -0.2223 -1.8912
   52CHL1   C20 6304   6.271   3.681   9.080  0.0715  0.3298 -1.1768
   52CHL1   H20 6305   6.167   3.643   9.095  0.3333 -0.1757 -0.5513
   52CHL1   C21 6306   6.375   3.575   9.089 -0.9090 -0.1408  0.3958
   52CHL1  H21A 6307   6.368   3.519   9.184 -2.1940 -0.5135  0.0898
   52CHL1  H21B 6308   6.479   3.615   9.093 -1.0434  0.2076  0.4192
   52CHL1  H21C 6309   6.360   3.491   9.018  2.4245 -0.9350  0.4430
   52CHL1   C22 6310   6.269   3.736   8.925 -0.3538  0.0224 -0.2306
   52CHL1  H22A 6311   6.189   3.813   8.917 -2.0020 -1.4786  1.0554
   52CHL1  H22B 6312   6.369   3.783   8.910 -0.2742  0.2257  0.8747
   52CHL1   C23 6313   6.247   3.621   8.821  0.5177 -0.1580  0.0287
   52CHL1  H23A 6314   6.336   3.558   8.806  1.8455  1.1961  1.7880
   52CHL1  H23B 6315   6.170   3.559   8.872  0.3003  0.0004 -0.1046
   52CHL1   C24 6316   6.194   3.672   8.686 -0.0248  0.4419  0.7831
   52CHL1  H24A 6317   6.100   3.724   8.712  0.2698  0.6349  1.4698
   52CHL1  H24B 6318   6.260   3.744   8.631  1.5203 -0.7166  1.0404
   52CHL1   C25 6319   6.159   3.555   8.588  0.2661 -0.9587  0.0780
   52CHL1   H25 6320   6.123   3.475   8.655  4.4121 -2.2142  1.0882
   52CHL1   C26 6321   6.064   3.596   8.476 -0.2288 -0.0250 -0.6210
   52CHL1  H26A 6322   6.089   3.699   8.443 -0.9467  1.4464  2.8942
   52CHL1  H26B 6323   6.062   3.529   8.388  1.1363 -1.1059  0.1405
   52CHL1  H26C 6324   5.958   3.611   8.506 -0.2310  1.3951 -1.2492
   52CHL1   C27 6325   6.284   3.476   8.533 -0.1720  0.3974 -0.1509
   52CHL1  H27A 6326   6.352   3.530   8.464  0.0126  2.2138  1.3806
   52CHL1  H27B 6327   6.341   3.433   8.618 -0.0596 -0.2205 -0.5303
   52CHL1  H27C 6328   6.245   3.394   8.468 -2.9432  0.8149  0.8758
   53CHL1    C3 6329   3.591   2.392   9.865  0.1099  0.0219  0.5208
   53CHL1    H3 6330   3.640   2.293   9.853 -1.0957 -0.5992  0.6187
   53CHL1    O3 6331   3.550   2.420   9.998 -0.7850  1.1025  0.2386
   53CHL1   H3' 6332   3.463   2.380  10.008  0.0361 -1.0099 -0.4938
   53CHL1    C4 6333   3.686   2.507   9.825  0.0746 -0.7025 -0.0710
   53CHL1   H4A 6334   3.634   2.604   9.842  0.4852 -0.1616 -1.7887
   53CHL1   H4B 6335   3.771   2.511   9.896 -1.1348 -0.0860  1.4079
   53CHL1    C5 6336   3.728   2.502   9.683  0.4217 -0.2789  0.3107
   53CHL1    C6 6337   3.856   2.495   9.653 -0.2220  0.5174  0.6985
   53CHL1    H6 6338   3.933   2.495   9.732 -0.0436 -3.3269  0.7425
   53CHL1    C7 6339   3.907   2.478   9.514  0.1245 -0.5110  0.0943
   53CHL1   H7A 6340   3.993   2.548   9.511 -1.9469  2.1358 -1.5179
   53CHL1   H7B 6341   3.926   2.369   9.506 -0.6223 -0.9239  2.8708
   53CHL1    C8 6342   3.801   2.525   9.410 -0.0724  0.5085  0.5953
   53CHL1    H8 6343   3.791   2.636   9.405 -1.2745  0.3778 -0.4277
   53CHL1   C14 6344   3.827   2.474   9.263 -0.1061 -0.3420  0.3503
   53CHL1   H14 6345   3.830   2.363   9.266  1.0399 -0.3752 -0.9925
   53CHL1   C15 6346   3.970   2.503   9.210 -0.4861  0.6842  0.3958
   53CHL1  H15A 6347   4.010   2.605   9.229  1.8267  0.0782 -0.8017
   53CHL1  H15B 6348   4.044   2.425   9.238 -0.5098  0.5467  0.0797
   53CHL1   C16 6349   3.954   2.476   9.060  0.3794 -0.3351  0.4379
   53CHL1  H16A 6350   3.971   2.573   9.007 -2.0329 -0.4836 -0.7251
   53CHL1  H16B 6351   4.032   2.405   9.026 -0.6321 -1.2192 -0.0833
   53CHL1   C17 6352   3.806   2.434   9.032 -0.5986 -0.6371 -0.1657
   53CHL1   H17 6353   3.788   2.326   9.049 -0.3874 -0.9262 -1.6207
   53CHL1   C13 6354   3.731   2.508   9.152 -0.2770 -0.1785  0.4561
   53CHL1   C18 6355   3.723   2.657   9.123  0.1608 -0.1626 -0.1318
   53CHL1  H18A 6356   3.657   2.682   9.038  0.5448  1.0680 -0.1025
   53CHL1  H18B 6357   3.689   2.717   9.211 -0.4587 -2.0981  0.9981
   53CHL1  H18C 6358   3.819   2.705   9.094  0.0414 -0.5359 -1.1875
   53CHL1   C12 6359   3.591   2.457   9.188  0.1576 -0.0149 -0.0559
   53CHL1  H12A 6360   3.515   2.507   9.124  0.5496  2.1254  1.0399
   53CHL1  H12B 6361   3.581   2.347   9.175  1.0792 -0.0549 -0.5445
   53CHL1   C11 6362   3.553   2.497   9.336  0.0397 -0.7431 -0.1609
   53CHL1  H11A 6363   3.546   2.607   9.321 -0.3454 -0.6031  0.9541
   53CHL1  H11B 6364   3.455   2.458   9.369  0.9023 -2.4132  0.5102
   53CHL1    C9 6365   3.667   2.466   9.444  0.1727  0.4644  0.4292
   53CHL1    H9 6366   3.682   2.357   9.427  1.5110  0.9578 -2.1203
   53CHL1   C10 6367   3.616   2.499   9.583 -0.4990 -0.0415 -0.1673
   53CHL1   C19 6368   3.538   2.635   9.587  0.3508  0.0811 -0.7075
   53CHL1  H19A 6369   3.596   2.713   9.534 -1.7160  2.1396 -0.1324
   53CHL1  H19B 6370   3.439   2.633   9.536  0.3144  1.0564 -0.7073
   53CHL1  H19C 6371   3.522   2.662   9.694  3.0351 -2.4980  0.4927
   53CHL1    C1 6372   3.515   2.383   9.629  0.1513 -1.0499  0.1303
   53CHL1   H1A 6373   3.435   2.381   9.553 -1.2641 -0.3781  1.5376
   53CHL1   H1B 6374   3.574   2.291   9.611  0.9237 -0.2501 -1.6219
   53CHL1    C2 6375   3.465   2.380   9.775 -0.3610 -0.3484 -0.8972
   53CHL1   H2A 6376   3.406   2.289   9.799  0.6244 -1.2078 -1.5907
   53CHL1   H2B 6377   3.399   2.466   9.798 -1.7257 -1.3374 -1.0492
   53CHL1   C20 6378   3.769   2.473   8.886  0.0896 -0.5010  0.9381
   53CHL1   H20 6379   3.763   2.583   8.871 -0.8510 -0.3476  2.2699
   53CHL1   C21 6380   3.626   2.419   8.858 -0.9560  0.9170  0.1172
   53CHL1  H21A 6381   3.591   2.461   8.761 -0.4831 -0.2507 -0.5829
   53CHL1  H21B 6382   3.562   2.446   8.944 -0.3547 -0.6381  1.0828
   53CHL1  H21C 6383   3.626   2.308   8.854  0.7789  0.8704  0.3738
   53CHL1   C22 6384   3.867   2.426   8.775  0.7955  0.2802  0.6435
   53CHL1  H22A 6385   3.806   2.446   8.685  0.3161 -1.0220  0.6571
   53CHL1  H22B 6386   3.959   2.488   8.776  0.2330  1.1285  0.5952
   53CHL1   C23 6387   3.911   2.278   8.784 -0.2738  0.2737  0.1046
   53CHL1  H23A 6388   3.978   2.251   8.868  0.1759 -0.6606 -0.5394
   53CHL1  H23B 6389   3.816   2.220   8.783 -1.0465  1.4965  0.3827
   53CHL1   C24 6390   3.988   2.234   8.656  0.0477 -0.3025  0.1400
   53CHL1  H24A 6391   4.011   2.125   8.654  0.9208 -0.1074 -0.3913
   53CHL1  H24B 6392   3.936   2.251   8.560  1.5514  0.4208 -0.5758
   53CHL1   C25 6393   4.140   2.291   8.646  0.9513  0.1443  0.3723
   53CHL1   H25 6394   4.144   2.402   8.655  2.8239  0.1153  0.3348
   53CHL1   C26 6395   4.227   2.232   8.756  0.7480 -0.6596  0.2365
   53CHL1  H26A 6396   4.200   2.274   8.855  1.2098 -1.0903  0.5514
   53CHL1  H26B 6397   4.214   2.122   8.761 -0.9765 -0.5933 -1.7043
   53CHL1  H26C 6398   4.337   2.246   8.747  0.5910  1.0190  0.5985
   53CHL1   C27 6399   4.193   2.241   8.513 -0.1111 -0.3894  0.3522
   53CHL1  H27A 6400   4.302   2.263   8.516 -0.3103  0.6752  0.0783
   53CHL1  H27B 6401   4.179   2.131   8.503 -2.8029  0.0046 -1.3082
   53CHL1  H27C 6402   4.153   2.296   8.425 -0.9518 -2.7341 -0.8190
   54CHL1    C3 6403   2.489   0.973  10.252  0.1119 -0.8049  0.0642
   54CHL1    H3 6404   2.535   1.074  10.244 -1.3512 -0.2197 -1.9774
   54CHL1    O3 6405   2.474   0.949  10.389 -0.1238 -0.0527  0.0521
   54CHL1   H3' 6406   2.406   0.883  10.405  0.1783 -0.8876 -1.9320
   54CHL1    C4 6407   2.356   1.003  10.170 -0.1204 -0.1796 -0.5111
   54CHL1   H4A 6408   2.278   0.925  10.178  0.7478 -1.0399 -0.1893
   54CHL1   H4B 6409   2.322   1.095  10.222  0.7205 -0.3214  0.3105
   54CHL1    C5 6410   2.387   1.030  10.022  0.5616 -0.6935  0.2624
   54CHL1    C6 6411   2.351   1.145   9.962  0.4621 -0.4817 -0.6150
   54CHL1    H6 6412   2.318   1.230  10.023  2.2479 -0.3596  0.2267
   54CHL1    C7 6413   2.357   1.173   9.809  0.2513  0.6363 -0.0282
   54CHL1   H7A 6414   2.266   1.227   9.777 -1.0443 -2.0555 -1.2513
   54CHL1   H7B 6415   2.439   1.242   9.782 -0.8200  0.8488 -3.0722
   54CHL1    C8 6416   2.371   1.046   9.734 -0.2029 -0.1113 -0.1376
   54CHL1    H8 6417   2.282   0.981   9.745 -1.7989  1.4157 -2.8488
   54CHL1   C14 6418   2.413   1.074   9.588  0.1399 -0.1188 -0.1242
   54CHL1   H14 6419   2.511   1.127   9.590 -0.5506  1.2383 -0.8422
   54CHL1   C15 6420   2.321   1.168   9.506  0.2675  0.0680  0.3646
   54CHL1  H15A 6421   2.224   1.122   9.535  1.1955 -1.0416  1.8829
   54CHL1  H15B 6422   2.328   1.275   9.534  0.1216  0.4300 -0.9148
   54CHL1   C16 6423   2.375   1.146   9.364 -0.3415  0.6600  0.0220
   54CHL1  H16A 6424   2.288   1.134   9.295 -0.0467 -1.0831 -0.1085
   54CHL1  H16B 6425   2.434   1.229   9.321  1.3346 -0.0592  0.8392
   54CHL1   C17 6426   2.466   1.021   9.360  0.0427  0.9736 -0.1357
   54CHL1   H17 6427   2.573   1.052   9.355  0.7828 -1.2997  0.2755
   54CHL1   C13 6428   2.436   0.956   9.495  0.6030 -0.0298  0.8524
   54CHL1   C18 6429   2.304   0.871   9.479  0.1281 -0.0372 -0.0455
   54CHL1  H18A 6430   2.290   0.826   9.580  1.3927 -0.3196  0.0316
   54CHL1  H18B 6431   2.214   0.926   9.446 -0.4305 -1.6369 -1.3238
   54CHL1  H18C 6432   2.329   0.784   9.414  0.6854  1.5701 -2.0679
   54CHL1   C12 6433   2.547   0.874   9.563 -0.2508 -0.1804 -0.2032
   54CHL1  H12A 6434   2.568   0.789   9.495  2.8203  0.6584 -0.4903
   54CHL1  H12B 6435   2.646   0.925   9.561  1.0119 -2.2862  2.3003
   54CHL1   C11 6436   2.515   0.836   9.708 -0.2800  1.4804 -0.1884
   54CHL1  H11A 6437   2.433   0.762   9.699  0.5318  0.2180  1.9301
   54CHL1  H11B 6438   2.598   0.774   9.750 -2.2801 -1.2666 -0.0139
   54CHL1    C9 6439   2.482   0.959   9.802 -0.1516 -0.1827 -0.2825
   54CHL1    H9 6440   2.578   1.016   9.801  0.0880 -0.5803 -0.2513
   54CHL1   C10 6441   2.448   0.912   9.949  0.1203 -0.4315  0.4432
   54CHL1   C19 6442   2.367   0.777   9.948  0.1328 -0.0066 -0.6773
   54CHL1  H19A 6443   2.285   0.791   9.874 -2.0431 -1.3664  1.2937
   54CHL1  H19B 6444   2.436   0.692   9.929  0.4382 -0.2268  1.2240
   54CHL1  H19C 6445   2.317   0.747  10.043 -0.8974  0.8565 -0.9247
   54CHL1    C1 6446   2.583   0.890  10.023  0.1064 -0.1432  0.2345
   54CHL1   H1A 6447   2.634   0.802   9.978  0.7554  0.2061  0.2722
   54CHL1   H1B 6448   2.649   0.976  10.000 -0.3216 -0.5543 -3.0641
   54CHL1    C2 6449   2.585   0.867  10.181  0.2165 -0.1981 -0.7480
   54CHL1   H2A 6450   2.682   0.874  10.234 -0.4574 -0.1713  0.5146
   54CHL1   H2B 6451   2.546   0.765  10.201 -2.1388  0.5026 -1.4411
   54CHL1   C20 6452   2.445   0.937   9.234  0.1802 -0.3555  0.5285
   54CHL1   H20 6453   2.336   0.914   9.228  0.4317 -2.1981  1.9106
   54CHL1   C21 6454   2.530   0.816   9.232  0.2718 -0.4750 -0.1824
   54CHL1  H21A 6455   2.525   0.757   9.138 -0.9311  0.3070 -0.6461
   54CHL1  H21B 6456   2.503   0.745   9.313 -1.4392 -0.4584 -0.7058
   54CHL1  H21C 6457   2.632   0.839   9.269  0.5271 -0.7472 -0.7100
   54CHL1   C22 6458   2.470   1.024   9.102  0.0188  0.4372 -0.2066
   54CHL1  H22A 6459   2.416   1.121   9.103 -0.6574  0.0746 -0.6788
   54CHL1  H22B 6460   2.579   1.043   9.095  0.2743 -1.3335 -1.6661
   54CHL1   C23 6461   2.427   0.965   8.967 -0.5734 -1.0239  0.3208
   54CHL1  H23A 6462   2.473   0.866   8.943 -1.6581 -1.3247 -0.6450
   54CHL1  H23B 6463   2.316   0.952   8.968 -1.0564  2.0427 -1.1253
   54CHL1   C24 6464   2.465   1.060   8.849 -0.7124 -0.6346  0.1747
   54CHL1  H24A 6465   2.427   1.163   8.862  4.3586  1.2626  2.5512
   54CHL1  H24B 6466   2.574   1.083   8.848 -1.5879  4.7642 -0.1643
   54CHL1   C25 6467   2.415   1.002   8.714  0.2163 -0.5756 -0.3941
   54CHL1   H25 6468   2.322   0.948   8.742  0.7392 -0.9967  0.5809
   54CHL1   C26 6469   2.389   1.118   8.617  0.1312  0.2821 -0.4568
   54CHL1  H26A 6470   2.315   1.082   8.542  0.2264 -3.2981  0.9369
   54CHL1  H26B 6471   2.340   1.206   8.665  0.9463  1.7133 -2.1635
   54CHL1  H26C 6472   2.487   1.146   8.573 -0.6584 -0.4723 -2.8483
   54CHL1   C27 6473   2.514   0.897   8.660 -0.3639 -0.4683 -0.6515
   54CHL1  H27A 6474   2.615   0.942   8.652 -0.2799 -0.4666  0.3007
   54CHL1  H27B 6475   2.517   0.805   8.723 -1.5470 -0.1852 -0.1377
   54CHL1  H27C 6476   2.474   0.864   8.562 -3.5295 -0.6357  0.5759
   55CHL1    C3 6477   1.833   0.464  10.026 -0.1767 -0.4726  0.1389
   55CHL1    H3 6478   1.728   0.482   9.993  0.3309  2.6719 -0.0506
   55CHL1    O3 6479   1.847   0.542  10.142 -0.2419 -0.2302  0.5571
   55CHL1   H3' 6480   1.849   0.483  10.217 -1.3037 -1.4569 -0.3431
   55CHL1    C4 6481   1.871   0.323  10.052 -0.2997  0.2082  0.1160
   55CHL1   H4A 6482   1.975   0.313  10.089 -0.4296 -1.6274  0.0595
   55CHL1   H4B 6483   1.804   0.277  10.128 -0.2517 -0.6164 -0.3349
   55CHL1    C5 6484   1.862   0.241   9.930 -0.2878 -0.3868  0.7036
   55CHL1    C6 6485   1.792   0.123   9.928  0.1041 -0.4523 -0.1915
   55CHL1    H6 6486   1.745   0.091  10.022 -0.6257  0.0470 -0.3739
   55CHL1    C7 6487   1.771   0.038   9.813 -0.4516 -0.3447  0.8145
   55CHL1   H7A 6488   1.791  -0.069   9.836 -0.5745 -0.5944 -0.1896
   55CHL1   H7B 6489   1.673   0.055   9.764 -1.0922  1.6200  2.6343
   55CHL1    C8 6490   1.865   0.073   9.692 -0.1723 -0.4089  0.1171
   55CHL1    H8 6491   1.962   0.025   9.718 -1.1895 -0.9426  3.3628
   55CHL1   C14 6492   1.809   0.009   9.568  0.4756 -0.5270 -0.2729
   55CHL1   H14 6493   1.712   0.060   9.551  0.7051  0.2411  0.6491
   55CHL1   C15 6494   1.765  -0.142   9.572  0.5027 -0.3383  0.0750
   55CHL1  H15A 6495   1.837  -0.212   9.619 -1.6124 -1.1787  2.2321
   55CHL1  H15B 6496   1.672  -0.148   9.632  0.8506  0.5675  0.7344
   55CHL1   C16 6497   1.754  -0.173   9.423  0.3974 -0.2542  0.5631
   55CHL1  H16A 6498   1.822  -0.258   9.401 -1.2674 -1.5477  0.2011
   55CHL1  H16B 6499   1.652  -0.204   9.391  0.9896 -0.8235 -0.8324
   55CHL1   C17 6500   1.808  -0.057   9.344  0.5290 -0.4642 -0.0888
   55CHL1   H17 6501   1.718   0.004   9.316 -0.4152 -1.5713  0.4778
   55CHL1   C13 6502   1.888   0.035   9.435 -0.3993  0.2621 -0.0235
   55CHL1   C18 6503   2.028  -0.024   9.438 -0.4134  0.3108  0.0165
   55CHL1  H18A 6504   2.086   0.006   9.528  0.4716 -2.4671  0.4805
   55CHL1  H18B 6505   2.044  -0.134   9.433  1.0156  0.4686  0.7785
   55CHL1  H18C 6506   2.082   0.020   9.352  0.3984  0.4630  0.5887
   55CHL1   C12 6507   1.880   0.185   9.420  0.1671 -0.5826 -0.4000
   55CHL1  H12A 6508   1.940   0.212   9.331  0.8167  0.8580  0.4355
   55CHL1  H12B 6509   1.774   0.216   9.407  0.0074 -1.0407 -0.2167
   55CHL1   C11 6510   1.940   0.266   9.536  0.1259  0.4247  0.0289
   55CHL1  H11A 6511   2.050   0.253   9.530  0.2818 -0.4052  2.9951
   55CHL1  H11B 6512   1.923   0.375   9.522 -0.2181  0.2828 -0.6987
   55CHL1    C9 6513   1.875   0.224   9.671  0.0188 -0.0459  0.5380
   55CHL1    H9 6514   1.772   0.264   9.671  0.1558  0.3229  1.1099
   55CHL1   C10 6515   1.922   0.301   9.795 -0.8819 -0.5459  0.1544
   55CHL1   C19 6516   2.079   0.294   9.808  0.4855 -0.4003  0.0423
   55CHL1  H19A 6517   2.110   0.351   9.898 -1.0706  0.3503  0.1199
   55CHL1  H19B 6518   2.103   0.186   9.818 -1.4906 -0.7960  1.1166
   55CHL1  H19C 6519   2.121   0.338   9.715  0.0037  1.4288  0.6628
   55CHL1    C1 6520   1.892   0.455   9.782 -0.5266 -0.8164  0.0776
   55CHL1   H1A 6521   1.951   0.493   9.697 -0.5584 -0.7269  0.0955
   55CHL1   H1B 6522   1.790   0.471   9.739  0.0248  0.4086 -0.8316
   55CHL1    C2 6523   1.926   0.522   9.913  0.5054 -0.3554 -0.0437
   55CHL1   H2A 6524   1.903   0.631   9.903 -2.3108 -0.6832  1.8517
   55CHL1   H2B 6525   2.030   0.516   9.953  0.3252  2.5244  1.1455
   55CHL1   C20 6526   1.874  -0.100   9.211  0.3734  0.0667 -0.6607
   55CHL1   H20 6527   1.979  -0.137   9.216 -0.1903 -1.5052  0.4835
   55CHL1   C21 6528   1.876   0.025   9.111  0.3403  0.4664  0.5076
   55CHL1  H21A 6529   1.876  -0.001   9.003 -0.6992  0.2989  0.5406
   55CHL1  H21B 6530   1.969   0.083   9.131  1.0471 -0.3578 -0.2700
   55CHL1  H21C 6531   1.782   0.084   9.115  0.3163  0.4185  0.6574
   55CHL1   C22 6532   1.792  -0.220   9.141  0.0348 -0.4857  0.7992
   55CHL1  H22A 6533   1.810  -0.313   9.199 -1.1714 -1.2617 -0.0168
   55CHL1  H22B 6534   1.682  -0.204   9.137  0.1506  0.0365 -1.7571
   55CHL1   C23 6535   1.847  -0.257   8.997 -0.2259 -0.1613  0.7762
   55CHL1  H23A 6536   1.802  -0.185   8.926 -2.7413 -0.8287  1.5902
   55CHL1  H23B 6537   1.957  -0.271   9.006 -0.3164 -1.4844  0.0308
   55CHL1   C24 6538   1.796  -0.398   8.965  0.2025  0.5049  0.5122
   55CHL1  H24A 6539   1.854  -0.463   9.034 -1.5497 -1.5707  0.1252
   55CHL1  H24B 6540   1.688  -0.412   8.983 -0.2428 -0.2474 -2.3094
   55CHL1   C25 6541   1.832  -0.438   8.822  0.5076  0.0676  0.5581
   55CHL1   H25 6542   1.938  -0.420   8.795 -0.1163 -0.8226 -2.9273
   55CHL1   C26 6543   1.810  -0.589   8.807  0.0596  0.4926 -0.4346
   55CHL1  H26A 6544   1.866  -0.644   8.885 -1.4211 -0.1250  0.2411
   55CHL1  H26B 6545   1.705  -0.619   8.828  0.5232 -3.7754 -3.0533
   55CHL1  H26C 6546   1.831  -0.617   8.702  0.2761 -2.7523  0.3670
   55CHL1   C27 6547   1.747  -0.365   8.716  0.4216  1.1542  0.4021
   55CHL1  H27A 6548   1.789  -0.386   8.615  0.8426  1.9597  0.4080
   55CHL1  H27B 6549   1.646  -0.413   8.720  0.9832  0.0197  1.5629
   55CHL1  H27C 6550   1.745  -0.257   8.737 -1.8367  1.0792  0.8188
   56CHL1    C3 6551   0.084   0.289  10.348  0.0481  0.1565  0.3572
   56CHL1    H3 6552   0.195   0.293  10.353  0.0103  0.7825  0.9238
   56CHL1    O3 6553   0.037   0.230  10.469 -0.5888 -0.1387 -0.4500
   56CHL1   H3' 6554  -0.043   0.275  10.496 -0.9199 -0.8762 -0.2078
   56CHL1    C4 6555   0.034   0.434  10.333  0.6070  0.4342 -0.0313
   56CHL1   H4A 6556  -0.076   0.429  10.347  0.7109 -2.4289  0.5269
   56CHL1   H4B 6557   0.089   0.496  10.406  1.9861 -0.2079 -0.4907
   56CHL1    C5 6558   0.063   0.488  10.194 -0.5318  0.0767 -0.8777
   56CHL1    C6 6559   0.137   0.597  10.194  0.1498 -0.1811 -0.0050
   56CHL1    H6 6560   0.161   0.645  10.289 -1.2900  1.6231 -0.5056
   56CHL1    C7 6561   0.169   0.678  10.068 -0.3199  0.6409 -0.4451
   56CHL1   H7A 6562   0.141   0.782  10.096 -0.9895  0.3996 -0.1916
   56CHL1   H7B 6563   0.277   0.672  10.042 -0.0360  0.1405  0.7783
   56CHL1    C8 6564   0.086   0.627   9.945 -0.4741  0.0304  0.4381
   56CHL1    H8 6565  -0.015   0.668   9.964 -0.3972 -0.4991  2.1808
   56CHL1   C14 6566   0.149   0.670   9.808 -0.2693  0.2569 -0.9406
   56CHL1   H14 6567   0.246   0.617   9.804 -0.3122  0.1664 -0.8178
   56CHL1   C15 6568   0.194   0.819   9.785 -0.2509  0.5422 -0.2590
   56CHL1  H15A 6569   0.118   0.886   9.830  0.8882  1.2350  0.7016
   56CHL1  H15B 6570   0.293   0.832   9.835 -0.7316 -1.0155  1.2109
   56CHL1   C16 6571   0.204   0.832   9.639  0.2215  0.8075  0.0528
   56CHL1  H16A 6572   0.148   0.924   9.614  1.0026  1.2208 -0.2234
   56CHL1  H16B 6573   0.308   0.835   9.600  0.9291  0.4665  1.8065
   56CHL1   C17 6574   0.145   0.701   9.575  0.1930  0.1122 -0.8271
   56CHL1   H17 6575   0.232   0.634   9.557 -0.6495 -1.1409 -0.3825
   56CHL1   C13 6576   0.069   0.622   9.686  0.4352  0.3481 -0.1923
   56CHL1   C18 6577  -0.070   0.682   9.692  0.7507 -0.3191  0.0704
   56CHL1  H18A 6578  -0.117   0.651   9.788  0.9661 -1.9802 -0.3308
   56CHL1  H18B 6579  -0.060   0.792   9.680 -0.0370 -0.4108 -1.6050
   56CHL1  H18C 6580  -0.138   0.649   9.611 -0.3377  1.4874  0.1819
   56CHL1   C12 6581   0.072   0.470   9.688 -0.2960  0.7154 -0.5928
   56CHL1  H12A 6582   0.024   0.422   9.601  0.7401 -0.2411 -0.6679
   56CHL1  H12B 6583   0.180   0.444   9.678 -0.1296  1.0138  0.3014
   56CHL1   C11 6584   0.014   0.409   9.813 -0.4210  0.3983 -0.1240
   56CHL1  H11A 6585  -0.096   0.428   9.808 -0.5406  0.2679  1.5491
   56CHL1  H11B 6586   0.043   0.303   9.794  0.7791  1.0703 -2.4168
   56CHL1    C9 6587   0.075   0.465   9.942  0.4657 -0.0391 -0.0434
   56CHL1    H9 6588   0.185   0.454   9.945  0.5529  0.3988 -1.1307
   56CHL1   C10 6589   0.014   0.409  10.071  0.2664 -0.2957  0.1623
   56CHL1   C19 6590  -0.140   0.400  10.064  0.9315 -0.1043  0.2930
   56CHL1  H19A 6591  -0.172   0.500  10.028  1.8751  0.1274  0.0617
   56CHL1  H19B 6592  -0.177   0.323   9.992 -0.3332 -1.3650  2.1982
   56CHL1  H19C 6593  -0.197   0.369  10.154 -0.2328  1.1837  0.0327
   56CHL1    C1 6594   0.075   0.273  10.098 -0.0669  0.6132 -0.3234
   56CHL1   H1A 6595   0.041   0.209  10.015  0.9458  0.3925 -0.5824
   56CHL1   H1B 6596   0.186   0.276  10.099 -0.0805  1.4227  0.3043
   56CHL1    C2 6597   0.039   0.205  10.232 -0.1230 -0.1709 -0.8420
   56CHL1   H2A 6598   0.114   0.123  10.237  0.9012  0.7984  1.8050
   56CHL1   H2B 6599  -0.067   0.172  10.233  0.3014 -1.9517  2.9684
   56CHL1   C20 6600   0.072   0.723   9.443  0.3090 -0.6727 -0.4265
   56CHL1   H20 6601  -0.017   0.786   9.463 -0.3418 -1.0792 -1.8767
   56CHL1   C21 6602   0.024   0.588   9.375  0.2528  0.4253 -0.2925
   56CHL1  H21A 6603   0.103   0.521   9.335 -0.5635 -1.2200  0.7311
   56CHL1  H21B 6604  -0.051   0.616   9.297 -0.6419 -0.1342  0.3443
   56CHL1  H21C 6605  -0.035   0.525   9.445  0.4471 -0.7255 -1.1399
   56CHL1   C22 6606   0.158   0.813   9.344 -0.1857  0.5936  0.2608
   56CHL1  H22A 6607   0.181   0.916   9.380  0.9272  0.9499 -1.3564
   56CHL1  H22B 6608   0.250   0.755   9.325 -1.0424 -1.2264  1.3799
   56CHL1   C23 6609   0.082   0.843   9.219  0.1821  0.7477 -0.3632
   56CHL1  H23A 6610   0.067   0.746   9.167  0.6548 -0.7476  2.1364
   56CHL1  H23B 6611  -0.011   0.902   9.235 -0.7787 -0.7154 -0.3703
   56CHL1   C24 6612   0.170   0.933   9.128 -0.1754 -0.1392 -0.6282
   56CHL1  H24A 6613   0.189   1.024   9.188  1.5415 -1.8293  1.5704
   56CHL1  H24B 6614   0.273   0.894   9.112  0.7538  1.3372  1.3582
   56CHL1   C25 6615   0.114   0.968   8.991  0.0985  0.3935 -0.3278
   56CHL1   H25 6616   0.004   0.976   9.001 -0.1187  0.4247 -2.3101
   56CHL1   C26 6617   0.173   1.098   8.928 -0.3926  0.8226  0.2145
   56CHL1  H26A 6618   0.102   1.141   8.853 -1.4405  0.5441  1.0262
   56CHL1  H26B 6619   0.165   1.184   8.998 -1.9217  0.8679  0.0179
   56CHL1  H26C 6620   0.280   1.091   8.898 -1.3545 -1.1626 -3.3169
   56CHL1   C27 6621   0.138   0.854   8.894  0.7588 -0.4077  0.4675
   56CHL1  H27A 6622   0.110   0.754   8.935  0.0017 -0.2439  0.3534
   56CHL1  H27B 6623   0.077   0.862   8.802  1.8698 -0.4363 -0.2943
   56CHL1  H27C 6624   0.244   0.840   8.864  0.0607 -1.3994 -1.7890
   57CHL1    C3 6625   3.870   3.028  10.265 -1.1974  0.8787 -0.5795
   57CHL1    H3 6626   3.763   3.015  10.238 -1.4221  0.2333  0.5239
   57CHL1    O3 6627   3.878   3.016  10.403 -0.0439 -0.0813  0.0541
   57CHL1   H3' 6628   3.964   3.052  10.424 -0.2248 -0.2690  1.2039
   57CHL1    C4 6629   3.964   2.918  10.204 -0.2164 -1.2834 -0.0145
   57CHL1   H4A 6630   4.071   2.929  10.234 -0.0232  1.4380 -1.3396
   57CHL1   H4B 6631   3.928   2.816  10.229  2.8257 -2.1031  1.5589
   57CHL1    C5 6632   3.943   2.936  10.053 -0.1888 -0.2625 -0.0115
   57CHL1    C6 6633   3.902   2.829   9.972  0.7572 -0.6214  0.1615
   57CHL1    H6 6634   3.881   2.731  10.016  0.9782 -0.5263  0.4840
   57CHL1    C7 6635   3.901   2.821   9.823  0.1554  0.2482  0.2471
   57CHL1   H7A 6636   3.956   2.730   9.788 -1.0843 -0.3689 -0.1432
   57CHL1   H7B 6637   3.801   2.820   9.776  0.3568  2.4612 -0.3252
   57CHL1    C8 6638   3.984   2.942   9.767 -0.0912 -0.4981  0.5054
   57CHL1    H8 6639   4.094   2.928   9.774  0.0327  0.2097  0.0497
   57CHL1   C14 6640   3.952   2.961   9.620  0.5013 -0.2324  0.7598
   57CHL1   H14 6641   3.844   2.984   9.612  0.7598  1.0058  0.4512
   57CHL1   C15 6642   3.975   2.836   9.534  0.0749 -0.1928  0.0241
   57CHL1  H15A 6643   4.078   2.802   9.556  0.2891  1.3719  1.6942
   57CHL1  H15B 6644   3.899   2.756   9.546 -1.4646  0.8989 -1.9153
   57CHL1   C16 6645   3.964   2.893   9.387 -0.0150  0.0056 -0.7640
   57CHL1  H16A 6646   4.064   2.864   9.347  1.3867  1.6176  1.3750
   57CHL1  H16B 6647   3.873   2.849   9.339 -0.0283 -1.0549  0.1863
   57CHL1   C17 6648   3.970   3.044   9.394 -0.3010 -0.3857 -0.1111
   57CHL1   H17 6649   3.866   3.084   9.386 -0.1325  0.3625  1.1714
   57CHL1   C13 6650   4.022   3.072   9.538 -0.3044  1.2053 -0.2537
   57CHL1   C18 6651   4.178   3.060   9.542  0.3428  0.2126  0.2561
   57CHL1  H18A 6652   4.217   2.965   9.498 -1.1671 -1.4134  2.2677
   57CHL1  H18B 6653   4.223   3.149   9.493 -0.7433  0.8626  0.3994
   57CHL1  H18C 6654   4.213   3.054   9.647  0.6384  0.5050  0.1766
   57CHL1   C12 6655   3.975   3.207   9.611 -0.0651  0.9556  0.4483
   57CHL1  H12A 6656   4.008   3.303   9.566  1.3470 -0.0016 -0.6436
   57CHL1  H12B 6657   3.865   3.198   9.615 -0.4154  3.1135 -1.8187
   57CHL1   C11 6658   4.007   3.203   9.761 -0.0896  0.1531 -0.0632
   57CHL1  H11A 6659   4.117   3.218   9.759  0.2655 -1.6369  1.8830
   57CHL1  H11B 6660   3.956   3.288   9.811  1.6456  0.2109  1.7824
   57CHL1    C9 6661   3.951   3.077   9.837  0.3443  0.2822 -0.2730
   57CHL1    H9 6662   3.840   3.080   9.833  0.2794 -0.2570  0.6961
   57CHL1   C10 6663   3.988   3.074   9.988 -0.2740 -0.1604 -0.5656
   57CHL1   C19 6664   4.143   3.088  10.010 -0.5286  0.2114 -0.3637
   57CHL1  H19A 6665   4.181   3.074  10.113  1.0490  2.5444 -0.5466
   57CHL1  H19B 6666   4.195   3.010   9.950  0.9679  1.0785 -0.2354
   57CHL1  H19C 6667   4.175   3.191   9.984 -0.0335  1.0534  3.1682
   57CHL1    C1 6668   3.919   3.185  10.066  0.7186 -0.0107 -0.4982
   57CHL1   H1A 6669   3.961   3.284  10.037  0.5502 -0.0473 -0.8707
   57CHL1   H1B 6670   3.813   3.199  10.038  0.3831 -0.5036  0.4893
   57CHL1    C2 6671   3.923   3.164  10.220 -0.0244  0.2119 -0.1526
   57CHL1   H2A 6672   3.852   3.239  10.263  1.0345  0.6129  0.9481
   57CHL1   H2B 6673   4.024   3.180  10.261  0.5222  0.1653 -1.4405
   57CHL1   C20 6674   4.038   3.094   9.270 -0.1753  0.3048 -0.4415
   57CHL1   H20 6675   4.142   3.057   9.263  0.4653  1.5513  1.6763
   57CHL1   C21 6676   4.037   3.249   9.264  0.0832  0.0901 -0.1537
   57CHL1  H21A 6677   4.082   3.298   9.353  0.6684  0.8750 -0.8637
   57CHL1  H21B 6678   3.941   3.298   9.239  0.2718  0.9079  0.6746
   57CHL1  H21C 6679   4.103   3.276   9.178 -1.1558  1.4050 -0.7335
   57CHL1   C22 6680   3.967   3.036   9.140  0.0674 -0.1637 -0.1377
   57CHL1  H22A 6681   3.984   2.926   9.137 -1.7326 -0.4999  0.8831
   57CHL1  H22B 6682   3.857   3.048   9.146  0.0858  0.1270 -0.3286
   57CHL1   C23 6683   4.004   3.102   9.003  0.6097 -0.2805 -0.0915
   57CHL1  H23A 6684   3.967   3.207   8.991  3.2284  0.8564  0.9611
   57CHL1  H23B 6685   4.110   3.120   9.029 -0.5110  1.2553  4.3564
   57CHL1   C24 6686   3.974   3.027   8.869 -0.7442  0.1063  0.5005
   57CHL1  H24A 6687   3.863   3.019   8.863 -0.6680 -0.3698 -0.7471
   57CHL1  H24B 6688   4.015   3.083   8.782 -0.6016  2.0111  1.7244
   57CHL1   C25 6689   4.033   2.884   8.859 -0.3703  0.1102  0.5961
   57CHL1   H25 6690   4.012   2.823   8.950 -0.1882 -2.8203 -1.1832
   57CHL1   C26 6691   3.978   2.803   8.737  0.1360 -0.8412 -1.2843
   57CHL1  H26A 6692   4.014   2.700   8.714 -1.8425 -1.9960  0.3969
   57CHL1  H26B 6693   3.872   2.805   8.770  0.1505 -0.2208 -1.2630
   57CHL1  H26C 6694   3.999   2.868   8.649 -1.0718  1.2706 -0.0947
   57CHL1   C27 6695   4.185   2.886   8.862 -0.5026  0.1266  0.0482
   57CHL1  H27A 6696   4.227   2.966   8.798  1.1452  0.7365  1.8233
   57CHL1  H27B 6697   4.224   2.918   8.961  3.3792 -0.5653 -1.0798
   57CHL1  H27C 6698   4.226   2.788   8.829  2.2730  0.3717  2.3735
   58CHL1    C3 6699   1.663   4.943  10.176 -0.3958  0.7227 -0.3551
   58CHL1    H3 6700   1.732   4.857  10.162 -2.5577 -1.4411  1.3768
   58CHL1    O3 6701   1.646   4.972  10.312 -0.6162  0.3185  0.3690
   58CHL1   H3' 6702   1.591   4.896  10.337 -2.2848  1.7909  1.4074
   58CHL1    C4 6703   1.720   5.068  10.114  0.4855 -0.2029 -0.2383
   58CHL1   H4A 6704   1.655   5.156  10.132  1.2979 -0.0303  2.2570
   58CHL1   H4B 6705   1.813   5.097  10.167 -0.4219 -0.4724  1.5800
   58CHL1    C5 6706   1.729   5.043   9.964  0.0875  0.4830 -0.0706
   58CHL1    C6 6707   1.846   5.054   9.902 -0.1523  0.6997 -0.6301
   58CHL1    H6 6708   1.934   5.096   9.954  1.5536 -0.9419 -2.0307
   58CHL1    C7 6709   1.873   5.022   9.756 -0.1800 -0.8086  0.3673
   58CHL1   H7A 6710   1.935   5.106   9.718  0.5056 -2.6979 -2.9696
   58CHL1   H7B 6711   1.932   4.930   9.743  0.4909 -0.4256  0.6460
   58CHL1    C8 6712   1.744   5.024   9.673 -0.2083 -0.6411  0.2877
   58CHL1    H8 6713   1.709   5.129   9.664  0.6252 -0.4433 -0.8028
   58CHL1   C14 6714   1.761   4.969   9.537  0.0829  0.3432 -0.1234
   58CHL1   H14 6715   1.808   4.871   9.559  2.1378  1.0721 -1.0649
   58CHL1   C15 6716   1.871   5.034   9.445  0.2269  0.3754 -0.1322
   58CHL1  H15A 6717   1.855   5.143   9.433 -3.1171 -0.0700 -0.6366
   58CHL1  H15B 6718   1.975   5.008   9.475 -0.1081 -1.0704 -0.1746
   58CHL1   C16 6719   1.851   4.956   9.312  0.4170 -0.5828 -0.8942
   58CHL1  H16A 6720   1.857   5.021   9.222 -0.5502  1.0318  0.1514
   58CHL1  H16B 6721   1.939   4.889   9.302 -0.4249 -2.2784  1.8023
   58CHL1   C17 6722   1.709   4.886   9.321  0.7475  0.5948 -0.0129
   58CHL1   H17 6723   1.731   4.778   9.336 -0.6839  0.3247  0.2386
   58CHL1   C13 6724   1.638   4.932   9.453  0.1240 -0.0708 -0.2449
   58CHL1   C18 6725   1.558   5.056   9.425  0.9363 -0.1855  0.6545
   58CHL1  H18A 6726   1.625   5.123   9.367 -0.1894 -0.3477 -0.8996
   58CHL1  H18B 6727   1.456   5.040   9.385  1.0208 -0.2300  0.4564
   58CHL1  H18C 6728   1.530   5.114   9.515 -2.0503 -0.1056 -0.2405
   58CHL1   C12 6729   1.547   4.829   9.525 -0.2788 -0.2618  0.0653
   58CHL1  H12A 6730   1.458   4.829   9.459  0.5937 -2.8276 -1.2140
   58CHL1  H12B 6731   1.597   4.730   9.532  1.9145  0.8637  2.0700
   58CHL1   C11 6732   1.517   4.890   9.668  0.2497  0.1525 -0.0888
   58CHL1  H11A 6733   1.443   4.973   9.665 -1.6985 -1.4855  0.9370
   58CHL1  H11B 6734   1.461   4.816   9.728 -1.4022 -0.2375 -2.0222
   58CHL1    C9 6735   1.638   4.936   9.749  0.3675 -0.2196  0.5834
   58CHL1    H9 6736   1.695   4.843   9.770 -1.4068 -1.3302  0.6936
   58CHL1   C10 6737   1.604   4.989   9.892 -0.1349  0.2841  0.0996
   58CHL1   C19 6738   1.517   5.110   9.885 -0.0698 -0.4010 -0.1136
   58CHL1  H19A 6739   1.422   5.081   9.834  0.0163 -1.2306  0.1813
   58CHL1  H19B 6740   1.487   5.155   9.982 -2.5489 -0.7494 -0.6419
   58CHL1  H19C 6741   1.556   5.188   9.816 -2.2784  0.6260 -0.2973
   58CHL1    C1 6742   1.528   4.882   9.973 -0.0130  0.4387 -1.0013
   58CHL1   H1A 6743   1.424   4.872   9.934  0.0127 -1.1610 -0.7486
   58CHL1   H1B 6744   1.572   4.781   9.956  1.3563  0.4139  2.0239
   58CHL1    C2 6745   1.526   4.904  10.128 -0.6536  0.0772 -0.4081
   58CHL1   H2A 6746   1.473   4.824  10.183 -0.5663  0.3949  0.1502
   58CHL1   H2B 6747   1.466   4.997  10.140  1.5442  1.9311 -2.6891
   58CHL1   C20 6748   1.617   4.878   9.197 -0.2145 -0.1269 -0.2610
   58CHL1   H20 6749   1.516   4.863   9.239 -0.4377 -2.2955 -1.4463
   58CHL1   C21 6750   1.659   4.753   9.119  0.9679  0.4139 -0.5774
   58CHL1  H21A 6751   1.747   4.772   9.054  1.3758 -0.0420 -0.1582
   58CHL1  H21B 6752   1.577   4.727   9.048  2.9416  0.9372 -3.2383
   58CHL1  H21C 6753   1.677   4.670   9.190 -0.3663  0.5555 -0.0394
   58CHL1   C22 6754   1.616   5.002   9.113 -0.1789 -0.0274  0.3521
   58CHL1  H22A 6755   1.589   5.098   9.163  1.8392 -0.2335  1.9401
   58CHL1  H22B 6756   1.719   5.003   9.070 -0.9489 -0.3264 -1.6272
   58CHL1   C23 6757   1.539   4.997   8.975 -0.0345  0.7225 -0.0336
   58CHL1  H23A 6758   1.544   5.099   8.931 -2.3575  0.9946  0.2080
   58CHL1  H23B 6759   1.608   4.941   8.909 -0.6223  0.0323 -0.0737
   58CHL1   C24 6760   1.395   4.942   8.987 -0.2410 -0.5210  0.0321
   58CHL1  H24A 6761   1.411   4.838   9.023 -0.1290 -0.6667 -0.4314
   58CHL1  H24B 6762   1.345   4.999   9.068 -2.9312 -1.4462 -0.9057
   58CHL1   C25 6763   1.330   4.941   8.850  0.3978  0.2667  0.1378
   58CHL1   H25 6764   1.362   5.020   8.778  0.7036 -0.6832 -0.7883
   58CHL1   C26 6765   1.366   4.809   8.783 -0.5383 -0.0090  0.3191
   58CHL1  H26A 6766   1.327   4.719   8.835 -1.6575  0.4110  0.2313
   58CHL1  H26B 6767   1.329   4.805   8.678 -1.2180 -2.9874  0.5920
   58CHL1  H26C 6768   1.475   4.797   8.764 -0.6308 -0.0218 -0.2195
   58CHL1   C27 6769   1.175   4.952   8.860 -0.2076 -0.1471 -0.2807
   58CHL1  H27A 6770   1.156   5.041   8.924 -2.0278 -0.9219  0.3343
   58CHL1  H27B 6771   1.116   4.959   8.766  0.6799 -1.0021 -0.9156
   58CHL1  H27C 6772   1.123   4.868   8.911 -1.8063  0.1086 -1.4156
   59CHL1    C3 6773   3.350   5.996  10.400 -0.3796 -0.1716 -0.4590
   59CHL1    H3 6774   3.250   6.023  10.358  2.0307  3.3054 -4.9780
   59CHL1    O3 6775   3.343   6.016  10.542 -0.0224 -0.2770 -0.0295
   59CHL1   H3' 6776   3.415   5.974  10.589  0.6465  0.1303 -0.6554
   59CHL1    C4 6777   3.378   5.842  10.375  0.3765 -0.4786 -0.1522
   59CHL1   H4A 6778   3.474   5.813  10.424  1.0092 -1.4251 -1.8782
   59CHL1   H4B 6779   3.299   5.785  10.428  0.1649  0.0667  0.1297
   59CHL1    C5 6780   3.382   5.814  10.230  0.2313 -0.5184 -0.5448
   59CHL1    C6 6781   3.317   5.707  10.177  0.2344 -0.1204 -0.2678
   59CHL1    H6 6782   3.250   5.649  10.242 -2.4260  3.6597  0.7155
   59CHL1    C7 6783   3.322   5.672  10.032 -0.0062  0.7075 -0.6917
   59CHL1   H7A 6784   3.341   5.564  10.017 -0.3908  0.8121 -2.0777
   59CHL1   H7B 6785   3.229   5.706   9.981  0.0211  1.7943 -0.0599
   59CHL1    C8 6786   3.435   5.748   9.954 -0.3166 -0.2805 -0.2275
   59CHL1    H8 6787   3.521   5.684   9.985 -0.0720  1.1574  2.3168
   59CHL1   C14 6788   3.406   5.750   9.804  0.3525 -0.2214  0.5396
   59CHL1   H14 6789   3.320   5.819   9.796  1.1572  0.6023 -3.1844
   59CHL1   C15 6790   3.357   5.623   9.730  0.1700  0.7272 -0.6422
   59CHL1  H15A 6791   3.421   5.543   9.773 -1.4715  0.0100  0.5556
   59CHL1  H15B 6792   3.249   5.604   9.745  0.0849 -1.0358 -2.9302
   59CHL1   C16 6793   3.384   5.646   9.580  0.2536  0.3905  0.7004
   59CHL1  H16A 6794   3.455   5.572   9.538  3.0314  0.7302  4.3133
   59CHL1  H16B 6795   3.295   5.639   9.514  1.3463  1.0954 -0.9208
   59CHL1   C17 6796   3.463   5.779   9.565 -0.0144 -0.0003 -0.5062
   59CHL1   H17 6797   3.384   5.854   9.543 -1.4210 -1.6079 -1.1851
   59CHL1   C13 6798   3.513   5.804   9.707 -0.2540  1.2346 -0.9978
   59CHL1   C18 6799   3.645   5.728   9.739  0.6591 -0.2707  0.3822
   59CHL1  H18A 6800   3.729   5.786   9.695 -1.0909  0.5965 -2.0217
   59CHL1  H18B 6801   3.664   5.721   9.849  0.6429 -1.1946  0.3330
   59CHL1  H18C 6802   3.638   5.624   9.701  0.4816  0.4752 -1.7325
   59CHL1   C12 6803   3.537   5.945   9.754  0.4599 -0.3624  0.1420
   59CHL1  H12A 6804   3.624   5.978   9.693  2.3156 -0.4169  2.5666
   59CHL1  H12B 6805   3.444   5.999   9.728  0.5396  0.4201  1.3783
   59CHL1   C11 6806   3.560   5.957   9.910 -0.3536 -0.0557  0.2812
   59CHL1  H11A 6807   3.662   5.917   9.926  1.4018  2.4072 -3.3316
   59CHL1  H11B 6808   3.579   6.065   9.931  2.1644  0.0367 -1.9396
   59CHL1    C9 6809   3.453   5.895   9.993  0.3879  1.1329 -0.4211
   59CHL1    H9 6810   3.361   5.946   9.959 -0.4319 -0.2505 -0.3640
   59CHL1   C10 6811   3.473   5.910  10.151 -0.1564 -0.2025  0.3806
   59CHL1   C19 6812   3.617   5.875  10.188  0.3590 -0.1234 -0.2010
   59CHL1  H19A 6813   3.688   5.954  10.155  0.1605 -0.3422 -1.1903
   59CHL1  H19B 6814   3.628   5.878  10.298  0.4472 -0.7482 -0.1864
   59CHL1  H19C 6815   3.648   5.783  10.134 -0.1444  0.3598 -1.3445
   59CHL1    C1 6816   3.441   6.061  10.185 -0.1115 -0.0722 -0.0146
   59CHL1   H1A 6817   3.510   6.133  10.139  1.7207 -0.3507  2.1136
   59CHL1   H1B 6818   3.339   6.080  10.145 -0.9561 -0.3417  1.8913
   59CHL1    C2 6819   3.449   6.091  10.335 -0.1105 -0.2192 -0.7559
   59CHL1   H2A 6820   3.415   6.195  10.357 -1.6735 -0.7936 -0.3405
   59CHL1   H2B 6821   3.553   6.083  10.373 -0.1132  2.7874  0.1869
   59CHL1   C20 6822   3.555   5.792   9.447  0.1512  0.0550 -0.1599
   59CHL1   H20 6823   3.656   5.753   9.472 -0.6469 -0.9297  1.7905
   59CHL1   C21 6824   3.568   5.943   9.402 -0.1259 -0.4564  0.2343
   59CHL1  H21A 6825   3.473   5.986   9.364  1.3802  1.4988 -1.6319
   59CHL1  H21B 6826   3.651   5.960   9.330 -0.5198 -0.1340 -0.1457
   59CHL1  H21C 6827   3.594   6.004   9.491 -3.4092 -1.3368  1.9430
   59CHL1   C22 6828   3.517   5.709   9.321  1.2583  0.4545 -0.6251
   59CHL1  H22A 6829   3.510   5.604   9.357  1.1648  1.2749  1.9403
   59CHL1  H22B 6830   3.412   5.723   9.288  1.3733  3.2630  0.0088
   59CHL1   C23 6831   3.626   5.705   9.214 -0.8526 -0.2119 -0.6339
   59CHL1  H23A 6832   3.656   5.811   9.198 -1.3860  0.0693  0.1554
   59CHL1  H23B 6833   3.717   5.660   9.260 -1.5280 -2.5099 -1.4547
   59CHL1   C24 6834   3.584   5.625   9.099  0.1879 -0.1193  0.1328
   59CHL1  H24A 6835   3.525   5.539   9.137 -1.0140  1.2682  1.5411
   59CHL1  H24B 6836   3.501   5.672   9.042  0.2049 -2.4005 -1.9579
   59CHL1   C25 6837   3.688   5.581   9.000  0.8996  0.0047 -0.2679
   59CHL1   H25 6838   3.757   5.508   9.048  1.0586 -0.3777 -1.0579
   59CHL1   C26 6839   3.629   5.508   8.878  0.5569  0.2805 -0.4973
   59CHL1  H26A 6840   3.555   5.438   8.923  3.4480 -2.7207 -0.0239
   59CHL1  H26B 6841   3.580   5.576   8.805  1.5506  1.8853  0.2678
   59CHL1  H26C 6842   3.702   5.444   8.825 -0.0245  1.6662 -3.1645
   59CHL1   C27 6843   3.773   5.689   8.949 -0.3252 -0.3403  1.1136
   59CHL1  H27A 6844   3.842   5.736   9.022  0.9772 -0.4587  0.0128
   59CHL1  H27B 6845   3.830   5.659   8.858 -1.4525 -1.7358  0.8531
   59CHL1  H27C 6846   3.703   5.763   8.904  0.4183  0.0890  0.6211
   60CHL1    C3 6847   5.992   6.449  10.044 -0.6336 -0.3804  0.2984
   60CHL1    H3 6848   6.064   6.529  10.016 -2.1515  0.9951  0.1530
   60CHL1    O3 6849   6.010   6.418  10.180  0.0335 -0.1137 -0.0908
   60CHL1   H3' 6850   6.104   6.396  10.174  0.1249 -0.7789  2.6513
   60CHL1    C4 6851   5.853   6.521  10.026  0.4716  0.0555 -0.1767
   60CHL1   H4A 6852   5.773   6.460  10.073  1.7136 -1.4970 -0.0210
   60CHL1   H4B 6853   5.856   6.617  10.081  0.4150 -0.2992  0.4474
   60CHL1    C5 6854   5.819   6.545   9.878  0.1680 -0.2045 -0.3457
   60CHL1    C6 6855   5.782   6.666   9.829 -0.2585 -0.4244 -0.0933
   60CHL1    H6 6856   5.759   6.744   9.902  1.6547 -0.3385  0.4835
   60CHL1    C7 6857   5.742   6.689   9.688  0.3754  0.4692  0.9822
   60CHL1   H7A 6858   5.640   6.735   9.689  0.0764 -0.1195 -0.4103
   60CHL1   H7B 6859   5.803   6.760   9.628 -0.4162 -0.9507 -1.6744
   60CHL1    C8 6860   5.714   6.560   9.605  0.4054 -0.4743 -0.1634
   60CHL1    H8 6861   5.616   6.521   9.641 -0.7234  3.6286  1.7349
   60CHL1   C14 6862   5.699   6.587   9.459 -0.2032 -0.2534  0.3691
   60CHL1   H14 6863   5.798   6.630   9.435 -0.7490  3.4711  3.7850
   60CHL1   C15 6864   5.591   6.693   9.422 -0.1823 -0.2029  0.0006
   60CHL1  H15A 6865   5.493   6.661   9.464 -0.3550 -0.9926 -0.9879
   60CHL1  H15B 6866   5.610   6.799   9.452  0.9514 -0.1968 -0.6781
   60CHL1   C16 6867   5.580   6.678   9.272 -0.0354 -0.1971  0.4518
   60CHL1  H16A 6868   5.477   6.684   9.230  0.8991 -0.8903 -2.1324
   60CHL1  H16B 6869   5.627   6.768   9.229 -0.2248  0.5413  1.7458
   60CHL1   C17 6870   5.648   6.543   9.235  0.3756 -0.2766 -0.3448
   60CHL1   H17 6871   5.749   6.579   9.206  0.2153  1.9183  1.5140
   60CHL1   C13 6872   5.671   6.463   9.367 -0.0875 -0.1228 -0.5160
   60CHL1   C18 6873   5.536   6.389   9.421  0.8145 -0.1200  0.5917
   60CHL1  H18A 6874   5.546   6.365   9.528  1.3598  0.0949  0.5935
   60CHL1  H18B 6875   5.448   6.456   9.407  0.9243  0.0007  0.4728
   60CHL1  H18C 6876   5.520   6.294   9.366  1.5050  0.5838 -0.8834
   60CHL1   C12 6877   5.796   6.369   9.377  0.3098  0.3972 -0.2708
   60CHL1  H12A 6878   5.791   6.276   9.317 -1.8936  0.9803 -1.0684
   60CHL1  H12B 6879   5.888   6.424   9.345  0.6149  0.0235 -0.0448
   60CHL1   C11 6880   5.814   6.343   9.529 -0.7553 -0.0302 -0.2957
   60CHL1  H11A 6881   5.733   6.276   9.565 -0.1933  0.2130  1.5317
   60CHL1  H11B 6882   5.911   6.289   9.533 -0.1785  0.9953  0.1705
   60CHL1    C9 6883   5.822   6.460   9.631  0.0101  0.3419  0.3024
   60CHL1    H9 6884   5.915   6.511   9.597  0.0088  0.4031  0.3897
   60CHL1   C10 6885   5.841   6.426   9.777  0.1582 -0.1609 -0.2077
   60CHL1   C19 6886   5.729   6.334   9.826  0.0130  0.0277  0.5341
   60CHL1  H19A 6887   5.755   6.293   9.926  0.2739 -1.0942  0.0144
   60CHL1  H19B 6888   5.629   6.378   9.810 -0.5706 -1.5615 -0.3381
   60CHL1  H19C 6889   5.727   6.240   9.767 -0.6344 -0.0534  0.6782
   60CHL1    C1 6890   5.985   6.367   9.808 -0.3435  0.3544 -0.5455
   60CHL1   H1A 6891   6.005   6.275   9.750  1.1270  0.6858 -0.6075
   60CHL1   H1B 6892   6.061   6.442   9.775 -0.9150  1.2510  0.1262
   60CHL1    C2 6893   6.013   6.325   9.955  0.1452 -1.0553  0.0945
   60CHL1   H2A 6894   6.114   6.281   9.969  1.3594  1.1894 -1.0463
   60CHL1   H2B 6895   5.950   6.242   9.993  0.8742 -0.9886  1.4936
   60CHL1   C20 6896   5.582   6.479   9.115  0.2027 -0.3821  0.4592
   60CHL1   H20 6897   5.473   6.460   9.128  0.0932  0.8486  1.6083
   60CHL1   C21 6898   5.647   6.342   9.097 -0.0255 -0.6362 -0.5049
   60CHL1  H21A 6899   5.600   6.297   9.007 -1.8242 -2.3973  1.1942
   60CHL1  H21B 6900   5.612   6.270   9.174 -1.5958  0.0916 -0.4911
   60CHL1  H21C 6901   5.757   6.350   9.085  0.0270 -0.4784  0.0599
   60CHL1   C22 6902   5.589   6.571   8.989  0.4328  0.0763  0.1846
   60CHL1  H22A 6903   5.609   6.677   9.014  1.0859  0.5891 -2.2422
   60CHL1  H22B 6904   5.679   6.538   8.932 -0.7762 -1.4222 -0.9515
   60CHL1   C23 6905   5.456   6.548   8.905  0.6967 -0.1270  0.1823
   60CHL1  H23A 6906   5.437   6.444   8.872 -1.2171  0.4066 -0.5248
   60CHL1  H23B 6907   5.380   6.582   8.980  0.1840  0.1747 -0.4680
   60CHL1   C24 6908   5.467   6.643   8.780 -0.4210 -0.3024  0.0917
   60CHL1  H24A 6909   5.480   6.745   8.822  0.0342 -1.3761  2.8068
   60CHL1  H24B 6910   5.565   6.613   8.738 -0.6867 -0.0029 -0.7549
   60CHL1   C25 6911   5.353   6.641   8.674 -0.6382  0.1970 -0.2925
   60CHL1   H25 6912   5.262   6.689   8.714 -0.3781 -0.7462  1.5489
   60CHL1   C26 6913   5.404   6.712   8.549  0.2785  0.1492  0.5204
   60CHL1  H26A 6914   5.322   6.721   8.474  0.3760  2.0338  0.5917
   60CHL1  H26B 6915   5.445   6.814   8.564  1.1542  0.1858 -1.7071
   60CHL1  H26C 6916   5.489   6.656   8.503 -0.9360 -1.1218 -0.2639
   60CHL1   C27 6917   5.307   6.493   8.642 -0.5925  0.1123 -0.2559
   60CHL1  H27A 6918   5.220   6.492   8.573 -0.6727 -0.5607 -0.1458
   60CHL1  H27B 6919   5.396   6.441   8.600  0.1251  1.0082  0.0990
   60CHL1  H27C 6920   5.266   6.443   8.732 -1.1141 -0.1280 -0.6277
   61CHL1    C3 6921   1.426   3.826  10.461  0.1457  0.3894 -0.1857
   61CHL1    H3 6922   1.462   3.725  10.430  1.4833  1.0906 -1.0090
   61CHL1    O3 6923   1.432   3.854  10.604  0.2940  0.3638 -0.6321
   61CHL1   H3' 6924   1.519   3.821  10.628 -0.2594 -2.5541 -2.1736
   61CHL1    C4 6925   1.506   3.936  10.395 -0.1073  0.1124 -0.6791
   61CHL1   H4A 6926   1.477   4.036  10.434  1.0310  0.7803 -1.5056
   61CHL1   H4B 6927   1.607   3.925  10.439  0.0644  0.0813 -1.0782
   61CHL1    C5 6928   1.498   3.931  10.247 -0.2821 -0.3778 -0.3539
   61CHL1    C6 6929   1.613   3.911  10.182  0.0054 -0.5436 -0.2396
   61CHL1    H6 6930   1.706   3.920  10.240 -1.8627  1.3756  2.6903
   61CHL1    C7 6931   1.625   3.908  10.034 -0.1328  0.1543 -0.1874
   61CHL1   H7A 6932   1.709   3.978  10.013  1.6555 -2.1903 -1.4089
   61CHL1   H7B 6933   1.656   3.806  10.002 -3.4532 -1.2613  0.6443
   61CHL1    C8 6934   1.492   3.940   9.959  0.6784 -0.2164 -1.1855
   61CHL1    H8 6935   1.485   4.050   9.965  2.7983 -0.0542 -0.9130
   61CHL1   C14 6936   1.500   3.885   9.821  0.0439 -0.0499  0.6036
   61CHL1   H14 6937   1.492   3.775   9.839  0.0273  0.3847  3.8810
   61CHL1   C15 6938   1.631   3.904   9.740  0.2876 -0.1464  0.2442
   61CHL1  H15A 6939   1.661   4.011   9.748 -3.2088  0.8660  1.4362
   61CHL1  H15B 6940   1.717   3.836   9.762 -0.1456 -0.8032 -0.0699
   61CHL1   C16 6941   1.585   3.884   9.597  0.0760 -0.0175  0.1061
   61CHL1  H16A 6942   1.599   3.979   9.541  0.1490 -0.0113  0.1343
   61CHL1  H16B 6943   1.642   3.805   9.543  1.9504  2.0220 -1.0649
   61CHL1   C17 6944   1.433   3.862   9.602 -0.1035 -0.3993  0.0524
   61CHL1   H17 6945   1.415   3.752   9.611  1.1406 -0.5620  0.8419
   61CHL1   C13 6946   1.384   3.930   9.730  0.0869  0.8675  0.4437
   61CHL1   C18 6947   1.380   4.081   9.697 -0.3673 -0.2353 -0.3612
   61CHL1  H18A 6948   1.469   4.123   9.647  0.4264 -1.0067  0.3612
   61CHL1  H18B 6949   1.293   4.110   9.634  2.0244 -0.5512 -4.1233
   61CHL1  H18C 6950   1.379   4.131   9.796  2.3686  1.9443 -1.3204
   61CHL1   C12 6951   1.250   3.882   9.791 -0.0426 -0.8068  0.1675
   61CHL1  H12A 6952   1.168   3.934   9.737 -0.6865 -3.6148 -1.7287
   61CHL1  H12B 6953   1.229   3.774   9.778 -1.9581 -0.4224 -0.1897
   61CHL1   C11 6954   1.236   3.917   9.940 -0.7528  0.0531  0.1959
   61CHL1  H11A 6955   1.229   4.027   9.954 -0.0015  0.1056  0.1748
   61CHL1  H11B 6956   1.149   3.868   9.989 -0.2487  0.0512  1.0977
   61CHL1    C9 6957   1.361   3.891  10.029 -0.1586 -0.3434  0.2544
   61CHL1    H9 6958   1.378   3.781  10.034 -1.3031 -0.8047 -3.1548
   61CHL1   C10 6959   1.359   3.935  10.179 -0.5541  0.1526  0.1377
   61CHL1   C19 6960   1.295   4.077  10.203  1.0444 -0.1699 -0.6060
   61CHL1  H19A 6961   1.189   4.079  10.172  1.4132  0.3174 -1.8914
   61CHL1  H19B 6962   1.285   4.098  10.312  1.7255  0.3650 -0.6348
   61CHL1  H19C 6963   1.348   4.163  10.156  0.9211  1.0973  1.4450
   61CHL1    C1 6964   1.276   3.828  10.256 -0.1282 -0.3439  0.2653
   61CHL1   H1A 6965   1.172   3.827  10.218  0.4133 -2.0833 -1.3283
   61CHL1   H1B 6966   1.307   3.726  10.225 -0.1288 -0.0432 -0.7670
   61CHL1    C2 6967   1.278   3.839  10.409  0.3420  0.0961 -0.7085
   61CHL1   H2A 6968   1.226   3.754  10.459  2.1033  0.0936  1.2420
   61CHL1   H2B 6969   1.237   3.933  10.451  2.4315  0.4231  0.7757
   61CHL1   C20 6970   1.352   3.898   9.468 -0.7347 -0.2672 -0.4980
   61CHL1   H20 6971   1.359   4.008   9.450  1.5285 -0.6097 -2.1861
   61CHL1   C21 6972   1.204   3.866   9.475 -0.2152  0.3810  0.0285
   61CHL1  H21A 6973   1.144   3.943   9.527 -1.8943 -1.2941  0.6800
   61CHL1  H21B 6974   1.191   3.768   9.527 -0.7019  0.6076  0.3384
   61CHL1  H21C 6975   1.160   3.863   9.373  0.5478 -1.5604 -0.2835
   61CHL1   C22 6976   1.414   3.842   9.344  0.2108 -0.7187  0.0879
   61CHL1  H22A 6977   1.350   3.854   9.254 -3.1661 -3.7504  1.8245
   61CHL1  H22B 6978   1.509   3.898   9.340 -0.9624  1.4861  1.0197
   61CHL1   C23 6979   1.437   3.691   9.347 -0.5624  0.0568 -0.4521
   61CHL1  H23A 6980   1.502   3.657   9.431 -0.6930 -2.6571 -1.3435
   61CHL1  H23B 6981   1.341   3.638   9.367  0.1204 -2.4270 -3.0870
   61CHL1   C24 6982   1.490   3.637   9.213 -0.2168  0.8328  0.1996
   61CHL1  H24A 6983   1.487   3.527   9.224  2.5596  0.6740 -0.0084
   61CHL1  H24B 6984   1.424   3.678   9.133 -0.2449 -0.0711 -0.2561
   61CHL1   C25 6985   1.637   3.672   9.167 -0.5051  0.5872 -0.6160
   61CHL1   H25 6986   1.646   3.782   9.179 -1.8483  0.6928 -0.4561
   61CHL1   C26 6987   1.740   3.604   9.260 -0.5652  0.5303 -0.0730
   61CHL1  H26A 6988   1.845   3.641   9.253 -0.8078  1.7559  1.9713
   61CHL1  H26B 6989   1.718   3.625   9.367  1.0945  0.8148  0.2451
   61CHL1  H26C 6990   1.741   3.494   9.248  1.0949  0.7267 -2.4431
   61CHL1   C27 6991   1.661   3.640   9.015  0.3422  0.6809 -0.1975
   61CHL1  H27A 6992   1.576   3.678   8.955 -1.1766 -1.5551  0.3746
   61CHL1  H27B 6993   1.754   3.690   8.981 -0.7801  2.3262 -0.9593
   61CHL1  H27C 6994   1.661   3.529   9.009 -0.2174  0.6712 -0.0577
   62CHL1    C3 6995   3.435   1.509  10.124  0.3738  0.0661  0.0684
   62CHL1    H3 6996   3.453   1.619  10.121  0.5718  0.0398  0.2315
   62CHL1    O3 6997   3.445   1.460  10.260 -0.2391 -0.3165 -0.4086
   62CHL1   H3' 6998   3.466   1.367  10.248 -1.5926 -0.6778 -0.1172
   62CHL1    C4 6999   3.294   1.473  10.076  0.4107 -0.5927 -0.4849
   62CHL1   H4A 7000   3.269   1.365  10.089  1.4873 -0.7882  0.0732
   62CHL1   H4B 7001   3.233   1.538  10.142 -0.1116 -0.8597 -0.6998
   62CHL1    C5 7002   3.271   1.503   9.932  0.0068  0.1620  0.5570
   62CHL1    C6 7003   3.161   1.572   9.895 -0.3611 -0.8800  0.6125
   62CHL1    H6 7004   3.083   1.596   9.969 -0.3302  1.5080 -0.0426
   62CHL1    C7 7005   3.129   1.600   9.747  0.5771 -0.0342  0.0356
   62CHL1   H7A 7006   3.021   1.579   9.737  0.1299  2.6386 -2.0410
   62CHL1   H7B 7007   3.139   1.709   9.728  1.2963 -0.1929 -0.5688
   62CHL1    C8 7008   3.218   1.517   9.647  0.1272  0.0431  0.5905
   62CHL1    H8 7009   3.170   1.417   9.637 -0.1866  0.2519 -0.0662
   62CHL1   C14 7010   3.217   1.590   9.514  0.9233  0.5194 -0.3395
   62CHL1   H14 7011   3.274   1.684   9.533  0.0910  0.8007  0.9187
   62CHL1   C15 7012   3.086   1.624   9.445  0.5442 -0.0776  0.4608
   62CHL1  H15A 7013   3.013   1.541   9.454  0.7439 -0.3459 -0.3133
   62CHL1  H15B 7014   3.025   1.712   9.475  1.1272  0.1336  1.0521
   62CHL1   C16 7015   3.127   1.643   9.297  0.8170  0.7166  0.0433
   62CHL1  H16A 7016   3.080   1.560   9.239  2.2291 -0.9061  1.1390
   62CHL1  H16B 7017   3.107   1.739   9.245  0.1659  1.4811  1.6570
   62CHL1   C17 7018   3.278   1.610   9.288  0.1664  0.1357  0.2228
   62CHL1   H17 7019   3.335   1.702   9.312 -0.6271  0.7819 -0.3425
   62CHL1   C13 7020   3.304   1.508   9.406  0.4418 -0.5373  0.0239
   62CHL1   C18 7021   3.240   1.375   9.376  0.6131  0.4656  0.8794
   62CHL1  H18A 7022   3.219   1.313   9.466 -0.0938 -2.4719 -1.1419
   62CHL1  H18B 7023   3.147   1.384   9.317 -0.1012 -0.2440  1.8677
   62CHL1  H18C 7024   3.309   1.319   9.309  0.5244  0.3683  0.8691
   62CHL1   C12 7025   3.449   1.497   9.455 -0.6075 -0.5565  1.0153
   62CHL1  H12A 7026   3.497   1.416   9.396 -2.0301  0.2725 -1.3748
   62CHL1  H12B 7027   3.504   1.593   9.469 -1.6050 -0.0859  1.8720
   62CHL1   C11 7028   3.453   1.433   9.595  0.4922 -0.2163 -0.2625
   62CHL1  H11A 7029   3.412   1.331   9.580  0.8115 -0.6671  1.6535
   62CHL1  H11B 7030   3.559   1.410   9.617  0.2376  0.3298  1.8031
   62CHL1    C9 7031   3.367   1.507   9.694 -0.5735  0.5593  0.4526
   62CHL1    H9 7032   3.411   1.608   9.695 -2.5715  1.4834  0.0520
   62CHL1   C10 7033   3.380   1.447   9.840  0.0505 -0.1607  0.5496
   62CHL1   C19 7034   3.371   1.293   9.830 -0.6082  0.0506 -0.2743
   62CHL1  H19A 7035   3.467   1.253   9.791  0.0216  1.7281 -0.5097
   62CHL1  H19B 7036   3.375   1.248   9.932 -2.8268  1.8811  0.6971
   62CHL1  H19C 7037   3.290   1.241   9.774  0.0099 -1.6708  0.3429
   62CHL1    C1 7038   3.519   1.481   9.894 -0.5101  0.0385 -0.7477
   62CHL1   H1A 7039   3.597   1.433   9.831  1.0841  2.5561 -0.8315
   62CHL1   H1B 7040   3.539   1.588   9.872  1.2080 -0.3498 -1.1852
   62CHL1    C2 7041   3.548   1.442  10.042  0.2767 -0.0596  0.5455
   62CHL1   H2A 7042   3.647   1.481  10.074  0.7286  0.9624 -1.8301
   62CHL1   H2B 7043   3.548   1.331  10.053 -1.2127 -0.0966  0.3567
   62CHL1   C20 7044   3.318   1.567   9.142  0.1636 -0.0627 -0.8217
   62CHL1   H20 7045   3.270   1.469   9.123 -0.9267  0.0157  1.2229
   62CHL1   C21 7046   3.469   1.547   9.133 -0.7973  1.1076 -0.7739
   62CHL1  H21A 7047   3.522   1.633   9.179  0.3726  0.1424 -0.2624
   62CHL1  H21B 7048   3.500   1.531   9.027 -2.2195 -3.0714 -0.7496
   62CHL1  H21C 7049   3.509   1.463   9.193 -0.5809  1.4895 -0.3834
   62CHL1   C22 7050   3.270   1.663   9.028 -0.7574  0.5373  0.1034
   62CHL1  H22A 7051   3.172   1.712   9.043 -1.3917 -0.2638 -1.2401
   62CHL1  H22B 7052   3.343   1.747   9.029 -1.9255  1.5893 -0.3521
   62CHL1   C23 7053   3.283   1.605   8.889 -0.0657 -0.8798 -0.1925
   62CHL1  H23A 7054   3.387   1.581   8.857  0.4726 -0.1028  0.9227
   62CHL1  H23B 7055   3.241   1.503   8.877  1.7702 -1.9000  1.4753
   62CHL1   C24 7056   3.220   1.698   8.781  0.7578 -0.1155 -0.6105
   62CHL1  H24A 7057   3.111   1.705   8.803  0.8403 -1.3575  0.3436
   62CHL1  H24B 7058   3.255   1.803   8.786 -2.7335  1.1395  1.1703
   62CHL1   C25 7059   3.255   1.646   8.638  0.4588 -0.1661  0.4005
   62CHL1   H25 7060   3.363   1.666   8.618 -0.1386  0.0306 -3.2807
   62CHL1   C26 7061   3.226   1.499   8.618 -0.0167  0.0590  0.3848
   62CHL1  H26A 7062   3.126   1.479   8.661 -0.2746 -1.3344 -0.7687
   62CHL1  H26B 7063   3.226   1.482   8.508  0.2448  0.5207  0.3089
   62CHL1  H26C 7064   3.299   1.444   8.681 -0.1765 -1.2050 -0.5077
   62CHL1   C27 7065   3.175   1.729   8.527 -0.1303 -0.4522 -0.2618
   62CHL1  H27A 7066   3.068   1.705   8.546  0.6962 -4.8216  0.0192
   62CHL1  H27B 7067   3.188   1.838   8.542 -2.1820 -0.1298 -0.4936
   62CHL1  H27C 7068   3.213   1.714   8.423  3.1201  1.9932  0.4234
   63CHL1    C3 7069   6.061   0.005  10.190 -0.2965 -0.9794  0.5184
   63CHL1    H3 7070   5.977  -0.068  10.189 -1.4860  0.3730 -0.7637
   63CHL1    O3 7071   6.114   0.004  10.320  0.4233  0.5295 -0.4755
   63CHL1   H3' 7072   6.162  -0.077  10.336 -2.1217 -0.7958  1.1400
   63CHL1    C4 7073   6.175  -0.026  10.092  0.6649 -0.1806  0.4638
   63CHL1   H4A 7074   6.270   0.025  10.119  1.0108 -1.1827  1.2260
   63CHL1   H4B 7075   6.207  -0.130  10.113  2.1438  0.1111 -0.2305
   63CHL1    C5 7076   6.139  -0.012   9.942  0.0590 -0.4681  0.1725
   63CHL1    C6 7077   6.161  -0.106   9.854 -0.0229  0.0934 -0.0469
   63CHL1    H6 7078   6.214  -0.200   9.875  0.1624 -0.7879 -3.6518
   63CHL1    C7 7079   6.138  -0.083   9.703 -0.6240  0.6550 -0.4332
   63CHL1   H7A 7080   6.215  -0.132   9.638  0.1627  1.8315 -0.4231
   63CHL1   H7B 7081   6.049  -0.144   9.677 -0.6221  0.6151 -0.3473
   63CHL1    C8 7082   6.121   0.063   9.665  0.6157 -0.2646 -0.5379
   63CHL1    H8 7083   6.217   0.120   9.669 -0.0729  0.8860  0.0104
   63CHL1   C14 7084   6.067   0.069   9.524  0.4106 -0.6441  0.0966
   63CHL1   H14 7085   5.968   0.021   9.533  0.0243 -0.0536 -0.8237
   63CHL1   C15 7086   6.141   0.001   9.412 -0.2419 -0.9736  0.2094
   63CHL1  H15A 7087   6.249   0.026   9.421 -0.4809  1.5423 -2.4671
   63CHL1  H15B 7088   6.127  -0.109   9.409 -1.8054 -0.8668  1.7740
   63CHL1   C16 7089   6.078   0.068   9.289 -0.0069 -0.6363  0.1751
   63CHL1  H16A 7090   6.161   0.123   9.239 -1.0205  1.3531  0.5764
   63CHL1  H16B 7091   6.019  -0.004   9.229  0.4643  0.3844 -1.6001
   63CHL1   C17 7092   5.969   0.160   9.349  0.7814 -0.8440  0.3652
   63CHL1   H17 7093   5.877   0.101   9.366 -0.8006  1.7810  1.5514
   63CHL1   C13 7094   6.025   0.211   9.480 -0.1838  0.6395 -0.6566
   63CHL1   C18 7095   6.143   0.304   9.458 -0.0941  0.3485 -0.4563
   63CHL1  H18A 7096   6.101   0.401   9.423  0.4516  0.1704 -1.6552
   63CHL1  H18B 7097   6.198   0.323   9.553  0.4872 -0.9513 -0.5100
   63CHL1  H18C 7098   6.227   0.267   9.396  0.3117  0.0588  0.2542
   63CHL1   C12 7099   5.922   0.265   9.578  0.1473 -0.2852 -0.1796
   63CHL1  H12A 7100   5.910   0.370   9.541  0.1849  0.3269  1.4785
   63CHL1  H12B 7101   5.828   0.207   9.585 -1.5062  2.3261  0.9247
   63CHL1   C11 7102   5.982   0.276   9.718 -0.1190  0.0534  0.7230
   63CHL1  H11A 7103   6.077   0.334   9.717 -0.1062  0.0792 -1.2933
   63CHL1  H11B 7104   5.907   0.323   9.785 -0.5900  0.8184 -0.3121
   63CHL1    C9 7105   6.024   0.134   9.768 -0.4168  0.8270 -0.1942
   63CHL1    H9 7106   5.925   0.085   9.768 -0.8807  1.7314 -0.5501
   63CHL1   C10 7107   6.084   0.128   9.912  0.1899  0.4496 -0.9055
   63CHL1   C19 7108   6.197   0.232   9.914 -0.3412  0.3185 -0.0769
   63CHL1  H19A 7109   6.157   0.333   9.892  0.8894  0.5510 -1.4244
   63CHL1  H19B 7110   6.248   0.236  10.012  1.0709  0.0483 -0.7711
   63CHL1  H19C 7111   6.280   0.214   9.842 -0.7994  2.6669 -1.3180
   63CHL1    C1 7112   5.971   0.168  10.019  0.0182  0.1648  0.5355
   63CHL1   H1A 7113   5.947   0.276  10.006 -1.5887  0.4471  4.5074
   63CHL1   H1B 7114   5.883   0.109   9.985 -1.0389  2.1027 -0.2760
   63CHL1    C2 7115   6.009   0.149  10.159 -0.2075 -0.3304 -0.0387
   63CHL1   H2A 7116   5.923   0.163  10.229 -0.3887  1.1375 -0.5175
   63CHL1   H2B 7117   6.077   0.231  10.192 -0.8736 -0.3337  1.4344
   63CHL1   C20 7118   5.920   0.272   9.246  0.3739  0.0657 -0.2630
   63CHL1   H20 7119   5.918   0.367   9.304  4.2172  2.4831 -3.5108
   63CHL1   C21 7120   5.785   0.233   9.205  0.7348 -0.0091 -0.2351
   63CHL1  H21A 7121   5.717   0.240   9.292  0.3327 -2.0139 -0.3426
   63CHL1  H21B 7122   5.789   0.130   9.163  0.7626 -1.0869  2.2745
   63CHL1  H21C 7123   5.743   0.303   9.129 -0.9571 -2.0413 -1.2697
   63CHL1   C22 7124   6.019   0.298   9.129  0.0800  0.1379  0.1706
   63CHL1  H22A 7125   6.118   0.309   9.180  0.0339 -2.9266  1.0904
   63CHL1  H22B 7126   6.020   0.213   9.058  0.2477  0.9560 -0.8362
   63CHL1   C23 7127   5.988   0.425   9.057 -0.3768  0.3945  0.5704
   63CHL1  H23A 7128   5.897   0.416   8.994  0.2544  0.7059 -0.4160
   63CHL1  H23B 7129   5.959   0.501   9.133 -0.5564 -0.8621  1.7972
   63CHL1   C24 7130   6.107   0.467   8.968  0.6327  0.2417 -0.3731
   63CHL1  H24A 7131   6.202   0.463   9.025  0.2924 -1.1185  0.1510
   63CHL1  H24B 7132   6.130   0.398   8.884 -0.2421  0.2668 -0.6525
   63CHL1   C25 7133   6.087   0.601   8.899  0.1865  0.3094 -0.6108
   63CHL1   H25 7134   6.092   0.685   8.972  2.0357 -0.2774  0.0151
   63CHL1   C26 7135   6.193   0.631   8.790 -0.4133  0.3347 -0.4711
   63CHL1  H26A 7136   6.290   0.613   8.840 -0.4516  1.0105 -0.1455
   63CHL1  H26B 7137   6.184   0.564   8.702 -1.5536 -1.6391  1.0707
   63CHL1  H26C 7138   6.184   0.737   8.760  1.5961  0.8159  0.4565
   63CHL1   C27 7139   5.952   0.618   8.834 -0.0623  0.2211  0.7019
   63CHL1  H27A 7140   5.935   0.712   8.778  0.4344 -0.2936 -0.3402
   63CHL1  H27B 7141   5.938   0.527   8.772  3.4533 -1.0093  1.4381
   63CHL1  H27C 7142   5.878   0.609   8.917 -0.6796 -1.0928  0.0337
   64CHL1    C3 7143   4.593   3.062  10.177 -0.2357 -0.6534  0.0952
   64CHL1    H3 7144   4.591   2.959  10.219 -0.0629 -1.2124 -1.2363
   64CHL1    O3 7145   4.562   3.157  10.281 -0.1973 -0.0439 -0.5487
   64CHL1   H3' 7146   4.612   3.233  10.251  1.3863 -0.1169  1.6858
   64CHL1    C4 7147   4.740   3.095  10.132  0.2196 -0.5012 -0.4146
   64CHL1   H4A 7148   4.735   3.203  10.107 -0.0257 -0.3861  0.1323
   64CHL1   H4B 7149   4.811   3.081  10.216 -0.1255  0.7635  0.0984
   64CHL1    C5 7150   4.777   3.016  10.012  0.5627 -0.2965  0.8625
   64CHL1    C6 7151   4.895   2.940  10.004  0.5814 -0.1391  0.4526
   64CHL1    H6 7152   4.964   2.930  10.090  0.4865 -4.5112  0.2548
   64CHL1    C7 7153   4.929   2.852   9.886  0.3940 -0.7938  0.0321
   64CHL1   H7A 7154   5.036   2.847   9.858 -0.5340 -0.4717 -4.4814
   64CHL1   H7B 7155   4.886   2.751   9.905  0.4713 -0.5676  1.4659
   64CHL1    C8 7156   4.862   2.904   9.759  0.4892 -0.6735 -0.2776
   64CHL1    H8 7157   4.911   3.002   9.736 -1.7635 -0.1725 -3.6039
   64CHL1   C14 7158   4.885   2.806   9.643 -0.2895 -0.1615 -0.0253
   64CHL1   H14 7159   4.837   2.714   9.685  0.9894  0.1309  2.2192
   64CHL1   C15 7160   5.030   2.770   9.593  0.4375  0.0649 -0.5511
   64CHL1  H15A 7161   5.089   2.864   9.588  0.0205  0.2698 -2.6856
   64CHL1  H15B 7162   5.081   2.704   9.666  0.7726 -0.7314 -1.4771
   64CHL1   C16 7163   5.006   2.710   9.450  0.2088 -0.0936  0.4777
   64CHL1  H16A 7164   5.063   2.774   9.380 -0.4567  0.9517  0.8777
   64CHL1  H16B 7165   5.045   2.606   9.444  0.6472  0.0691  0.4666
   64CHL1   C17 7166   4.852   2.713   9.428 -0.1494 -0.1080  0.4382
   64CHL1   H17 7167   4.816   2.631   9.493 -1.1334  1.7103  2.2655
   64CHL1   C13 7168   4.807   2.828   9.515  0.2430  0.3740  1.1171
   64CHL1   C18 7169   4.844   2.963   9.446 -1.2071  0.1854 -0.4286
   64CHL1  H18A 7170   4.954   2.964   9.436 -0.9473 -0.7896  1.8456
   64CHL1  H18B 7171   4.799   2.966   9.344  1.0610 -0.9175 -1.5185
   64CHL1  H18C 7172   4.814   3.049   9.509 -1.9076  1.7788 -2.7911
   64CHL1   C12 7173   4.656   2.822   9.552 -0.2759  0.1016  0.1391
   64CHL1  H12A 7174   4.596   2.831   9.459 -1.2056 -1.3439  0.5614
   64CHL1  H12B 7175   4.631   2.721   9.592 -0.8949  0.6584  1.1842
   64CHL1   C11 7176   4.623   2.933   9.651  0.4651  0.0475  0.6932
   64CHL1  H11A 7177   4.631   3.036   9.612 -2.0882  0.8549  2.0070
   64CHL1  H11B 7178   4.514   2.918   9.670  0.6902 -1.3744  0.9603
   64CHL1    C9 7179   4.706   2.913   9.782  0.8374 -0.7585 -0.8052
   64CHL1    H9 7180   4.683   2.810   9.817  1.1006 -0.9703 -1.2486
   64CHL1   C10 7181   4.671   3.013   9.894 -0.1587  0.1846 -0.3152
   64CHL1   C19 7182   4.670   3.161   9.832  1.0518  0.1722  0.6949
   64CHL1  H19A 7183   4.600   3.167   9.746  1.3664  0.0022  0.4218
   64CHL1  H19B 7184   4.647   3.231   9.915  0.0430 -0.7477  1.2272
   64CHL1  H19C 7185   4.771   3.186   9.791  0.9308  1.2260  1.0289
   64CHL1    C1 7186   4.527   2.986   9.950 -0.4935 -0.8974 -0.0554
   64CHL1   H1A 7187   4.444   2.965   9.879 -1.7013 -3.0486  1.8427
   64CHL1   H1B 7188   4.535   2.890  10.005  5.9310  0.1736  1.6908
   64CHL1    C2 7189   4.487   3.081  10.068 -0.4993 -0.0548 -0.1538
   64CHL1   H2A 7190   4.390   3.044  10.108 -0.9910  2.0174  0.6916
   64CHL1   H2B 7191   4.467   3.185  10.035 -3.9878 -1.4395 -3.1632
   64CHL1   C20 7192   4.798   2.695   9.280  0.0194 -0.0177  0.7421
   64CHL1   H20 7193   4.704   2.755   9.271  0.2149  0.2935  0.7560
   64CHL1   C21 7194   4.782   2.545   9.259  0.1162 -0.6558  0.3067
   64CHL1  H21A 7195   4.710   2.524   9.177 -1.7517  2.1004  1.1110
   64CHL1  H21B 7196   4.749   2.489   9.350 -0.6585 -0.1938  0.3225
   64CHL1  H21C 7197   4.883   2.519   9.221 -0.1320  0.2367 -1.0231
   64CHL1   C22 7198   4.887   2.757   9.169  0.3470 -0.1553 -0.1552
   64CHL1  H22A 7199   4.902   2.863   9.200  1.6553 -1.3777  4.0929
   64CHL1  H22B 7200   4.988   2.711   9.167  0.3732 -0.0971 -1.5158
   64CHL1   C23 7201   4.834   2.745   9.024 -0.0335  0.7925 -0.8971
   64CHL1  H23A 7202   4.858   2.640   8.997  1.8347  0.8915  0.2170
   64CHL1  H23B 7203   4.725   2.764   9.029  0.0592  1.1827 -0.0762
   64CHL1   C24 7204   4.905   2.823   8.921 -0.6355 -0.8071  0.7858
   64CHL1  H24A 7205   4.898   2.931   8.945 -2.5270 -0.2129 -1.9683
   64CHL1  H24B 7206   5.012   2.795   8.933 -0.7234 -0.2641  3.3679
   64CHL1   C25 7207   4.856   2.815   8.774 -0.3132 -0.5177 -0.1187
   64CHL1   H25 7208   4.859   2.712   8.732  2.0226  0.1686 -1.8922
   64CHL1   C26 7209   4.709   2.860   8.766  0.5563  0.0580 -1.1590
   64CHL1  H26A 7210   4.670   2.843   8.664 -3.6290 -1.0138  0.4415
   64CHL1  H26B 7211   4.644   2.797   8.830  0.9891  0.3124 -0.4566
   64CHL1  H26C 7212   4.698   2.969   8.779  1.8110  0.0860 -0.0302
   64CHL1   C27 7213   4.941   2.907   8.688 -0.1179  0.2004  0.1595
   64CHL1  H27A 7214   4.908   2.900   8.582 -1.6887  0.5514  0.6006
   64CHL1  H27B 7215   4.929   3.013   8.720  1.2193 -0.0410  1.5570
   64CHL1  H27C 7216   5.049   2.880   8.684 -0.1617  0.0379  0.1062
   65CHL1    C3 7217   0.543   4.866  10.192 -0.3748  0.0104 -0.1763
   65CHL1    H3 7218   0.495   4.765  10.196  0.6947 -0.5220 -0.4032
   65CHL1    O3 7219   0.546   4.915  10.323  0.3325 -0.6145  0.1751
   65CHL1   H3' 7220   0.621   4.974  10.331 -2.8967  4.0620  0.1844
   65CHL1    C4 7221   0.681   4.852  10.130 -0.7013  0.9320  0.8031
   65CHL1   H4A 7222   0.730   4.952  10.126  1.4392 -0.0329  1.5464
   65CHL1   H4B 7223   0.743   4.786  10.195 -0.4837 -0.9834 -1.2431
   65CHL1    C5 7224   0.671   4.794   9.988 -0.4393  0.9403 -0.4942
   65CHL1    C6 7225   0.740   4.678   9.944  0.1388 -0.3451 -0.4046
   65CHL1    H6 7226   0.800   4.622  10.017 -0.8278 -1.0177 -0.1022
   65CHL1    C7 7227   0.729   4.612   9.812 -0.0971 -0.6193  1.1058
   65CHL1   H7A 7228   0.824   4.568   9.775  1.0342  3.8255 -2.0329
   65CHL1   H7B 7229   0.650   4.533   9.818  0.3269 -0.9922  1.8340
   65CHL1    C8 7230   0.686   4.719   9.702  0.0200 -0.0297 -0.4379
   65CHL1    H8 7231   0.774   4.778   9.670  0.6008 -2.0378 -2.8704
   65CHL1   C14 7232   0.651   4.643   9.575 -0.4280  0.2349 -0.3743
   65CHL1   H14 7233   0.570   4.574   9.608  0.1643 -1.4519 -2.2480
   65CHL1   C15 7234   0.755   4.549   9.506  0.7951 -0.0659  0.4762
   65CHL1  H15A 7235   0.858   4.590   9.504  0.2825  1.3309 -1.7860
   65CHL1  H15B 7236   0.749   4.450   9.555 -0.6103 -0.2117  0.0733
   65CHL1   C16 7237   0.692   4.535   9.360  0.4464  0.6633  0.1302
   65CHL1  H16A 7238   0.770   4.573   9.291 -0.5087 -0.9658 -1.9580
   65CHL1  H16B 7239   0.693   4.426   9.339 -0.0648  0.8382 -0.8433
   65CHL1   C17 7240   0.559   4.603   9.357  0.2300  0.0407  0.1550
   65CHL1   H17 7241   0.491   4.529   9.404  4.7815 -3.7459  1.5222
   65CHL1   C13 7242   0.577   4.715   9.464  0.2146 -0.5536  0.0181
   65CHL1   C18 7243   0.665   4.832   9.398 -0.0642  0.5370 -0.3594
   65CHL1  H18A 7244   0.597   4.869   9.318 -0.8466 -2.1674 -1.0488
   65CHL1  H18B 7245   0.677   4.907   9.480  1.0025 -2.6271  2.6666
   65CHL1  H18C 7246   0.763   4.797   9.360  0.2310 -0.2273  1.0028
   65CHL1   C12 7247   0.449   4.776   9.531  0.3453  0.0758  0.5748
   65CHL1  H12A 7248   0.388   4.822   9.450 -0.3795 -3.1172 -0.8444
   65CHL1  H12B 7249   0.381   4.693   9.560 -0.9941  0.3307 -1.6484
   65CHL1   C11 7250   0.476   4.867   9.650  0.0198  0.4540  0.3342
   65CHL1  H11A 7251   0.536   4.953   9.612  1.4381 -0.6250  0.0442
   65CHL1  H11B 7252   0.380   4.908   9.688  0.4493 -0.0479  2.0561
   65CHL1    C9 7253   0.557   4.801   9.757 -0.2996 -0.0364  0.3323
   65CHL1    H9 7254   0.483   4.728   9.795  0.1089 -0.3701  0.5017
   65CHL1   C10 7255   0.583   4.878   9.889 -0.0099 -0.5612  0.1449
   65CHL1   C19 7256   0.649   5.010   9.849  0.1551 -0.5212 -0.4593
   65CHL1  H19A 7257   0.575   5.078   9.803 -1.4041 -0.1687  2.3576
   65CHL1  H19B 7258   0.678   5.063   9.942 -1.9377  1.0488 -0.6279
   65CHL1  H19C 7259   0.732   5.000   9.775 -0.7667  1.1221 -1.7902
   65CHL1    C1 7260   0.445   4.905   9.960  0.6108  0.6358 -0.2377
   65CHL1   H1A 7261   0.383   4.981   9.908  0.6837  1.5606  0.9623
   65CHL1   H1B 7262   0.385   4.812   9.973  0.3314  0.8121 -0.2667
   65CHL1    C2 7263   0.456   4.966  10.101  0.0351  0.0277 -1.0026
   65CHL1   H2A 7264   0.353   4.975  10.142  0.1887 -1.2740 -0.2464
   65CHL1   H2B 7265   0.509   5.063  10.105 -0.2897  0.1834 -0.2131
   65CHL1   C20 7266   0.509   4.645   9.217  0.3235 -0.4330 -0.6406
   65CHL1   H20 7267   0.572   4.732   9.188  0.1954 -0.1972 -0.2056
   65CHL1   C21 7268   0.363   4.696   9.218  0.2871 -0.4645 -0.2086
   65CHL1  H21A 7269   0.306   4.683   9.123  0.1069  3.4414 -0.7939
   65CHL1  H21B 7270   0.358   4.804   9.244 -0.5264 -0.5026 -0.2030
   65CHL1  H21C 7271   0.314   4.655   9.308 -0.9819 -1.1754 -1.1919
   65CHL1   C22 7272   0.521   4.523   9.123 -0.0648 -0.5184  0.5964
   65CHL1  H22A 7273   0.622   4.477   9.126  0.5702  0.7429 -0.1744
   65CHL1  H22B 7274   0.447   4.447   9.156 -0.6471 -0.8118 -1.2266
   65CHL1   C23 7275   0.491   4.569   8.972  1.1550  0.1338 -0.0192
   65CHL1  H23A 7276   0.512   4.477   8.913 -0.1028  0.9040 -1.7563
   65CHL1  H23B 7277   0.384   4.599   8.964  1.7092  2.3095  0.1050
   65CHL1   C24 7278   0.591   4.678   8.935 -0.7665 -0.1383 -0.1369
   65CHL1  H24A 7279   0.572   4.703   8.828 -0.6254  1.6173  0.2110
   65CHL1  H24B 7280   0.551   4.769   8.984 -1.6087 -1.0895  0.9936
   65CHL1   C25 7281   0.741   4.655   8.951  0.2638  0.8321  0.6916
   65CHL1   H25 7282   0.754   4.622   9.056  1.6568  0.8180  0.5357
   65CHL1   C26 7283   0.801   4.541   8.862 -0.2589  0.5362  0.5121
   65CHL1  H26A 7284   0.772   4.439   8.897  0.2248  0.8803  2.0018
   65CHL1  H26B 7285   0.771   4.565   8.758  1.9355  1.8736  0.1245
   65CHL1  H26C 7286   0.912   4.539   8.858 -0.2644 -1.7872 -0.6084
   65CHL1   C27 7287   0.821   4.781   8.930 -0.6017 -0.4172  0.0070
   65CHL1  H27A 7288   0.925   4.761   8.964 -0.0015  0.4102 -1.2356
   65CHL1  H27B 7289   0.828   4.826   8.829 -0.4091  1.9832  1.0165
   65CHL1  H27C 7290   0.782   4.864   8.992 -0.2135  0.2068 -0.5705
   66CHL1    C3 7291   4.621   4.399  10.575 -0.3870  0.3906  0.1136
   66CHL1    H3 7292   4.726   4.431  10.563 -0.7114  1.3272 -0.3326
   66CHL1    O3 7293   4.614   4.376  10.717  0.0705 -0.2350  0.3234
   66CHL1   H3' 7294   4.521   4.360  10.735 -0.2501 -1.1305 -1.8182
   66CHL1    C4 7295   4.532   4.514  10.543  0.1771  0.5739  0.0134
   66CHL1   H4A 7296   4.437   4.502  10.600 -0.2937 -0.0167 -0.8720
   66CHL1   H4B 7297   4.577   4.604  10.590  0.0082  1.2100 -1.0185
   66CHL1    C5 7298   4.510   4.541  10.395  0.3885 -1.0997 -0.2406
   66CHL1    C6 7299   4.530   4.659  10.344  0.4621 -1.7355  0.3949
   66CHL1    H6 7300   4.547   4.748  10.406 -1.2334 -1.6397  0.7655
   66CHL1    C7 7301   4.521   4.695  10.196  0.0788  0.2284 -0.2907
   66CHL1   H7A 7302   4.466   4.791  10.181 -0.4613  0.5464  2.9816
   66CHL1   H7B 7303   4.624   4.698  10.154 -0.0500 -3.3576 -1.1780
   66CHL1    C8 7304   4.451   4.579  10.126 -0.2576 -0.3998  0.3716
   66CHL1    H8 7305   4.343   4.580  10.151 -1.1365 -0.4094 -2.9748
   66CHL1   C14 7306   4.444   4.601   9.977  0.4022 -0.4776 -0.1249
   66CHL1   H14 7307   4.551   4.607   9.948  0.2692  1.1484 -0.3456
   66CHL1   C15 7308   4.380   4.732   9.926  0.1724  0.8897 -0.2016
   66CHL1  H15A 7309   4.282   4.744   9.978  0.2470 -0.6374  0.3447
   66CHL1  H15B 7310   4.439   4.825   9.940  1.2634 -0.2166  4.0156
   66CHL1   C16 7311   4.359   4.704   9.777 -0.3721  0.5398  1.0058
   66CHL1  H16A 7312   4.252   4.709   9.747 -0.5557  0.1024  1.5447
   66CHL1  H16B 7313   4.418   4.774   9.715  0.3675  1.0050  2.1951
   66CHL1   C17 7314   4.407   4.563   9.745  1.1102  0.2524 -0.1145
   66CHL1   H17 7315   4.517   4.564   9.729  1.2309  0.4692  0.6803
   66CHL1   C13 7316   4.391   4.496   9.881 -0.3489  0.0143  0.0437
   66CHL1   C18 7317   4.238   4.471   9.900  0.7067  0.0321 -0.0322
   66CHL1  H18A 7318   4.182   4.567   9.898 -0.1827 -0.4925 -1.2184
   66CHL1  H18B 7319   4.199   4.399   9.826  2.6930  0.3656 -1.4671
   66CHL1  H18C 7320   4.219   4.432  10.003 -1.6119 -0.4493 -0.6025
   66CHL1   C12 7321   4.490   4.375   9.916 -0.3122  0.9406  0.2118
   66CHL1  H12A 7322   4.465   4.287   9.853 -0.2441  0.5211  0.7640
   66CHL1  H12B 7323   4.596   4.394   9.887  0.7766 -2.8800  1.1331
   66CHL1   C11 7324   4.479   4.328  10.059 -0.4430 -0.0557 -0.3331
   66CHL1  H11A 7325   4.380   4.282  10.083 -1.1809  1.6676  0.1091
   66CHL1  H11B 7326   4.558   4.253  10.079  0.3991  0.6056 -1.1011
   66CHL1    C9 7327   4.512   4.446  10.159  1.0244  0.0902 -0.0472
   66CHL1    H9 7328   4.620   4.468  10.150  1.1499  0.2318  1.6072
   66CHL1   C10 7329   4.489   4.420  10.299 -0.0011 -0.1507 -0.5500
   66CHL1   C19 7330   4.342   4.379  10.318  0.4819 -0.0725  0.4314
   66CHL1  H19A 7331   4.314   4.368  10.425 -1.4840 -0.0659 -0.0469
   66CHL1  H19B 7332   4.270   4.453  10.278  0.4261 -0.4553 -0.1857
   66CHL1  H19C 7333   4.312   4.282  10.273  0.5820 -0.9383  2.1247
   66CHL1    C1 7334   4.574   4.302  10.353  0.3196 -0.5018 -0.4990
   66CHL1   H1A 7335   4.541   4.203  10.315 -1.7077 -0.0180 -0.0782
   66CHL1   H1B 7336   4.680   4.320  10.324  0.1933 -0.0506 -0.6948
   66CHL1    C2 7337   4.575   4.278  10.503 -0.8419 -0.1310 -0.4252
   66CHL1   H2A 7338   4.647   4.195  10.510 -1.5413 -0.7383 -0.2940
   66CHL1   H2B 7339   4.470   4.252  10.531  0.0738 -2.4940  1.1033
   66CHL1   C20 7340   4.332   4.491   9.620  0.2088  0.4951 -0.0071
   66CHL1   H20 7341   4.224   4.509   9.640  0.3548  0.2795  1.0124
   66CHL1   C21 7342   4.362   4.343   9.610  0.9604  0.7481  0.7123
   66CHL1  H21A 7343   4.467   4.311   9.617  0.6824 -0.9367 -1.5601
   66CHL1  H21B 7344   4.324   4.308   9.511 -0.2840 -1.0605  1.7701
   66CHL1  H21C 7345   4.298   4.287   9.682 -0.9848 -1.1780 -2.2597
   66CHL1   C22 7346   4.368   4.572   9.493 -0.3030  0.0651  0.7975
   66CHL1  H22A 7347   4.323   4.673   9.503 -0.0155  0.3271 -0.3057
   66CHL1  H22B 7348   4.475   4.577   9.461 -0.8440 -2.9721 -2.0159
   66CHL1   C23 7349   4.302   4.515   9.365 -0.0523 -0.0164  0.1268
   66CHL1  H23A 7350   4.354   4.421   9.335  0.0088 -0.0691  0.3912
   66CHL1  H23B 7351   4.196   4.485   9.384 -0.3789  0.6617 -0.5774
   66CHL1   C24 7352   4.309   4.602   9.239 -0.8865 -0.2634 -0.3266
   66CHL1  H24A 7353   4.238   4.687   9.241  0.9405  1.3585 -1.3573
   66CHL1  H24B 7354   4.414   4.636   9.230 -0.9394  0.3929  1.2286
   66CHL1   C25 7355   4.280   4.525   9.108 -1.0169 -0.1972  0.7572
   66CHL1   H25 7356   4.356   4.451   9.076  0.4275  1.6461 -0.2459
   66CHL1   C26 7357   4.144   4.445   9.116 -0.3331  0.1463 -0.5554
   66CHL1  H26A 7358   4.151   4.379   9.205 -0.0226  3.0296  1.7055
   66CHL1  H26B 7359   4.065   4.522   9.133  0.4695  0.9833 -0.5157
   66CHL1  H26C 7360   4.127   4.376   9.031 -0.7527 -0.0684 -0.2980
   66CHL1   C27 7361   4.269   4.612   8.983  0.0275  0.0480  0.0198
   66CHL1  H27A 7362   4.368   4.662   8.973  0.0137 -0.0628 -0.7567
   66CHL1  H27B 7363   4.250   4.559   8.887 -0.6716 -0.4013  0.3996
   66CHL1  H27C 7364   4.198   4.697   8.980  0.3230  0.2867 -0.2820
   67CHL1    C3 7365   0.353   1.067  10.154  0.0523 -0.0593 -0.0113
   67CHL1    H3 7366   0.312   0.970  10.119  0.5008  0.4549 -2.0451
   67CHL1    O3 7367   0.345   1.082  10.302  0.5716 -0.0380  0.7509
   67CHL1   H3' 7368   0.391   1.165  10.318  0.5781 -0.2548  1.9545
   67CHL1    C4 7369   0.497   1.072  10.118  0.3245 -0.3240  0.1590
   67CHL1   H4A 7370   0.547   1.163  10.158  0.3710 -0.6135  0.7897
   67CHL1   H4B 7371   0.540   0.985  10.173  3.0933  0.4022 -0.7106
   67CHL1    C5 7372   0.530   1.045   9.971 -0.1639 -0.5543 -0.9222
   67CHL1    C6 7373   0.605   0.942   9.933  0.6849  0.8314  0.2189
   67CHL1    H6 7374   0.635   0.871  10.012  1.9918  1.2936  0.1681
   67CHL1    C7 7375   0.646   0.920   9.791 -0.0627  0.0694 -0.1340
   67CHL1   H7A 7376   0.756   0.908   9.782 -0.1972 -1.0013 -0.4593
   67CHL1   H7B 7377   0.595   0.826   9.761  0.1358 -0.8346  2.1914
   67CHL1    C8 7378   0.613   1.041   9.693 -0.8718 -0.1403  0.4514
   67CHL1    H8 7379   0.687   1.122   9.711  1.5074 -2.0389 -0.1456
   67CHL1   C14 7380   0.614   1.007   9.551 -0.3194  0.9130  0.5784
   67CHL1   H14 7381   0.535   0.929   9.543  0.1174  0.4374  0.7928
   67CHL1   C15 7382   0.738   0.936   9.493  0.3354  0.1318  0.1551
   67CHL1  H15A 7383   0.831   0.983   9.532  0.9375  1.0724 -2.2417
   67CHL1  H15B 7384   0.748   0.831   9.528 -1.2577 -0.4972 -1.1423
   67CHL1   C16 7385   0.733   0.961   9.342 -0.1897 -0.1988 -0.4669
   67CHL1  H16A 7386   0.825   1.016   9.312 -0.2159 -1.3263 -2.8836
   67CHL1  H16B 7387   0.722   0.871   9.277 -0.5675  0.1774 -0.9235
   67CHL1   C17 7388   0.611   1.053   9.312 -0.8564 -0.6531 -0.6204
   67CHL1   H17 7389   0.532   0.979   9.287 -0.1862 -0.6163 -3.0464
   67CHL1   C13 7390   0.580   1.120   9.450 -0.2906 -0.2309 -0.1034
   67CHL1   C18 7391   0.675   1.238   9.459  0.4909 -0.5255 -0.3063
   67CHL1  H18A 7392   0.776   1.229   9.413 -0.4256  0.8976 -2.8278
   67CHL1  H18B 7393   0.622   1.313   9.395 -1.6477 -0.4464  1.4459
   67CHL1  H18C 7394   0.683   1.274   9.564 -0.6865  0.3121 -0.4832
   67CHL1   C12 7395   0.435   1.163   9.484 -0.3895  0.4777  0.3784
   67CHL1  H12A 7396   0.394   1.244   9.420  1.7939  2.0894  0.8964
   67CHL1  H12B 7397   0.367   1.075   9.481  0.0903  0.0016  2.2679
   67CHL1   C11 7398   0.421   1.204   9.627  0.1349  0.1606 -0.8359
   67CHL1  H11A 7399   0.478   1.298   9.619  1.3226 -0.5270 -0.7234
   67CHL1  H11B 7400   0.314   1.220   9.650 -0.7031 -3.5611 -1.4675
   67CHL1    C9 7401   0.479   1.100   9.731  0.3111  0.1576 -0.0499
   67CHL1    H9 7402   0.409   1.014   9.725 -0.3694  0.4525  2.4963
   67CHL1   C10 7403   0.469   1.144   9.883 -0.2251 -0.0679  0.0303
   67CHL1   C19 7404   0.547   1.284   9.889  0.2488  0.2253 -0.3786
   67CHL1  H19A 7405   0.544   1.324   9.992  1.9389  0.5157 -0.4135
   67CHL1  H19B 7406   0.656   1.274   9.870  0.1749 -0.7666 -0.3466
   67CHL1  H19C 7407   0.504   1.364   9.825  2.6165  0.9355 -1.2094
   67CHL1    C1 7408   0.320   1.158   9.923  0.1360  1.2893 -0.4085
   67CHL1   H1A 7409   0.279   1.248   9.874  0.9651  1.3933 -0.9267
   67CHL1   H1B 7410   0.263   1.068   9.890  0.8030  1.1279 -1.1598
   67CHL1    C2 7411   0.288   1.181  10.075 -0.3384 -0.1042  0.8992
   67CHL1   H2A 7412   0.179   1.179  10.097 -0.9082 -0.2472 -1.5928
   67CHL1   H2B 7413   0.319   1.281  10.112 -0.3637 -0.0267  0.7140
   67CHL1   C20 7414   0.621   1.124   9.178  0.4185  0.0338 -0.5197
   67CHL1   H20 7415   0.710   1.190   9.179  1.4495 -1.3205 -0.0674
   67CHL1   C21 7416   0.498   1.215   9.161  0.2159  0.7097 -0.2502
   67CHL1  H21A 7417   0.501   1.271   9.065 -0.9372  1.9465  0.3939
   67CHL1  H21B 7418   0.489   1.294   9.239  0.4217 -0.2838  0.8040
   67CHL1  H21C 7419   0.400   1.163   9.161  0.7796 -0.4051 -1.3622
   67CHL1   C22 7420   0.616   1.025   9.055 -0.7252 -0.1464 -0.8162
   67CHL1  H22A 7421   0.670   0.934   9.088  0.2357  0.8908  0.6106
   67CHL1  H22B 7422   0.506   1.010   9.043 -1.4577  0.8596  3.0330
   67CHL1   C23 7423   0.684   1.077   8.930 -0.0489 -0.2645 -0.3763
   67CHL1  H23A 7424   0.633   1.170   8.897  1.9252  0.7283 -0.8301
   67CHL1  H23B 7425   0.783   1.122   8.955  0.4419 -1.6227  0.2093
   67CHL1   C24 7426   0.677   0.974   8.821 -0.3903 -0.1926  0.3550
   67CHL1  H24A 7427   0.727   0.880   8.853  0.4089 -0.4643 -1.5641
   67CHL1  H24B 7428   0.571   0.946   8.803 -0.2605 -0.4262 -0.0717
   67CHL1   C25 7429   0.737   1.026   8.686  0.2827 -0.1912  0.9175
   67CHL1   H25 7430   0.675   1.115   8.662  0.0921 -0.6082 -0.1819
   67CHL1   C26 7431   0.887   1.055   8.695 -0.5325 -0.2159  0.1940
   67CHL1  H26A 7432   0.897   1.099   8.796 -1.9588  2.3286 -0.6770
   67CHL1  H26B 7433   0.940   0.958   8.695 -0.7293 -0.3334 -0.5552
   67CHL1  H26C 7434   0.911   1.121   8.609  0.6392  1.2571  1.5787
   67CHL1   C27 7435   0.707   0.919   8.574  0.1630 -0.0227  0.1567
   67CHL1  H27A 7436   0.750   0.945   8.475 -1.8441 -0.4881 -0.9076
   67CHL1  H27B 7437   0.755   0.822   8.599  0.1548 -0.1781 -0.4185
   67CHL1  H27C 7438   0.598   0.911   8.553  0.6160 -3.9856 -1.5709
   68CHL1    C3 7439   5.207   0.847  10.393 -0.2239 -0.1058 -0.3679
   68CHL1    H3 7440   5.107   0.811  10.361  0.2736 -1.2642 -0.6538
   68CHL1    O3 7441   5.219   0.847  10.536  0.2337  0.1232  0.0911
   68CHL1   H3' 7442   5.307   0.882  10.554  1.4264 -1.7325 -1.5649
   68CHL1    C4 7443   5.313   0.757  10.323  0.0217  0.0925  0.4211
   68CHL1   H4A 7444   5.417   0.783  10.352 -0.6484  0.4858  2.6784
   68CHL1   H4B 7445   5.294   0.655  10.361 -0.6431  0.5699  1.4342
   68CHL1    C5 7446   5.305   0.774  10.170 -0.1700 -0.6563 -0.2160
   68CHL1    C6 7447   5.290   0.665  10.099 -0.1727  0.1594  0.2022
   68CHL1    H6 7448   5.291   0.567  10.148 -2.2470  0.5856  1.2332
   68CHL1    C7 7449   5.289   0.670   9.948  0.0814  0.9669 -0.1751
   68CHL1   H7A 7450   5.363   0.597   9.908 -1.4843 -1.1231  0.5890
   68CHL1   H7B 7451   5.192   0.623   9.925 -0.3971 -0.4490  3.9280
   68CHL1    C8 7452   5.327   0.795   9.881  0.1622 -0.0841  0.1131
   68CHL1    H8 7453   5.437   0.800   9.885  0.2482 -2.0683  2.5799
   68CHL1   C14 7454   5.270   0.799   9.734 -0.2538 -0.5638 -0.2540
   68CHL1   H14 7455   5.161   0.813   9.750 -0.4124 -1.7112 -0.2261
   68CHL1   C15 7456   5.292   0.688   9.636 -0.4775 -0.1109 -0.0280
   68CHL1  H15A 7457   5.387   0.631   9.645  0.8652  1.5515 -2.3704
   68CHL1  H15B 7458   5.213   0.614   9.658  1.4803 -2.1784  0.4870
   68CHL1   C16 7459   5.283   0.750   9.491 -0.2132  0.1218  0.3853
   68CHL1  H16A 7460   5.382   0.746   9.440 -0.6287  0.7913 -0.4975
   68CHL1  H16B 7461   5.206   0.701   9.428  1.3015  0.5781 -1.9263
   68CHL1   C17 7462   5.248   0.899   9.516  0.1578 -0.5730 -0.3320
   68CHL1   H17 7463   5.138   0.909   9.520  0.3050  1.0503  2.5717
   68CHL1   C13 7464   5.308   0.935   9.664 -0.6583 -0.1856 -0.1699
   68CHL1   C18 7465   5.458   0.948   9.649  1.0168  0.1418  0.7251
   68CHL1  H18A 7466   5.472   1.050   9.606 -0.8763 -0.9382 -2.8976
   68CHL1  H18B 7467   5.515   0.944   9.745 -0.9406 -1.4039  1.8936
   68CHL1  H18C 7468   5.512   0.870   9.592  0.1486 -0.4216  0.6485
   68CHL1   C12 7469   5.243   1.056   9.731  0.0898 -0.8199  0.2656
   68CHL1  H12A 7470   5.286   1.153   9.697  2.3418 -1.9514 -0.3029
   68CHL1  H12B 7471   5.133   1.043   9.723 -0.0132  0.4834 -0.9782
   68CHL1   C11 7472   5.284   1.048   9.884  0.5882  0.0912  1.0894
   68CHL1  H11A 7473   5.384   1.094   9.897  0.7718 -0.0323  0.2241
   68CHL1  H11B 7474   5.211   1.116   9.934  0.4306 -0.5418  1.7318
   68CHL1    C9 7475   5.269   0.915   9.959  0.0030  0.7771 -0.6273
   68CHL1    H9 7476   5.160   0.897   9.964  0.2541 -0.6160  0.1674
   68CHL1   C10 7477   5.306   0.912  10.113  0.0092  0.3017  0.4792
   68CHL1   C19 7478   5.440   0.970  10.131 -0.8327  0.2846 -0.3956
   68CHL1  H19A 7479   5.484   0.956  10.232 -0.1932  2.8273 -0.2565
   68CHL1  H19B 7480   5.520   0.926  10.067  1.5240 -1.0426  3.1531
   68CHL1  H19C 7481   5.449   1.078  10.107 -1.7578  0.8933  1.7670
   68CHL1    C1 7482   5.210   0.993  10.196 -0.0667  0.2670  0.4319
   68CHL1   H1A 7483   5.224   1.100  10.169  2.4601 -0.0280  0.3102
   68CHL1   H1B 7484   5.107   0.967  10.162  0.8280  0.0505 -2.4110
   68CHL1    C2 7485   5.224   0.991  10.344  0.5007  0.4206  0.6717
   68CHL1   H2A 7486   5.150   1.056  10.395 -1.6195 -1.6048  0.3446
   68CHL1   H2B 7487   5.326   1.023  10.376  0.5943  0.5624  0.2428
   68CHL1   C20 7488   5.299   0.984   9.390 -0.2324  0.0975 -0.5397
   68CHL1   H20 7489   5.409   0.971   9.386 -0.3572 -2.8355  1.8142
   68CHL1   C21 7490   5.258   1.126   9.406 -0.1081 -0.6822  0.3448
   68CHL1  H21A 7491   5.297   1.188   9.323  0.5165  0.7050  1.6199
   68CHL1  H21B 7492   5.290   1.173   9.502 -0.1907 -0.0253  0.0568
   68CHL1  H21C 7493   5.148   1.125   9.387 -0.0233  2.8462 -1.0879
   68CHL1   C22 7494   5.237   0.926   9.257  0.3967  0.2408 -0.0631
   68CHL1  H22A 7495   5.268   0.819   9.247 -2.3576 -0.7269  0.7738
   68CHL1  H22B 7496   5.126   0.922   9.256  0.3806  0.2008  1.2125
   68CHL1   C23 7497   5.289   0.992   9.124 -0.9189  0.1114  0.2388
   68CHL1  H23A 7498   5.265   1.099   9.107  0.2701  0.4636  0.7400
   68CHL1  H23B 7499   5.398   0.971   9.122 -0.5891  1.7062  0.4985
   68CHL1   C24 7500   5.221   0.929   9.001  0.2819  0.2426  0.1231
   68CHL1  H24A 7501   5.261   0.830   8.973  1.3052  0.3038  1.2802
   68CHL1  H24B 7502   5.112   0.930   9.023  0.2445  1.0596 -0.0446
   68CHL1   C25 7503   5.228   1.000   8.864 -0.2479 -0.1892 -0.3791
   68CHL1   H25 7504   5.327   1.046   8.840  0.1271 -0.5297  0.4922
   68CHL1   C26 7505   5.204   0.902   8.749  0.4034  0.3388  0.3042
   68CHL1  H26A 7506   5.279   0.820   8.749  0.8452  0.7299 -0.3716
   68CHL1  H26B 7507   5.101   0.862   8.758  0.9257 -1.9045 -2.4836
   68CHL1  H26C 7508   5.207   0.944   8.646  1.2183 -2.2323 -0.7901
   68CHL1   C27 7509   5.134   1.124   8.849  0.3075  0.3109 -0.1485
   68CHL1  H27A 7510   5.122   1.159   8.744 -0.5845  0.9963  0.1735
   68CHL1  H27B 7511   5.034   1.102   8.891  0.4948  1.9390  1.2807
   68CHL1  H27C 7512   5.162   1.210   8.914 -2.9200  0.9833  0.5426
   69CHL1    C3 7513   6.301   3.825   6.767  0.5013  0.2594 -0.3711
   69CHL1    H3 7514   6.394   3.838   6.826 -0.8696  0.3490  1.9050
   69CHL1    O3 7515   6.333   3.858   6.632  0.4212 -0.8187 -0.5798
   69CHL1   H3' 7516   6.264   3.823   6.574 -0.1084  2.8012 -2.4286
   69CHL1    C4 7517   6.262   3.674   6.767  0.1185 -0.0483 -0.3264
   69CHL1   H4A 7518   6.182   3.628   6.705  0.0794 -1.3133  0.6149
   69CHL1   H4B 7519   6.352   3.625   6.723  1.1253  0.4663  1.0914
   69CHL1    C5 7520   6.234   3.622   6.903  0.8752 -0.0603 -0.1626
   69CHL1    C6 7521   6.304   3.523   6.963  0.9282 -0.2097  0.2349
   69CHL1    H6 7522   6.381   3.473   6.902 -0.0988 -0.8385 -0.5795
   69CHL1    C7 7523   6.290   3.471   7.104 -0.1803 -0.3085 -0.1268
   69CHL1   H7A 7524   6.284   3.360   7.114  0.7862 -0.6767 -2.7652
   69CHL1   H7B 7525   6.374   3.518   7.159 -0.7139 -1.3828  1.7133
   69CHL1    C8 7526   6.161   3.525   7.175  0.3429  0.2146  0.6868
   69CHL1    H8 7527   6.082   3.455   7.139 -0.0287  1.3285 -0.7353
   69CHL1   C14 7528   6.167   3.515   7.323  0.2667  0.4390 -0.0211
   69CHL1   H14 7529   6.244   3.585   7.362 -1.1781  1.8823  0.3200
   69CHL1   C15 7530   6.223   3.380   7.380  0.2470  0.3755  0.4452
   69CHL1  H15A 7531   6.167   3.292   7.342  1.9446  0.3013 -2.1483
   69CHL1  H15B 7532   6.332   3.369   7.362  0.1246 -1.8624  0.7933
   69CHL1   C16 7533   6.191   3.406   7.529  0.0811 -0.8419 -0.4989
   69CHL1  H16A 7534   6.141   3.312   7.562 -0.4394 -0.2206  0.5084
   69CHL1  H16B 7535   6.284   3.423   7.589 -0.3738  1.0973 -0.2849
   69CHL1   C17 7536   6.093   3.528   7.543  1.1920  0.3175 -0.6658
   69CHL1   H17 7537   6.161   3.612   7.569 -0.6152  1.3347  1.0121
   69CHL1   C13 7538   6.042   3.554   7.399  0.2290 -0.5912  0.4151
   69CHL1   C18 7539   5.926   3.455   7.377  0.0335 -0.0187  0.6644
   69CHL1  H18A 7540   5.937   3.355   7.424  0.3047 -1.1646 -1.7162
   69CHL1  H18B 7541   5.834   3.497   7.422 -0.6177 -0.8377  0.1214
   69CHL1  H18C 7542   5.912   3.439   7.268 -0.0454 -2.8662  1.0173
   69CHL1   C12 7543   6.016   3.706   7.365  0.4225 -0.8867 -0.4983
   69CHL1  H12A 7544   5.923   3.735   7.418 -0.0576 -1.0708 -1.2275
   69CHL1  H12B 7545   6.093   3.777   7.403 -0.8924 -0.9652  2.5623
   69CHL1   C11 7546   6.004   3.713   7.213 -0.9506  0.2280 -0.3663
   69CHL1  H11A 7547   5.916   3.652   7.183 -0.1584 -0.1853 -1.8955
   69CHL1  H11B 7548   5.963   3.815   7.196 -3.0835 -0.7584 -1.6211
   69CHL1    C9 7549   6.129   3.675   7.141  0.6779 -0.6124  0.1292
   69CHL1    H9 7550   6.215   3.733   7.182 -0.5400 -0.0181  1.9667
   69CHL1   C10 7551   6.128   3.696   6.983  0.3571 -0.3131 -0.3595
   69CHL1   C19 7552   5.991   3.648   6.926 -0.3549 -0.3155  0.1222
   69CHL1  H19A 7553   5.977   3.542   6.956  0.6157 -0.4363  0.1862
   69CHL1  H19B 7554   5.902   3.697   6.971 -1.3502 -2.3696  0.4989
   69CHL1  H19C 7555   5.985   3.656   6.816  3.6785  1.2357 -0.1551
   69CHL1    C1 7556   6.145   3.857   6.960 -0.6120  0.7996  0.3258
   69CHL1   H1A 7557   6.050   3.902   6.996 -1.0054  0.3925 -0.1818
   69CHL1   H1B 7558   6.230   3.901   7.017 -0.8480  1.8474 -0.1144
   69CHL1    C2 7559   6.176   3.901   6.813  0.3650  0.2942 -0.0159
   69CHL1   H2A 7560   6.189   4.011   6.799  0.2851  0.3180  0.0925
   69CHL1   H2B 7561   6.095   3.872   6.741  0.8545  0.0643 -0.4809
   69CHL1   C20 7562   5.991   3.516   7.658 -0.2832  0.3613  0.0670
   69CHL1   H20 7563   5.912   3.442   7.632 -0.4127  0.2866  0.6608
   69CHL1   C21 7564   5.926   3.659   7.681 -0.0229 -0.1931  0.4462
   69CHL1  H21A 7565   6.005   3.735   7.667  1.2180 -1.7428 -1.6172
   69CHL1  H21B 7566   5.877   3.659   7.780  0.9578  2.8093  1.0251
   69CHL1  H21C 7567   5.851   3.676   7.600  1.6769  1.3205 -0.9034
   69CHL1   C22 7568   6.060   3.478   7.794 -0.2992  0.4265 -0.2932
   69CHL1  H22A 7569   6.148   3.410   7.786  0.5562  1.0255  2.7794
   69CHL1  H22B 7570   6.096   3.574   7.835 -1.4024  1.9272 -2.6034
   69CHL1   C23 7571   5.964   3.400   7.884  0.1693  0.4296 -1.0170
   69CHL1  H23A 7572   5.898   3.479   7.926  0.5391 -0.0696  0.5866
   69CHL1  H23B 7573   5.889   3.340   7.827 -1.3232 -0.1235  1.3578
   69CHL1   C24 7574   6.032   3.328   8.002  0.7399 -0.0923 -0.7236
   69CHL1  H24A 7575   6.090   3.237   7.973  1.5743  0.6695 -1.5010
   69CHL1  H24B 7576   6.105   3.401   8.044  0.1526  0.0588  0.0647
   69CHL1   C25 7577   5.940   3.308   8.130  0.0302  0.2009  0.0800
   69CHL1   H25 7578   5.931   3.410   8.173  3.0441  1.0106 -0.9551
   69CHL1   C26 7579   5.802   3.251   8.108 -0.3144 -0.3388  0.3248
   69CHL1  H26A 7580   5.738   3.265   8.197  1.5263 -0.0237  1.6586
   69CHL1  H26B 7581   5.757   3.294   8.017 -0.4806 -0.4701  0.3435
   69CHL1  H26C 7582   5.825   3.143   8.094  0.8855  0.0100 -0.6305
   69CHL1   C27 7583   6.018   3.212   8.227 -0.3943  0.6673 -0.2503
   69CHL1  H27A 7584   6.104   3.268   8.270  0.5994  0.0628 -1.3540
   69CHL1  H27B 7585   5.950   3.183   8.310 -0.6189 -0.4360 -0.8010
   69CHL1  H27C 7586   6.048   3.118   8.175 -2.1771  0.4909 -1.0239
   70CHL1    C3 7587   1.199   6.826   6.927 -0.4585  0.4021 -0.2770
   70CHL1    H3 7588   1.299   6.837   6.975  0.2657  0.0872 -1.6796
   70CHL1    O3 7589   1.214   6.830   6.786 -0.5377 -0.0101 -0.0157
   70CHL1   H3' 7590   1.241   6.740   6.768 -1.3276 -0.0821 -0.9218
   70CHL1    C4 7591   1.120   6.699   6.964  0.0527  0.0963  0.5318
   70CHL1   H4A 7592   1.029   6.685   6.901  0.5789 -3.2064  0.3064
   70CHL1   H4B 7593   1.190   6.619   6.932  0.5881  0.9018 -0.3544
   70CHL1    C5 7594   1.086   6.694   7.112  0.1366 -0.6815  0.4468
   70CHL1    C6 7595   1.130   6.601   7.195 -0.5814  0.6021  0.3698
   70CHL1    H6 7596   1.197   6.520   7.164 -0.5128  0.9887 -0.5366
   70CHL1    C7 7597   1.090   6.584   7.341 -0.2490 -0.3746 -0.3541
   70CHL1   H7A 7598   1.045   6.485   7.363 -0.2259 -0.4638 -0.7031
   70CHL1   H7B 7599   1.175   6.600   7.410 -0.9664  0.1421  0.4369
   70CHL1    C8 7600   0.974   6.679   7.375 -0.3653  0.5314  0.3317
   70CHL1    H8 7601   0.887   6.634   7.322  1.4036 -0.7880 -1.5652
   70CHL1   C14 7602   0.961   6.690   7.528  0.1409  0.1996  0.3150
   70CHL1   H14 7603   1.053   6.743   7.563 -0.7964  1.4736  0.9279
   70CHL1   C15 7604   0.955   6.557   7.611 -0.4159 -0.7072  0.2701
   70CHL1  H15A 7605   0.884   6.483   7.566  1.0134 -0.4929 -2.5802
   70CHL1  H15B 7606   1.056   6.512   7.625  1.0554  2.5843  1.0705
   70CHL1   C16 7607   0.905   6.607   7.744  0.0488  0.0036  0.3683
   70CHL1  H16A 7608   0.822   6.547   7.786  0.7560 -2.5500 -1.6496
   70CHL1  H16B 7609   0.979   6.608   7.828  0.2336  1.1994  0.2208
   70CHL1   C17 7610   0.864   6.755   7.725  0.1245 -0.9659 -0.2026
   70CHL1   H17 7611   0.951   6.816   7.758 -0.3429 -0.5680  0.3190
   70CHL1   C13 7612   0.849   6.783   7.572  1.0872 -0.1989  0.3373
   70CHL1   C18 7613   0.711   6.727   7.530  0.2799 -0.3272  0.6563
   70CHL1  H18A 7614   0.629   6.780   7.583  0.4557  0.3906  0.2210
   70CHL1  H18B 7615   0.694   6.749   7.422  1.9485  1.6118  0.7392
   70CHL1  H18C 7616   0.694   6.618   7.547 -2.1368 -0.0208  0.5693
   70CHL1   C12 7617   0.880   6.927   7.526 -0.3733 -0.3909 -0.3136
   70CHL1  H12A 7618   0.794   6.997   7.539 -0.7778 -0.6218 -1.5755
   70CHL1  H12B 7619   0.971   6.958   7.581 -0.2408 -1.4586  0.1047
   70CHL1   C11 7620   0.900   6.930   7.377 -0.3814  0.1678  0.1183
   70CHL1  H11A 7621   0.799   6.912   7.333 -0.8973  1.6942  0.5984
   70CHL1  H11B 7622   0.933   7.033   7.350 -0.3865  0.2822  0.5510
   70CHL1    C9 7623   0.999   6.820   7.319  0.2117 -0.3243  0.4054
   70CHL1    H9 7624   1.098   6.858   7.353  0.6073  1.3816 -2.3443
   70CHL1   C10 7625   1.003   6.816   7.167  0.0465 -0.3433  0.0331
   70CHL1   C19 7626   0.861   6.804   7.106  0.9748  0.2017  0.0484
   70CHL1  H19A 7627   0.804   6.724   7.157  1.2829  2.4762  4.3897
   70CHL1  H19B 7628   0.808   6.902   7.110 -1.3278 -0.7515 -3.0765
   70CHL1  H19C 7629   0.858   6.790   6.996  0.4760 -2.0877  0.3177
   70CHL1    C1 7630   1.073   6.951   7.115 -0.6624  0.5363 -0.1698
   70CHL1   H1A 7631   1.001   7.032   7.137  0.8102  1.7037  0.4782
   70CHL1   H1B 7632   1.157   6.956   7.187 -3.0292  0.0848  2.8075
   70CHL1    C2 7633   1.110   6.950   6.963  0.1564 -0.1779 -0.0589
   70CHL1   H2A 7634   1.163   7.043   6.931 -2.8648  1.8007  0.2841
   70CHL1   H2B 7635   1.016   6.933   6.905  0.4416  0.3820 -0.7013
   70CHL1   C20 7636   0.752   6.810   7.822 -0.1095  0.2442 -0.0608
   70CHL1   H20 7637   0.658   6.760   7.789  0.1956  1.0824 -2.3598
   70CHL1   C21 7638   0.738   6.954   7.804 -0.5720 -0.3667 -0.2044
   70CHL1  H21A 7639   0.689   6.965   7.705 -1.2685  0.8632  0.2573
   70CHL1  H21B 7640   0.838   6.998   7.819 -0.1294 -1.7348  1.0654
   70CHL1  H21C 7641   0.688   7.009   7.886 -0.7936  0.3487 -0.8108
   70CHL1   C22 7642   0.788   6.781   7.966 -0.2441 -0.0369 -0.1956
   70CHL1  H22A 7643   0.791   6.670   7.973  0.8064 -0.0561 -0.7069
   70CHL1  H22B 7644   0.889   6.813   7.999 -0.4087 -0.9246  1.2619
   70CHL1   C23 7645   0.687   6.829   8.072 -0.6264  0.5207 -0.0045
   70CHL1  H23A 7646   0.691   6.940   8.080 -0.9969  0.4775  0.9195
   70CHL1  H23B 7647   0.583   6.801   8.043 -0.7772 -0.8519  1.7277
   70CHL1   C24 7648   0.710   6.771   8.208  0.4440 -1.1492 -0.3472
   70CHL1  H24A 7649   0.664   6.670   8.201  1.2152 -1.5937  0.7991
   70CHL1  H24B 7650   0.819   6.765   8.228  0.4330  0.6327  0.4490
   70CHL1   C25 7651   0.650   6.868   8.318 -0.6513 -0.3298  0.1789
   70CHL1   H25 7652   0.692   6.968   8.292  0.4651 -1.1552 -1.3359
   70CHL1   C26 7653   0.497   6.876   8.319 -0.0321 -0.0890  0.6543
   70CHL1  H26A 7654   0.469   6.953   8.394 -1.5065 -0.0666  0.1123
   70CHL1  H26B 7655   0.460   6.920   8.224 -0.3137 -0.4158  0.6135
   70CHL1  H26C 7656   0.444   6.782   8.344 -0.2920  0.1026  0.8364
   70CHL1   C27 7657   0.702   6.823   8.455  0.0279 -0.7939  0.0502
   70CHL1  H27A 7658   0.666   6.719   8.476 -1.1360 -0.6140 -0.9397
   70CHL1  H27B 7659   0.813   6.818   8.452  0.3955  3.8525 -0.8317
   70CHL1  H27C 7660   0.672   6.892   8.537 -1.5679 -1.9524  0.4997
   71CHL1    C3 7661   2.533   3.004   6.895 -0.6469 -0.3453 -0.3232
   71CHL1    H3 7662   2.585   2.910   6.922  2.1013  0.8684 -1.0307
   71CHL1    O3 7663   2.467   3.003   6.768  0.2962 -0.0033 -0.2534
   71CHL1   H3' 7664   2.498   3.080   6.720 -0.6458 -0.1181 -1.0775
   71CHL1    C4 7665   2.433   3.046   7.002 -0.3914  0.6836 -0.3585
   71CHL1   H4A 7666   2.370   3.128   6.962  0.5865  1.7892  0.3026
   71CHL1   H4B 7667   2.372   2.954   7.017 -0.6989  0.8629 -0.4961
   71CHL1    C5 7668   2.511   3.078   7.130  0.0291 -0.0655 -0.1230
   71CHL1    C6 7669   2.474   3.019   7.248 -0.1219  0.4128  0.0716
   71CHL1    H6 7670   2.391   2.949   7.265  0.4748 -0.5241 -0.8120
   71CHL1    C7 7671   2.525   3.061   7.380 -0.5370 -0.3239 -0.7791
   71CHL1   H7A 7672   2.444   3.071   7.456  0.0685 -1.2451  0.0251
   71CHL1   H7B 7673   2.583   2.974   7.418 -0.2785  0.0072 -0.4043
   71CHL1    C8 7674   2.607   3.189   7.375  0.0872 -0.4291  0.0883
   71CHL1    H8 7675   2.546   3.282   7.381  1.7138  0.8194 -1.4496
   71CHL1   C14 7676   2.702   3.196   7.498 -0.2553  0.6727  0.8102
   71CHL1   H14 7677   2.783   3.120   7.487  1.5561  2.6515 -0.3724
   71CHL1   C15 7678   2.637   3.171   7.631  0.3702  0.2228 -0.1652
   71CHL1  H15A 7679   2.538   3.223   7.635  0.5347  0.6576 -1.4296
   71CHL1  H15B 7680   2.622   3.062   7.645  1.2247 -0.1146 -1.7739
   71CHL1   C16 7681   2.753   3.215   7.723  0.2328 -0.6404 -0.5596
   71CHL1  H16A 7682   2.719   3.282   7.806  2.2425 -0.1307 -0.0921
   71CHL1  H16B 7683   2.811   3.132   7.767  1.0702  0.7820  1.1546
   71CHL1   C17 7684   2.859   3.295   7.645 -0.0862 -0.4500  0.2312
   71CHL1   H17 7685   2.951   3.234   7.630  0.1064  0.2886 -1.9788
   71CHL1   C13 7686   2.787   3.323   7.507  0.0202 -0.1338  0.0728
   71CHL1   C18 7687   2.702   3.450   7.520  0.1780  0.0703  0.5809
   71CHL1  H18A 7688   2.645   3.457   7.615  0.5491 -0.5644  0.8588
   71CHL1  H18B 7689   2.777   3.532   7.514  1.6252 -1.2752 -0.7001
   71CHL1  H18C 7690   2.628   3.470   7.439  0.8532 -2.1394 -0.6558
   71CHL1   C12 7691   2.872   3.337   7.381  0.0163  0.1930 -0.2588
   71CHL1  H12A 7692   2.921   3.437   7.387  0.1118  0.1279  0.0693
   71CHL1  H12B 7693   2.944   3.253   7.382  1.8212  1.6843  0.1736
   71CHL1   C11 7694   2.791   3.325   7.250 -0.0823 -0.2305 -0.4146
   71CHL1  H11A 7695   2.738   3.423   7.249  2.2970  1.1624  0.6690
   71CHL1  H11B 7696   2.851   3.320   7.156 -0.6171  0.2320 -0.7908
   71CHL1    C9 7697   2.702   3.200   7.251  0.0821 -0.3495 -1.0882
   71CHL1    H9 7698   2.768   3.111   7.261  1.5047  0.8369  0.5325
   71CHL1   C10 7699   2.628   3.179   7.116  0.3242 -0.4628  0.0885
   71CHL1   C19 7700   2.563   3.318   7.077  1.1371 -0.2426 -0.7814
   71CHL1  H19A 7701   2.513   3.360   7.167  3.1654 -1.6905  1.1507
   71CHL1  H19B 7702   2.645   3.381   7.038  1.9397 -1.6598 -1.4864
   71CHL1  H19C 7703   2.494   3.302   6.992  2.6262 -0.3586 -2.0168
   71CHL1    C1 7704   2.730   3.139   7.003  0.0053  0.5703 -0.0016
   71CHL1   H1A 7705   2.816   3.205   6.980 -0.3365  1.1000  0.2211
   71CHL1   H1B 7706   2.773   3.044   7.041 -1.3431  0.0529  0.2588
   71CHL1    C2 7707   2.652   3.109   6.871 -0.5016  0.1730  0.1586
   71CHL1   H2A 7708   2.715   3.078   6.785  1.1159  1.1797  0.9253
   71CHL1   H2B 7709   2.620   3.210   6.837 -1.9369 -0.2243  0.2753
   71CHL1   C20 7710   2.901   3.419   7.737 -0.2015 -0.8072 -0.3243
   71CHL1   H20 7711   2.812   3.483   7.726  1.9364  2.1156 -1.9014
   71CHL1   C21 7712   3.024   3.485   7.681  0.5706  0.1804 -0.0894
   71CHL1  H21A 7713   3.029   3.584   7.731  0.7014 -1.1601  2.7617
   71CHL1  H21B 7714   3.008   3.502   7.572 -3.1094  3.2333  0.7435
   71CHL1  H21C 7715   3.117   3.429   7.706  1.1512  0.7795 -0.8277
   71CHL1   C22 7716   2.933   3.397   7.890  0.7320  0.0019 -0.3752
   71CHL1  H22A 7717   2.846   3.339   7.930  1.0570 -1.7968 -2.1263
   71CHL1  H22B 7718   3.014   3.323   7.905  1.0492  0.8292  2.7424
   71CHL1   C23 7719   2.955   3.515   7.973  0.1090 -0.3253 -0.0563
   71CHL1  H23A 7720   3.035   3.576   7.925 -1.0752  0.2539 -1.3692
   71CHL1  H23B 7721   2.866   3.580   7.977 -0.0460 -0.5875  1.1443
   71CHL1   C24 7722   2.997   3.472   8.119  0.6086 -0.3486 -0.1758
   71CHL1  H24A 7723   2.925   3.395   8.155 -0.0231 -0.4082 -1.4934
   71CHL1  H24B 7724   3.096   3.420   8.119  1.2594  0.8065  1.1331
   71CHL1   C25 7725   3.016   3.589   8.224  0.0163 -0.3192  0.6768
   71CHL1   H25 7726   2.910   3.622   8.222 -0.6712 -1.9745 -4.5276
   71CHL1   C26 7727   3.052   3.549   8.368 -0.4332  0.2151 -0.3913
   71CHL1  H26A 7728   3.019   3.634   8.432 -0.7200  0.2790 -0.6212
   71CHL1  H26B 7729   2.983   3.464   8.381 -0.1684  0.0548 -0.0410
   71CHL1  H26C 7730   3.159   3.522   8.380 -0.2973  1.4516  1.5593
   71CHL1   C27 7731   3.115   3.694   8.165 -0.4456 -0.4562 -0.3614
   71CHL1  H27A 7732   3.062   3.744   8.081  1.9698  0.7650 -1.2541
   71CHL1  H27B 7733   3.149   3.768   8.241 -2.7060  0.6246 -0.3113
   71CHL1  H27C 7734   3.199   3.646   8.111  1.4572 -0.6575  2.5718
   72CHL1    C3 7735   4.123   1.627   7.147  0.1484  0.0431 -0.1675
   72CHL1    H3 7736   4.024   1.653   7.191  0.5333  0.6712  0.3559
   72CHL1    O3 7737   4.109   1.617   7.007  0.2132  0.5451  0.2929
   72CHL1   H3' 7738   4.175   1.554   6.976 -0.0399  1.0202 -1.3147
   72CHL1    C4 7739   4.235   1.724   7.180 -0.6820 -0.0467  0.0992
   72CHL1   H4A 7740   4.320   1.684   7.120 -0.3636 -0.6589  0.9311
   72CHL1   H4B 7741   4.202   1.824   7.146  1.4467  0.6023 -0.2331
   72CHL1    C5 7742   4.263   1.732   7.328  0.3281  0.1402 -0.0304
   72CHL1    C6 7743   4.258   1.847   7.388 -0.0334  0.4360  0.4637
   72CHL1    H6 7744   4.252   1.941   7.330 -0.8135 -0.3267 -0.7297
   72CHL1    C7 7745   4.287   1.858   7.537  0.0378 -0.5426  0.0140
   72CHL1   H7A 7746   4.347   1.946   7.568  2.2364 -2.5081  1.6507
   72CHL1   H7B 7747   4.194   1.862   7.597  0.2406 -0.1261  0.3078
   72CHL1    C8 7748   4.362   1.739   7.601  0.7859 -0.1730  0.0154
   72CHL1    H8 7749   4.468   1.750   7.569  0.9634 -1.8083 -0.0058
   72CHL1   C14 7750   4.355   1.741   7.750  0.5512  1.2902 -0.2786
   72CHL1   H14 7751   4.247   1.733   7.776  0.2774 -1.3025 -1.8398
   72CHL1   C15 7752   4.392   1.866   7.819 -0.0546 -0.4952 -0.2599
   72CHL1  H15A 7753   4.491   1.899   7.780  0.3932  0.4237  1.5479
   72CHL1  H15B 7754   4.307   1.936   7.808 -1.3597 -1.8245  0.9244
   72CHL1   C16 7755   4.413   1.830   7.963 -0.0518 -0.3393 -0.4429
   72CHL1  H16A 7756   4.521   1.850   7.979  0.1199 -0.0884 -1.8109
   72CHL1  H16B 7757   4.340   1.879   8.031  1.5197  0.5523  0.6706
   72CHL1   C17 7758   4.399   1.673   7.974  0.3964  0.2653 -0.0253
   72CHL1   H17 7759   4.295   1.643   7.996  0.7070 -0.7207  0.1493
   72CHL1   C13 7760   4.422   1.627   7.830  0.2898 -0.3990  0.3557
   72CHL1   C18 7761   4.583   1.628   7.796  0.5844 -0.3316 -0.1090
   72CHL1  H18A 7762   4.613   1.619   7.689  1.4825 -0.6156  0.1605
   72CHL1  H18B 7763   4.618   1.723   7.842 -1.0187 -0.7237  2.1149
   72CHL1  H18C 7764   4.619   1.537   7.848 -0.2491 -1.4246 -1.3659
   72CHL1   C12 7765   4.343   1.508   7.790  0.0948  0.1984  0.6791
   72CHL1  H12A 7766   4.396   1.418   7.827  0.5140 -0.6531 -1.7506
   72CHL1  H12B 7767   4.241   1.506   7.833 -0.5036 -0.5521 -0.7149
   72CHL1   C11 7768   4.343   1.491   7.629  0.2735  0.6549  0.1270
   72CHL1  H11A 7769   4.449   1.467   7.604 -0.0132  0.8801 -1.3845
   72CHL1  H11B 7770   4.280   1.401   7.609  1.7573  0.3158 -4.1874
   72CHL1    C9 7771   4.297   1.612   7.551 -0.0866  0.2159  0.1957
   72CHL1    H9 7772   4.191   1.618   7.583 -0.7675 -0.9877 -1.6760
   72CHL1   C10 7773   4.291   1.596   7.399  0.2855  0.5070 -0.3115
   72CHL1   C19 7774   4.424   1.534   7.351  0.0670  0.4927  0.7753
   72CHL1  H19A 7775   4.511   1.585   7.398  1.2623 -0.9641  0.2234
   72CHL1  H19B 7776   4.439   1.427   7.376  0.8039  0.8694  2.0301
   72CHL1  H19C 7777   4.437   1.537   7.241  0.8750 -0.4773  0.8332
   72CHL1    C1 7778   4.179   1.493   7.356  0.3926  0.0918  0.2630
   72CHL1   H1A 7779   4.203   1.393   7.398  2.2071  1.3761  2.4778
   72CHL1   H1B 7780   4.087   1.523   7.410 -0.6070  0.1196 -1.3833
   72CHL1    C2 7781   4.158   1.493   7.209  0.1230  0.0228  0.2908
   72CHL1   H2A 7782   4.075   1.423   7.186  0.0244  0.5469 -1.0723
   72CHL1   H2B 7783   4.247   1.448   7.160  1.1561  0.2177  1.9249
   72CHL1   C20 7784   4.486   1.606   8.085  0.2895 -0.1591  0.3141
   72CHL1   H20 7785   4.590   1.603   8.046 -0.2576 -0.4267 -1.1789
   72CHL1   C21 7786   4.421   1.466   8.110 -0.2793 -0.2513  0.5284
   72CHL1  H21A 7787   4.314   1.480   8.138 -0.1901 -1.6479  1.7293
   72CHL1  H21B 7788   4.484   1.423   8.191  0.5921  1.6458  0.9160
   72CHL1  H21C 7789   4.428   1.403   8.018  2.8359 -0.6634  0.9598
   72CHL1   C22 7790   4.490   1.684   8.219 -0.8713 -0.4702  0.9776
   72CHL1  H22A 7791   4.519   1.791   8.204 -2.7155 -0.2339 -1.5532
   72CHL1  H22B 7792   4.391   1.689   8.269 -1.3077 -0.8294  0.1526
   72CHL1   C23 7793   4.589   1.628   8.328 -0.8032  0.6236  0.7380
   72CHL1  H23A 7794   4.557   1.527   8.363  0.3219 -0.9566 -2.3873
   72CHL1  H23B 7795   4.682   1.608   8.270 -1.5060 -0.7674  0.0389
   72CHL1   C24 7796   4.621   1.732   8.431 -1.1815 -1.0664 -0.2630
   72CHL1  H24A 7797   4.655   1.821   8.373  0.2870 -0.6990  1.0823
   72CHL1  H24B 7798   4.538   1.775   8.490  1.6264  1.1670  2.3798
   72CHL1   C25 7799   4.727   1.689   8.536 -0.0291  0.2374 -0.0803
   72CHL1   H25 7800   4.811   1.640   8.482  1.2091  0.5125  1.5340
   72CHL1   C26 7801   4.765   1.813   8.614  0.0186  0.3083  0.1400
   72CHL1  H26A 7802   4.826   1.780   8.700 -1.1531 -2.1816  0.0908
   72CHL1  H26B 7803   4.833   1.886   8.564 -0.0991  1.5037  1.6852
   72CHL1  H26C 7804   4.676   1.872   8.642 -0.7056 -0.3585 -0.7099
   72CHL1   C27 7805   4.662   1.584   8.625  0.5286 -0.5625  0.1575
   72CHL1  H27A 7806   4.738   1.560   8.703 -1.4196  1.2206  2.7662
   72CHL1  H27B 7807   4.574   1.622   8.681  0.6306 -3.3506  2.4171
   72CHL1  H27C 7808   4.641   1.488   8.574 -0.7990 -0.3303  0.2371
   73CHL1    C3 7809   3.310   5.089   6.981  0.9272  0.3245  0.1683
   73CHL1    H3 7810   3.421   5.075   6.980  1.5402  3.8895 -2.5161
   73CHL1    O3 7811   3.278   5.151   6.853 -0.6490 -0.0173 -0.0361
   73CHL1   H3' 7812   3.184   5.166   6.850 -1.0553 -2.1624 -3.0590
   73CHL1    C4 7813   3.237   4.962   6.989  1.2094  0.1178  0.2769
   73CHL1   H4A 7814   3.128   4.983   6.983  1.0825 -0.7265 -0.6579
   73CHL1   H4B 7815   3.255   4.902   6.897  0.2480 -0.5138  0.4946
   73CHL1    C5 7816   3.267   4.890   7.118 -0.1326  0.5780  0.3060
   73CHL1    C6 7817   3.331   4.764   7.116  0.0910  0.0955 -0.1281
   73CHL1    H6 7818   3.356   4.719   7.019  0.5879  0.3457 -0.1210
   73CHL1    C7 7819   3.335   4.691   7.249 -0.1142 -0.2941  0.2796
   73CHL1   H7A 7820   3.291   4.592   7.227 -2.3338  0.9577 -1.2845
   73CHL1   H7B 7821   3.439   4.679   7.285 -0.3245  0.2204  1.0962
   73CHL1    C8 7822   3.262   4.762   7.371 -0.0904 -0.2921 -0.6898
   73CHL1    H8 7823   3.152   4.747   7.364  0.0785 -0.9737 -1.9575
   73CHL1   C14 7824   3.309   4.695   7.503 -0.4846 -0.7945 -0.3791
   73CHL1   H14 7825   3.419   4.710   7.497 -0.6242  0.3536 -0.3562
   73CHL1   C15 7826   3.283   4.543   7.517  0.5370  0.9173 -0.3213
   73CHL1  H15A 7827   3.190   4.501   7.473 -0.6603  1.6925  1.3646
   73CHL1  H15B 7828   3.366   4.479   7.478 -1.5623 -2.9243  0.9304
   73CHL1   C16 7829   3.290   4.519   7.673 -0.8027  0.0617 -0.0250
   73CHL1  H16A 7830   3.205   4.460   7.711  0.6801 -1.2816  1.3415
   73CHL1  H16B 7831   3.389   4.471   7.689 -0.4060 -0.1377 -2.6154
   73CHL1   C17 7832   3.289   4.667   7.741 -0.7223  0.2937  0.0326
   73CHL1   H17 7833   3.396   4.690   7.764 -0.7429 -0.0976  0.5477
   73CHL1   C13 7834   3.245   4.763   7.628  0.1820  0.7096  0.2261
   73CHL1   C18 7835   3.091   4.752   7.622 -0.6812 -0.5660  0.2075
   73CHL1  H18A 7836   3.059   4.786   7.521 -1.1499  1.8236  1.1149
   73CHL1  H18B 7837   3.044   4.652   7.635 -1.5489 -0.0138  1.5374
   73CHL1  H18C 7838   3.039   4.826   7.686 -0.3688  1.4822 -1.7953
   73CHL1   C12 7839   3.305   4.909   7.635  1.0400  0.0945  0.0920
   73CHL1  H12A 7840   3.273   4.952   7.733 -0.9833 -2.3209  0.6231
   73CHL1  H12B 7841   3.414   4.893   7.623  1.0130  0.5639 -0.9080
   73CHL1   C11 7842   3.260   4.987   7.508 -0.2634  0.0051  0.2320
   73CHL1  H11A 7843   3.152   5.011   7.508 -0.2073  0.2799  0.9636
   73CHL1  H11B 7844   3.314   5.084   7.505  1.8890 -1.0751  1.2079
   73CHL1    C9 7845   3.297   4.907   7.370  0.2314 -0.3221 -0.0039
   73CHL1    H9 7846   3.408   4.911   7.363  0.3533  0.2957  1.7886
   73CHL1   C10 7847   3.243   4.976   7.245  1.0259 -0.3382  0.3319
   73CHL1   C19 7848   3.087   5.011   7.257 -0.0593 -0.0423 -0.7012
   73CHL1  H19A 7849   3.086   5.099   7.324  0.1668 -0.2684 -0.3959
   73CHL1  H19B 7850   3.040   5.048   7.164 -0.3751 -1.1550 -0.9952
   73CHL1  H19C 7851   3.026   4.925   7.293 -1.7064  1.7991  1.1220
   73CHL1    C1 7852   3.315   5.111   7.227 -0.4219  0.6683 -0.5098
   73CHL1   H1A 7853   3.283   5.177   7.311  2.1965 -2.2494  3.1008
   73CHL1   H1B 7854   3.423   5.092   7.241 -0.6366  0.5158  1.1442
   73CHL1    C2 7855   3.286   5.177   7.097  0.4375  0.3338 -0.2794
   73CHL1   H2A 7856   3.350   5.267   7.085  0.3569  0.4634  0.2359
   73CHL1   H2B 7857   3.178   5.201   7.098  0.3006 -0.0773  2.1476
   73CHL1   C20 7858   3.214   4.663   7.877 -1.1140  0.3658  0.2628
   73CHL1   H20 7859   3.112   4.622   7.857 -0.8578 -1.3016  2.0751
   73CHL1   C21 7860   3.215   4.802   7.933  0.4511  0.4143 -0.5198
   73CHL1  H21A 7861   3.178   4.814   8.037 -1.6806 -0.5094 -1.1236
   73CHL1  H21B 7862   3.148   4.862   7.867  0.9548  1.8696  0.2607
   73CHL1  H21C 7863   3.321   4.832   7.946  0.4203  0.1324  0.4197
   73CHL1   C22 7864   3.291   4.559   7.970 -0.0645 -0.0751 -0.0097
   73CHL1  H22A 7865   3.296   4.461   7.918  2.6611  0.6148 -1.2301
   73CHL1  H22B 7866   3.396   4.584   7.994 -0.2547  0.1050  0.6527
   73CHL1   C23 7867   3.209   4.551   8.105 -0.2535  1.6639  0.2206
   73CHL1  H23A 7868   3.209   4.651   8.152 -2.4450  2.1277 -0.6440
   73CHL1  H23B 7869   3.105   4.523   8.077  0.6439 -1.1891 -0.7037
   73CHL1   C24 7870   3.252   4.441   8.203 -0.1123  0.3980 -0.5786
   73CHL1  H24A 7871   3.228   4.343   8.156  0.5515  0.0725 -0.2574
   73CHL1  H24B 7872   3.361   4.446   8.220  0.0972 -1.7417 -0.9878
   73CHL1   C25 7873   3.177   4.464   8.337 -0.7695 -0.4420 -0.3575
   73CHL1   H25 7874   3.218   4.558   8.380  1.3672 -1.5457  0.2016
   73CHL1   C26 7875   3.026   4.464   8.329  0.2649 -0.5236  0.4260
   73CHL1  H26A 7876   2.989   4.373   8.277  1.3374  0.1318 -1.6015
   73CHL1  H26B 7877   2.980   4.465   8.430  4.0493  0.6823  2.3111
   73CHL1  H26C 7878   2.983   4.554   8.279 -0.4024 -1.5878 -0.9748
   73CHL1   C27 7879   3.216   4.361   8.440 -0.0137  0.3365  1.0316
   73CHL1  H27A 7880   3.139   4.367   8.520 -1.0622 -0.4855  0.1032
   73CHL1  H27B 7881   3.197   4.261   8.396  0.0918  1.3178 -1.4199
   73CHL1  H27C 7882   3.322   4.367   8.474 -0.2031  2.9550  1.3618
   74CHL1    C3 7883   1.063   1.085   6.909  0.4776 -0.0755  0.8014
   74CHL1    H3 7884   0.978   1.014   6.913 -1.8372  2.4905  0.2870
   74CHL1    O3 7885   1.110   1.096   6.777 -0.5802  0.3299  0.0945
   74CHL1   H3' 7886   1.116   1.188   6.749  1.6304 -0.2192 -1.4569
   74CHL1    C4 7887   1.006   1.222   6.959 -0.5715 -0.5948  0.3339
   74CHL1   H4A 7888   1.083   1.296   6.926 -0.6889 -0.2607  0.7967
   74CHL1   H4B 7889   0.915   1.236   6.898 -0.4729  0.0455  0.3186
   74CHL1    C5 7890   0.973   1.223   7.107 -0.1442 -0.5762 -0.0872
   74CHL1    C6 7891   0.843   1.248   7.137  0.2178 -0.0105 -0.2148
   74CHL1    H6 7892   0.773   1.272   7.056  1.8083 -0.2186 -1.7337
   74CHL1    C7 7893   0.795   1.237   7.278  0.3209 -0.3871  0.5512
   74CHL1   H7A 7894   0.716   1.313   7.297  0.0701 -0.8334  1.2922
   74CHL1   H7B 7895   0.759   1.132   7.272 -0.2582 -0.1120 -2.4537
   74CHL1    C8 7896   0.915   1.251   7.386 -0.9630 -1.1841  0.6085
   74CHL1    H8 7897   0.949   1.357   7.393 -0.4470 -1.2859 -0.2596
   74CHL1   C14 7898   0.866   1.214   7.523 -0.4372 -0.0303 -0.5679
   74CHL1   H14 7899   0.830   1.108   7.521  2.8493 -1.2974  0.2124
   74CHL1   C15 7900   0.748   1.293   7.584  0.2647  0.0931  0.0403
   74CHL1  H15A 7901   0.757   1.402   7.564 -1.6097  0.4948  1.2018
   74CHL1  H15B 7902   0.656   1.252   7.538  1.0495 -1.0025 -0.5987
   74CHL1   C16 7903   0.748   1.264   7.733 -0.0915 -0.7214  0.6133
   74CHL1  H16A 7904   0.733   1.357   7.792 -0.2989 -0.1973 -0.2512
   74CHL1  H16B 7905   0.659   1.202   7.758 -2.6401  2.2915 -0.2709
   74CHL1   C17 7906   0.879   1.190   7.759  0.7018  0.2682  0.8617
   74CHL1   H17 7907   0.864   1.080   7.754 -0.0896  0.4500 -2.1361
   74CHL1   C13 7908   0.969   1.224   7.634  0.3243 -0.0692 -0.5101
   74CHL1   C18 7909   1.023   1.367   7.661 -0.5890  0.0507  0.2976
   74CHL1  H18A 7910   1.004   1.431   7.573  1.2500 -0.6310 -0.6587
   74CHL1  H18B 7911   0.970   1.413   7.747 -1.2142 -0.8853  0.4282
   74CHL1  H18C 7912   1.133   1.372   7.679 -0.6567 -0.0777  0.7738
   74CHL1   C12 7913   1.073   1.118   7.598  0.3535 -0.8712  0.1652
   74CHL1  H12A 7914   1.163   1.118   7.662 -0.7731 -1.0726  1.8105
   74CHL1  H12B 7915   1.025   1.018   7.587 -2.8036  0.4735  0.7225
   74CHL1   C11 7916   1.138   1.161   7.459 -0.8228 -0.1417  0.0939
   74CHL1  H11A 7917   1.180   1.263   7.460 -2.0958  0.4268 -0.8761
   74CHL1  H11B 7918   1.224   1.098   7.429 -1.5789 -1.7799  1.1991
   74CHL1    C9 7919   1.029   1.155   7.343 -0.0107 -0.2075 -0.6845
   74CHL1    H9 7920   0.986   1.053   7.343  2.7774 -1.4710 -2.0964
   74CHL1   C10 7921   1.086   1.173   7.201  1.1888  0.2358 -0.7041
   74CHL1   C19 7922   1.186   1.291   7.203 -0.0628 -0.8375  0.5496
   74CHL1  H19A 7923   1.281   1.260   7.252  1.1818  1.0979 -0.4710
   74CHL1  H19B 7924   1.212   1.323   7.100 -1.5050  1.4344  0.8243
   74CHL1  H19C 7925   1.142   1.376   7.259  1.6035 -0.1111  0.8288
   74CHL1    C1 7926   1.142   1.039   7.147  0.7507 -0.3656  0.0630
   74CHL1   H1A 7927   1.232   1.013   7.207  0.4662  3.2385  2.3533
   74CHL1   H1B 7928   1.064   0.962   7.163  1.9754 -1.2711  2.0917
   74CHL1    C2 7929   1.181   1.050   6.997  0.4439  0.9743 -0.4222
   74CHL1   H2A 7930   1.237   0.955   6.979 -1.8067 -0.4335 -0.3705
   74CHL1   H2B 7931   1.248   1.137   6.980  1.5061  0.7201  1.9810
   74CHL1   C20 7932   0.926   1.213   7.902 -0.6081  0.8205 -0.1446
   74CHL1   H20 7933   0.931   1.323   7.919  1.2232  0.9444 -1.1154
   74CHL1   C21 7934   1.067   1.151   7.919 -0.4480  0.3318  0.7425
   74CHL1  H21A 7935   1.062   1.043   7.893  0.3994  0.3021  0.6895
   74CHL1  H21B 7936   1.115   1.172   8.016 -0.0558  0.8369  0.4445
   74CHL1  H21C 7937   1.139   1.202   7.851 -1.1504 -1.5892 -1.5868
   74CHL1   C22 7938   0.826   1.150   7.997  0.4476  0.3677  0.2240
   74CHL1  H22A 7939   0.725   1.190   7.978  0.0345 -1.0341 -0.6499
   74CHL1  H22B 7940   0.822   1.039   7.992  0.1022  0.3343  1.0486
   74CHL1   C23 7941   0.849   1.172   8.148 -0.1407 -0.1378  0.3460
   74CHL1  H23A 7942   0.781   1.103   8.202 -0.1133 -0.3254  0.1419
   74CHL1  H23B 7943   0.955   1.150   8.173  0.7334  3.2124  0.1402
   74CHL1   C24 7944   0.808   1.308   8.192 -0.2091 -0.1996  0.2606
   74CHL1  H24A 7945   0.874   1.379   8.138 -1.3170  0.0651 -0.7795
   74CHL1  H24B 7946   0.713   1.328   8.139  0.1236 -2.7968 -1.4996
   74CHL1   C25 7947   0.811   1.333   8.337 -0.4657  0.2916 -0.3144
   74CHL1   H25 7948   0.902   1.287   8.381  1.4473  2.1302 -2.1545
   74CHL1   C26 7949   0.825   1.486   8.370 -0.5007 -0.0676 -0.4860
   74CHL1  H26A 7950   0.924   1.522   8.336  1.0755 -2.3192  1.4467
   74CHL1  H26B 7951   0.739   1.544   8.329 -2.2165 -3.3526 -1.9162
   74CHL1  H26C 7952   0.824   1.495   8.481 -1.5287  1.0028 -0.5582
   74CHL1   C27 7953   0.694   1.274   8.420  0.2595  0.4653 -0.8499
   74CHL1  H27A 7954   0.599   1.305   8.372 -0.1385 -0.9680 -1.0438
   74CHL1  H27B 7955   0.704   1.165   8.398 -1.7173  0.1946 -0.5988
   74CHL1  H27C 7956   0.706   1.295   8.528 -0.8998 -2.4020 -0.0684
   75CHL1    C3 7957   3.488   2.732   6.794 -0.1069  0.4909 -0.5639
   75CHL1    H3 7958   3.589   2.771   6.817 -0.5735  1.8768 -0.7545
   75CHL1    O3 7959   3.471   2.743   6.653 -0.0651 -0.3097 -0.6127
   75CHL1   H3' 7960   3.378   2.733   6.631  0.3990  0.3999 -3.1903
   75CHL1    C4 7961   3.470   2.582   6.825 -0.1875 -0.5037 -0.9335
   75CHL1   H4A 7962   3.372   2.535   6.803 -0.1677 -1.7581  1.3824
   75CHL1   H4B 7963   3.548   2.526   6.769  0.5951 -1.0037  0.5958
   75CHL1    C5 7964   3.491   2.560   6.971 -0.7318 -0.7891  0.3740
   75CHL1    C6 7965   3.586   2.481   7.021 -0.5104  0.5972 -0.2371
   75CHL1    H6 7966   3.643   2.421   6.949 -0.9747  1.1933 -1.1210
   75CHL1    C7 7967   3.602   2.464   7.175 -1.1371  0.2603  1.1403
   75CHL1   H7A 7968   3.612   2.354   7.183  0.2011  0.0018 -2.5751
   75CHL1   H7B 7969   3.698   2.504   7.213  0.0293 -1.5360  0.1790
   75CHL1    C8 7970   3.492   2.520   7.265  0.0218  0.1018  0.1706
   75CHL1    H8 7971   3.406   2.450   7.261  0.5132 -0.5196  0.1182
   75CHL1   C14 7972   3.544   2.541   7.407 -0.4650 -0.9009  0.3558
   75CHL1   H14 7973   3.634   2.604   7.391 -0.6262 -0.5775  0.6987
   75CHL1   C15 7974   3.607   2.417   7.473  0.1519  0.3888 -0.1073
   75CHL1  H15A 7975   3.532   2.335   7.469  0.1319  0.2781  1.5692
   75CHL1  H15B 7976   3.695   2.375   7.420  0.5164  0.5883  0.3276
   75CHL1   C16 7977   3.609   2.456   7.628 -0.2229  0.3778 -0.5229
   75CHL1  H16A 7978   3.545   2.380   7.676  1.7116 -1.2095 -0.3409
   75CHL1  H16B 7979   3.716   2.449   7.660  0.1009 -0.2372 -1.6820
   75CHL1   C17 7980   3.554   2.601   7.625  1.0487 -0.6938 -0.3614
   75CHL1   H17 7981   3.637   2.674   7.615 -0.6925  1.7261  1.5251
   75CHL1   C13 7982   3.457   2.613   7.506 -0.0803  0.8294 -0.6396
   75CHL1   C18 7983   3.322   2.544   7.542 -0.1238 -0.1454 -0.5371
   75CHL1  H18A 7984   3.334   2.461   7.615  1.2479 -0.1542 -0.7488
   75CHL1  H18B 7985   3.262   2.620   7.598 -0.9681 -1.1556 -0.0332
   75CHL1  H18C 7986   3.263   2.508   7.455 -3.2162 -0.6617  1.6134
   75CHL1   C12 7987   3.427   2.753   7.443 -0.2493  0.2265 -0.1076
   75CHL1  H12A 7988   3.358   2.808   7.511 -1.2667  2.7596 -2.9870
   75CHL1  H12B 7989   3.514   2.815   7.414 -2.2545  1.5106 -4.1263
   75CHL1   C11 7990   3.368   2.738   7.305  0.5839 -0.7724 -0.3051
   75CHL1  H11A 7991   3.266   2.695   7.312 -0.5812  1.8250 -0.2600
   75CHL1  H11B 7992   3.348   2.840   7.267  1.9618 -0.3152  0.1469
   75CHL1    C9 7993   3.457   2.656   7.205 -0.2191 -0.3414 -0.1272
   75CHL1    H9 7994   3.552   2.713   7.196  0.2123 -0.3428  3.2001
   75CHL1   C10 7995   3.404   2.656   7.060  0.4731  0.2373  0.9301
   75CHL1   C19 7996   3.256   2.601   7.057 -0.9559 -0.0096 -0.3875
   75CHL1  H19A 7997   3.242   2.492   7.075 -3.7475 -0.2174 -3.0473
   75CHL1  H19B 7998   3.195   2.662   7.126  1.2149  1.8147  0.0566
   75CHL1  H19C 7999   3.215   2.624   6.957  0.0557  0.1298 -0.7847
   75CHL1    C1 8000   3.405   2.803   7.012 -0.1281 -0.0102 -0.4891
   75CHL1   H1A 8001   3.324   2.858   7.063  1.9090  2.8474 -0.0997
   75CHL1   H1B 8002   3.506   2.843   7.035 -0.5186  1.2147 -0.8242
   75CHL1    C2 8003   3.391   2.821   6.866 -0.0310  0.5254 -0.4600
   75CHL1   H2A 8004   3.405   2.927   6.835  0.8660 -0.3449 -3.4451
   75CHL1   H2B 8005   3.293   2.785   6.830 -1.3364  1.0116  2.3968
   75CHL1   C20 8006   3.504   2.652   7.762 -0.5905  0.3558 -0.3370
   75CHL1   H20 8007   3.428   2.583   7.805 -0.2574 -0.3289 -0.8207
   75CHL1   C21 8008   3.439   2.788   7.755  0.4632 -0.0377 -0.6582
   75CHL1  H21A 8009   3.340   2.773   7.707  1.1179 -2.6161 -1.3331
   75CHL1  H21B 8010   3.497   2.867   7.702  1.3093  1.2816  2.0758
   75CHL1  H21C 8011   3.419   2.839   7.852  0.1235  0.4934 -0.9961
   75CHL1   C22 8012   3.626   2.659   7.864 -0.0536  0.7303 -0.0154
   75CHL1  H22A 8013   3.696   2.573   7.851 -0.3846  0.3826  0.4661
   75CHL1  H22B 8014   3.682   2.753   7.850  0.4804  0.2631 -1.0994
   75CHL1   C23 8015   3.576   2.654   8.010  0.9533  0.2976  0.3978
   75CHL1  H23A 8016   3.587   2.755   8.054  2.5437  0.2518  0.1326
   75CHL1  H23B 8017   3.469   2.621   8.008  0.7064  1.0125  1.2578
   75CHL1   C24 8018   3.648   2.561   8.104 -0.0934  0.0634 -0.2039
   75CHL1  H24A 8019   3.651   2.460   8.058 -1.9168 -0.1348  0.0540
   75CHL1  H24B 8020   3.757   2.580   8.114 -0.3057  0.3192  2.5280
   75CHL1   C25 8021   3.589   2.551   8.244  0.1061 -0.1974 -0.1278
   75CHL1   H25 8022   3.544   2.652   8.261 -0.6808 -0.5872  0.1448
   75CHL1   C26 8023   3.470   2.457   8.235  0.6191  0.5331 -0.5646
   75CHL1  H26A 8024   3.496   2.371   8.169 -2.4115  0.6764 -2.1116
   75CHL1  H26B 8025   3.438   2.418   8.334 -0.6572  1.4366 -0.5995
   75CHL1  H26C 8026   3.380   2.511   8.199 -1.8838 -0.7058  3.2617
   75CHL1   C27 8027   3.686   2.514   8.360  1.3879  0.4706  0.2246
   75CHL1  H27A 8028   3.786   2.558   8.344  0.3452  3.1750  0.5837
   75CHL1  H27B 8029   3.652   2.531   8.465 -1.3352 -1.6255 -0.2022
   75CHL1  H27C 8030   3.690   2.403   8.356  1.4741  0.4938 -0.3845
   76CHL1    C3 8031   1.257   4.408   7.191  0.5496 -0.0472  0.0173
   76CHL1    H3 8032   1.281   4.301   7.210  1.9678  0.4182  0.9515
   76CHL1    O3 8033   1.307   4.452   7.066  0.4624  0.0582  0.3310
   76CHL1   H3' 8034   1.400   4.431   7.063  0.0297 -2.7094  2.1889
   76CHL1    C4 8035   1.100   4.433   7.181  0.0121  0.7026 -0.7651
   76CHL1   H4A 8036   1.066   4.538   7.168 -1.8684  0.8111  3.4776
   76CHL1   H4B 8037   1.065   4.373   7.094  1.0606 -0.5443 -0.3644
   76CHL1    C5 8038   1.045   4.394   7.319 -0.3997  0.2180  0.3738
   76CHL1    C6 8039   0.941   4.309   7.328 -0.4044  0.1879 -0.1183
   76CHL1    H6 8040   0.901   4.266   7.235 -0.3667 -3.7456  1.4820
   76CHL1    C7 8041   0.878   4.257   7.455  0.0926  1.0747 -0.1697
   76CHL1   H7A 8042   0.769   4.246   7.441  0.4931 -0.4245 -2.7042
   76CHL1   H7B 8043   0.910   4.150   7.458 -2.5557  0.2472  0.9574
   76CHL1    C8 8044   0.929   4.343   7.578 -0.1500  0.5363  1.2362
   76CHL1    H8 8045   0.885   4.445   7.581 -2.4750 -0.4192  3.3551
   76CHL1   C14 8046   0.887   4.269   7.706 -0.2911  0.1447 -0.2024
   76CHL1   H14 8047   0.940   4.174   7.684 -0.1845  0.4280 -1.2165
   76CHL1   C15 8048   0.745   4.234   7.724 -0.1058 -0.5203  0.7177
   76CHL1  H15A 8049   0.683   4.324   7.703 -0.4614 -0.9075  0.0708
   76CHL1  H15B 8050   0.704   4.151   7.662  2.3545  0.7007 -2.8760
   76CHL1   C16 8051   0.720   4.214   7.879 -0.2155  0.8039  0.5201
   76CHL1  H16A 8052   0.640   4.287   7.902 -2.9285 -1.6501 -0.5067
   76CHL1  H16B 8053   0.690   4.115   7.919 -0.6360  1.5236  2.0411
   76CHL1   C17 8054   0.860   4.251   7.942  0.5586  0.0785  0.3419
   76CHL1   H17 8055   0.922   4.159   7.945  0.0761 -0.2337  0.8590
   76CHL1   C13 8056   0.925   4.336   7.837 -0.5730 -0.2528  0.3123
   76CHL1   C18 8057   0.870   4.477   7.860 -0.0395  0.2268 -0.0427
   76CHL1  H18A 8058   0.902   4.517   7.958 -0.9669  0.7953  0.0398
   76CHL1  H18B 8059   0.895   4.556   7.786  2.1151  0.8747  1.2804
   76CHL1  H18C 8060   0.759   4.477   7.867  0.0156 -0.9098  1.4173
   76CHL1   C12 8061   1.085   4.354   7.836 -0.0287 -0.2553  0.2145
   76CHL1  H12A 8062   1.113   4.415   7.925 -2.5040  2.5088 -0.7386
   76CHL1  H12B 8063   1.127   4.253   7.856 -0.0673 -0.0564  1.3835
   76CHL1   C11 8064   1.139   4.422   7.709 -0.4982 -0.9309 -0.2167
   76CHL1  H11A 8065   1.108   4.525   7.735  0.3487  0.0635 -2.8067
   76CHL1  H11B 8066   1.250   4.420   7.712 -0.4549 -1.2112 -1.4356
   76CHL1    C9 8067   1.078   4.367   7.574 -0.3129 -0.2311  0.1020
   76CHL1    H9 8068   1.117   4.264   7.555 -1.0118 -0.3464 -0.7578
   76CHL1   C10 8069   1.119   4.441   7.448  0.0245 -0.0128 -0.0479
   76CHL1   C19 8070   1.081   4.596   7.469 -0.0606  0.3188  0.2449
   76CHL1  H19A 8071   0.974   4.608   7.496 -0.8318 -1.5725 -1.6535
   76CHL1  H19B 8072   1.148   4.643   7.544 -1.0002  0.3010  1.1147
   76CHL1  H19C 8073   1.108   4.643   7.371 -0.4352  0.5159  0.2333
   76CHL1    C1 8074   1.273   4.443   7.426  0.5319  0.1751 -0.5611
   76CHL1   H1A 8075   1.318   4.502   7.509 -0.4570 -1.0115  0.8979
   76CHL1   H1B 8076   1.309   4.338   7.433 -0.6166 -0.1917  0.1717
   76CHL1    C2 8077   1.321   4.496   7.298 -0.3127  0.2109 -0.0847
   76CHL1   H2A 8078   1.432   4.497   7.306 -0.3838 -0.1278  1.1678
   76CHL1   H2B 8079   1.296   4.602   7.277 -3.2853 -0.4786 -0.4242
   76CHL1   C20 8080   0.840   4.311   8.087  0.2520 -0.5503 -0.1517
   76CHL1   H20 8081   0.807   4.417   8.091 -1.6175 -1.1107  0.2142
   76CHL1   C21 8082   0.971   4.293   8.171  0.4733 -0.0580 -0.2259
   76CHL1  H21A 8083   0.961   4.354   8.263 -2.0953 -0.3400 -0.2247
   76CHL1  H21B 8084   1.066   4.307   8.116  1.7136  0.3409  1.9383
   76CHL1  H21C 8085   0.978   4.186   8.199  1.0594  0.9092  3.8774
   76CHL1   C22 8086   0.723   4.234   8.159  0.2568 -0.3600  0.3565
   76CHL1  H22A 8087   0.618   4.238   8.123 -0.0349 -3.5572  0.5781
   76CHL1  H22B 8088   0.745   4.125   8.165 -0.2116 -0.5722 -1.3213
   76CHL1   C23 8089   0.699   4.267   8.311 -0.4814  1.0171 -0.2802
   76CHL1  H23A 8090   0.611   4.202   8.334  0.5462  0.3124  1.9206
   76CHL1  H23B 8091   0.788   4.238   8.371 -1.3924 -1.1658  0.1086
   76CHL1   C24 8092   0.669   4.413   8.334 -0.2563 -0.1852  0.3039
   76CHL1  H24A 8093   0.765   4.467   8.320 -0.2579 -0.6838 -2.2037
   76CHL1  H24B 8094   0.592   4.456   8.266 -0.2319  1.9948  1.5807
   76CHL1   C25 8095   0.629   4.439   8.481  0.2861 -0.5246  0.0649
   76CHL1   H25 8096   0.712   4.410   8.549 -0.6914 -0.3357  1.3776
   76CHL1   C26 8097   0.600   4.585   8.504 -0.2961 -0.5441 -0.3797
   76CHL1  H26A 8098   0.689   4.642   8.538 -0.3350 -0.6682 -0.0652
   76CHL1  H26B 8099   0.550   4.627   8.414  0.8788  1.1832 -0.2674
   76CHL1  H26C 8100   0.530   4.589   8.590 -0.3240  3.1425 -0.4263
   76CHL1   C27 8101   0.504   4.355   8.522  0.7207  0.5661  0.3904
   76CHL1  H27A 8102   0.485   4.376   8.630 -1.8245  0.9493 -0.0575
   76CHL1  H27B 8103   0.410   4.384   8.470  0.5557 -3.2379 -1.8195
   76CHL1  H27C 8104   0.512   4.245   8.509 -1.7189  0.2459  1.0395
   77CHL1    C3 8105   1.269   3.318   6.873  0.0444 -0.0772  0.2243
   77CHL1    H3 8106   1.170   3.350   6.911  0.6961  0.0649  1.9022
   77CHL1    O3 8107   1.295   3.340   6.733 -0.1398  0.6102  0.2381
   77CHL1   H3' 8108   1.223   3.290   6.694 -0.5075  0.8776  0.5734
   77CHL1    C4 8109   1.376   3.404   6.948 -0.4355  0.1766  0.5646
   77CHL1   H4A 8110   1.469   3.401   6.886 -0.9329  2.9832 -0.5065
   77CHL1   H4B 8111   1.348   3.512   6.948  0.0374  0.3816  3.7222
   77CHL1    C5 8112   1.409   3.370   7.093  0.2765  0.3312  0.1649
   77CHL1    C6 8113   1.422   3.470   7.181  0.5257 -0.0010 -0.6212
   77CHL1    H6 8114   1.410   3.576   7.152  2.0301 -0.3963 -2.9365
   77CHL1    C7 8115   1.452   3.454   7.326  0.1977 -0.1057  0.4223
   77CHL1   H7A 8116   1.528   3.526   7.362  1.3272 -0.8671 -0.3628
   77CHL1   H7B 8117   1.358   3.485   7.377  1.3139  1.2165  1.7654
   77CHL1    C8 8118   1.491   3.305   7.366 -0.2957 -0.0680 -0.7877
   77CHL1    H8 8119   1.598   3.284   7.344 -0.3208 -0.2307 -0.7570
   77CHL1   C14 8120   1.466   3.277   7.520 -0.2445 -0.2906 -0.4207
   77CHL1   H14 8121   1.355   3.288   7.527 -0.3390 -2.0124  1.3120
   77CHL1   C15 8122   1.513   3.380   7.617 -0.0577 -0.2065  0.7743
   77CHL1  H15A 8123   1.611   3.428   7.597  1.2079 -3.2446 -0.9503
   77CHL1  H15B 8124   1.442   3.466   7.615  2.4523  2.0117 -1.1417
   77CHL1   C16 8125   1.518   3.304   7.754  0.3235 -0.1939  0.0928
   77CHL1  H16A 8126   1.620   3.304   7.798  0.1866  1.6037  0.4993
   77CHL1  H16B 8127   1.450   3.361   7.821  0.9929 -1.6067  2.0803
   77CHL1   C17 8128   1.474   3.162   7.721  0.8093  0.1535 -0.5035
   77CHL1   H17 8129   1.363   3.158   7.723  0.7584  1.4229  1.1337
   77CHL1   C13 8130   1.500   3.142   7.571  0.0888  0.2763 -0.5621
   77CHL1   C18 8131   1.652   3.118   7.556  0.4597  0.3760 -0.7117
   77CHL1  H18A 8132   1.705   3.159   7.645 -1.4650 -0.0056  0.6837
   77CHL1  H18B 8133   1.669   3.009   7.570  1.3102  0.5279 -0.5460
   77CHL1  H18C 8134   1.697   3.151   7.461 -1.1220 -1.5799 -2.2197
   77CHL1   C12 8135   1.427   3.041   7.484  0.6072 -0.5778  0.0080
   77CHL1  H12A 8136   1.461   2.938   7.509  1.0097 -0.1335  1.3590
   77CHL1  H12B 8137   1.317   3.058   7.492  0.3522 -0.7251 -2.4027
   77CHL1   C11 8138   1.450   3.053   7.330  0.3790 -0.1142 -0.6787
   77CHL1  H11A 8139   1.559   3.046   7.313  0.4834  0.7340 -0.3985
   77CHL1  H11B 8140   1.397   2.975   7.271 -0.0887  0.0440 -0.4749
   77CHL1    C9 8141   1.406   3.205   7.283 -0.2695  0.3820 -0.1672
   77CHL1    H9 8142   1.301   3.223   7.314 -0.3703  0.3345 -0.4753
   77CHL1   C10 8143   1.414   3.227   7.132  0.2520  1.3946  0.4562
   77CHL1   C19 8144   1.538   3.158   7.073 -0.0570  0.4389 -0.2337
   77CHL1  H19A 8145   1.630   3.183   7.130  1.3825 -3.3204 -0.5867
   77CHL1  H19B 8146   1.550   3.048   7.082  2.1413  0.7474  1.5218
   77CHL1  H19C 8147   1.568   3.188   6.970  2.3335  1.1426  0.6122
   77CHL1    C1 8148   1.301   3.151   7.063  0.0380  0.0182 -0.3936
   77CHL1   H1A 8149   1.299   3.041   7.083 -2.1410 -0.2504 -1.6362
   77CHL1   H1B 8150   1.201   3.184   7.098  0.0658 -1.9378  1.8263
   77CHL1    C2 8151   1.290   3.168   6.913  0.3805 -0.1682  0.3956
   77CHL1   H2A 8152   1.206   3.106   6.875  0.4295 -0.7654  1.2400
   77CHL1   H2B 8153   1.381   3.123   6.867  0.5005  0.4260  0.0457
   77CHL1   C20 8154   1.526   3.058   7.834  0.2622  0.1020  1.0619
   77CHL1   H20 8155   1.636   3.052   7.821  0.2192  2.9616 -1.8871
   77CHL1   C21 8156   1.463   2.919   7.811 -0.2514  0.5348 -0.4050
   77CHL1  H21A 8157   1.355   2.925   7.835  0.0712  1.7217  0.8195
   77CHL1  H21B 8158   1.518   2.851   7.880 -1.1380 -0.1141 -0.3313
   77CHL1  H21C 8159   1.484   2.890   7.705 -0.0909 -0.1999 -0.1824
   77CHL1   C22 8160   1.483   3.092   7.980  0.1144 -0.7631  0.0252
   77CHL1  H22A 8161   1.500   3.200   8.002  1.9398 -0.9830 -0.1983
   77CHL1  H22B 8162   1.379   3.060   8.002  0.6095 -1.2993  1.7540
   77CHL1   C23 8163   1.567   3.030   8.089 -0.1114  0.7909 -0.5279
   77CHL1  H23A 8164   1.566   2.920   8.072 -0.5846  0.4127  1.6491
   77CHL1  H23B 8165   1.673   3.062   8.075  0.3388 -0.0540  0.7935
   77CHL1   C24 8166   1.513   3.063   8.232 -0.9796  0.3130 -0.6709
   77CHL1  H24A 8167   1.497   3.173   8.229 -2.5165  0.1341 -4.8606
   77CHL1  H24B 8168   1.419   3.006   8.253 -0.8244 -0.0215 -0.8908
   77CHL1   C25 8169   1.611   3.023   8.342 -0.1783  0.5541  0.4064
   77CHL1   H25 8170   1.712   3.065   8.325  0.0860 -0.7862 -1.6639
   77CHL1   C26 8171   1.557   3.074   8.479  0.2387 -1.0401 -0.0767
   77CHL1  H26A 8172   1.630   3.050   8.560 -0.1601  0.5920  0.8070
   77CHL1  H26B 8173   1.549   3.185   8.478 -1.7173 -1.1262  0.9407
   77CHL1  H26C 8174   1.459   3.029   8.504 -0.8248  0.8872 -0.5904
   77CHL1   C27 8175   1.629   2.868   8.349  0.5331  0.1666 -0.3163
   77CHL1  H27A 8176   1.713   2.838   8.417  0.8946  1.9582  0.0606
   77CHL1  H27B 8177   1.538   2.826   8.397  1.8904 -2.3902  0.2385
   77CHL1  H27C 8178   1.649   2.828   8.247 -1.0861 -0.3221 -0.4599
   78CHL1    C3 8179   4.859   5.264   6.628  0.1822 -1.0045  0.7359
   78CHL1    H3 8180   4.775   5.192   6.625 -1.4503  0.7949 -2.2894
   78CHL1    O3 8181   4.869   5.323   6.498 -0.2463  0.5168  0.0697
   78CHL1   H3' 8182   4.962   5.334   6.478  0.0614 -0.5389  0.8508
   78CHL1    C4 8183   4.826   5.382   6.726  0.1746  0.9523 -0.3112
   78CHL1   H4A 8184   4.894   5.466   6.699 -1.3971  1.6685 -2.2851
   78CHL1   H4B 8185   4.738   5.436   6.685  1.0393  1.9668 -0.8985
   78CHL1    C5 8186   4.812   5.336   6.868  0.1305  0.4807 -0.5073
   78CHL1    C6 8187   4.699   5.346   6.944 -0.5148 -0.5423  0.2656
   78CHL1    H6 8188   4.616   5.403   6.899  0.3750  1.4926  1.0712
   78CHL1    C7 8189   4.686   5.313   7.093 -0.1966  0.2192  0.3717
   78CHL1   H7A 8190   4.646   5.394   7.157 -1.7063 -0.4556  0.3066
   78CHL1   H7B 8191   4.616   5.227   7.097 -2.2107  1.7537 -0.3477
   78CHL1    C8 8192   4.827   5.267   7.150 -0.3077  0.7141  0.5392
   78CHL1    H8 8193   4.895   5.353   7.168  0.2274  1.0154 -2.4192
   78CHL1   C14 8194   4.805   5.186   7.280  0.0391  0.6623  0.2211
   78CHL1   H14 8195   4.733   5.106   7.251  0.6434 -0.0758  0.7063
   78CHL1   C15 8196   4.725   5.257   7.391  0.4883 -0.0038  0.3973
   78CHL1  H15A 8197   4.736   5.367   7.377 -2.5431  0.2215 -1.0758
   78CHL1  H15B 8198   4.615   5.242   7.384  0.2551  1.3838  0.6772
   78CHL1   C16 8199   4.786   5.201   7.515  0.3865  0.0528  0.1896
   78CHL1  H16A 8200   4.846   5.283   7.560 -1.0216  1.1840  0.0789
   78CHL1  H16B 8201   4.716   5.188   7.600  0.9819  0.3960  0.7369
   78CHL1   C17 8202   4.868   5.077   7.478  0.4459 -0.2302  0.0393
   78CHL1   H17 8203   4.802   4.991   7.455  1.8293 -1.4947  0.6675
   78CHL1   C13 8204   4.928   5.120   7.336  0.2065 -0.2088  0.3590
   78CHL1   C18 8205   5.034   5.224   7.358 -0.2196 -0.8106  0.9095
   78CHL1  H18A 8206   5.132   5.173   7.372  0.4362  0.9439  3.4259
   78CHL1  H18B 8207   5.059   5.298   7.279  1.1615 -0.7222  1.3924
   78CHL1  H18C 8208   5.027   5.279   7.455  0.0832  1.3818 -0.2534
   78CHL1   C12 8209   4.993   5.019   7.237 -0.3699  0.3835  0.2176
   78CHL1  H12A 8210   5.090   4.986   7.281 -0.2286  1.1977  0.5344
   78CHL1  H12B 8211   4.921   4.935   7.226  0.8634 -0.6773 -0.0567
   78CHL1   C11 8212   5.018   5.088   7.104  0.5770 -0.2081  0.1839
   78CHL1  H11A 8213   5.110   5.150   7.112  1.7587 -2.0680  6.0348
   78CHL1  H11B 8214   5.046   5.007   7.034  0.9582 -1.4324  1.6934
   78CHL1    C9 8215   4.896   5.178   7.044  0.0353  0.3772  0.2176
   78CHL1    H9 8216   4.823   5.104   7.004 -0.5107  1.7923 -1.4965
   78CHL1   C10 8217   4.934   5.259   6.918  0.1213 -0.3457 -0.4934
   78CHL1   C19 8218   5.026   5.375   6.956 -0.1226 -0.2271 -0.2149
   78CHL1  H19A 8219   5.089   5.354   7.045 -2.9535  1.4527  2.3612
   78CHL1  H19B 8220   5.096   5.400   6.874 -1.5353 -1.4945 -1.8816
   78CHL1  H19C 8221   4.976   5.469   6.989  0.3824  0.6508 -1.8502
   78CHL1    C1 8222   4.985   5.147   6.817  0.6410  0.3188  0.9204
   78CHL1   H1A 8223   5.092   5.126   6.838  0.9311 -2.3577 -2.3486
   78CHL1   H1B 8224   4.921   5.057   6.832 -1.5882  1.7115  0.3340
   78CHL1    C2 8225   4.986   5.197   6.669  0.6039 -0.1823  0.2188
   78CHL1   H2A 8226   4.997   5.113   6.597 -1.2946  0.3471 -0.7521
   78CHL1   H2B 8227   5.070   5.269   6.655  0.1101  0.3157 -0.2534
   78CHL1   C20 8228   4.962   5.036   7.592 -0.1921 -0.5782  0.4188
   78CHL1   H20 8229   5.037   5.118   7.596  0.6739 -1.3316 -0.0738
   78CHL1   C21 8230   5.037   4.909   7.548  0.5240  0.3608 -0.5822
   78CHL1  H21A 8231   4.968   4.844   7.489 -1.8708  0.7136  1.6246
   78CHL1  H21B 8232   5.088   4.856   7.632  1.6109  1.8870 -0.2394
   78CHL1  H21C 8233   5.127   4.926   7.486  0.6371 -0.5831 -0.6856
   78CHL1   C22 8234   4.896   5.018   7.728  0.3145 -0.3031 -0.0941
   78CHL1  H22A 8235   4.853   5.119   7.740 -1.9208 -0.9374 -1.7855
   78CHL1  H22B 8236   4.813   4.944   7.729 -0.2670  0.3495  0.7423
   78CHL1   C23 8237   4.983   4.999   7.849 -0.0645 -0.3533 -0.2214
   78CHL1  H23A 8238   5.014   4.892   7.845  2.3151  0.1890  1.4371
   78CHL1  H23B 8239   5.069   5.069   7.840 -1.8246  2.0249  0.6092
   78CHL1   C24 8240   4.912   5.018   7.980  0.4641 -0.6535 -0.3246
   78CHL1  H24A 8241   4.880   5.124   7.990  1.4015 -0.1567 -2.0310
   78CHL1  H24B 8242   4.823   4.952   7.971  0.1474 -0.1161 -1.2790
   78CHL1   C25 8243   5.001   4.984   8.101  0.0512  0.2587  0.4519
   78CHL1   H25 8244   5.045   4.884   8.084 -1.6282 -0.4922  0.3718
   78CHL1   C26 8245   5.123   5.072   8.108 -0.7385  0.2212  0.7472
   78CHL1  H26A 8246   5.199   5.051   8.029  0.3226  1.4000  1.4207
   78CHL1  H26B 8247   5.098   5.180   8.101 -0.3034  0.3372 -5.7034
   78CHL1  H26C 8248   5.177   5.045   8.201 -2.4115  1.0900  2.0049
   78CHL1   C27 8249   4.920   4.985   8.227 -0.3549 -0.1095  0.8065
   78CHL1  H27A 8250   4.986   4.970   8.315  1.3123  2.8969  0.2431
   78CHL1  H27B 8251   4.862   5.077   8.247 -0.2795 -0.4539  2.7524
   78CHL1  H27C 8252   4.845   4.905   8.216 -0.5359  0.1947 -0.3065
   79CHL1    C3 8253   2.956   0.798   7.127 -0.4611  0.2511  0.3251
   79CHL1    H3 8254   2.912   0.706   7.170  0.5237 -0.0778  0.6557
   79CHL1    O3 8255   2.895   0.819   6.996  0.6572 -0.1497  0.2314
   79CHL1   H3' 8256   2.908   0.910   6.970 -1.3678 -0.4727 -2.2726
   79CHL1    C4 8257   2.925   0.913   7.228  0.6755 -0.0890 -0.6799
   79CHL1   H4A 8258   2.972   0.993   7.167  0.4545 -1.4072 -2.6671
   79CHL1   H4B 8259   2.814   0.920   7.225  0.5542 -1.4430  0.1005
   79CHL1    C5 8260   2.983   0.895   7.370 -0.7457 -0.2714  0.3725
   79CHL1    C6 8261   2.905   0.873   7.478 -0.4398 -0.7476  0.3568
   79CHL1    H6 8262   2.796   0.885   7.465 -0.4963 -0.7655  0.7987
   79CHL1    C7 8263   2.958   0.832   7.611  0.2054  0.1496 -0.1816
   79CHL1   H7A 8264   2.902   0.888   7.689 -0.5287  2.0268 -1.9909
   79CHL1   H7B 8265   2.937   0.725   7.633 -2.9258 -0.0454 -3.2516
   79CHL1    C8 8266   3.109   0.860   7.621 -0.7690  0.5763 -0.6215
   79CHL1    H8 8267   3.117   0.971   7.619 -0.8373  0.6142  0.4299
   79CHL1   C14 8268   3.168   0.808   7.752 -0.4869 -0.1589  0.4406
   79CHL1   H14 8269   3.153   0.698   7.739 -1.2166  0.1584 -1.7337
   79CHL1   C15 8270   3.101   0.855   7.880  0.2494 -0.3623  0.1993
   79CHL1  H15A 8271   3.084   0.965   7.884 -1.6486 -0.6603  1.5439
   79CHL1  H15B 8272   3.005   0.798   7.881  0.5805 -0.9720 -0.9486
   79CHL1   C16 8273   3.205   0.815   7.989 -0.2318 -0.6917 -0.6098
   79CHL1  H16A 8274   3.226   0.892   8.067 -0.2920 -0.3442 -0.9332
   79CHL1  H16B 8275   3.168   0.723   8.039 -1.1784 -0.7338 -1.3539
   79CHL1   C17 8276   3.331   0.779   7.910  0.4786 -0.4257  0.3461
   79CHL1   H17 8277   3.325   0.670   7.892  2.9312 -0.6658  0.7121
   79CHL1   C13 8278   3.313   0.838   7.769  0.8477  0.1509 -1.0017
   79CHL1   C18 8279   3.347   0.987   7.766  0.1347  0.0733  0.3072
   79CHL1  H18A 8280   3.304   1.044   7.851 -1.5513 -0.7400  0.0451
   79CHL1  H18B 8281   3.458   0.995   7.771  0.1425 -0.0933  0.4091
   79CHL1  H18C 8282   3.311   1.034   7.672  2.6575 -0.5267 -1.0424
   79CHL1   C12 8283   3.383   0.759   7.651 -0.3066 -0.2343 -0.0412
   79CHL1  H12A 8284   3.493   0.776   7.661 -0.3627  1.5179 -1.7473
   79CHL1  H12B 8285   3.369   0.649   7.653  1.5246 -0.4984  0.1537
   79CHL1   C11 8286   3.340   0.817   7.512 -0.2602  0.9222 -0.1270
   79CHL1  H11A 8287   3.388   0.916   7.502  0.0840  0.8425  0.6920
   79CHL1  H11B 8288   3.381   0.745   7.438 -0.1425  0.4227  0.4132
   79CHL1    C9 8289   3.185   0.808   7.503 -0.3447 -0.3284 -0.8473
   79CHL1    H9 8290   3.157   0.701   7.502 -1.7759  0.0337 -1.7320
   79CHL1   C10 8291   3.139   0.867   7.367  0.2322 -0.2402 -0.0375
   79CHL1   C19 8292   3.211   0.996   7.325  0.1545 -0.0526  0.1922
   79CHL1  H19A 8293   3.322   0.998   7.325  0.1539  0.9845  1.0501
   79CHL1  H19B 8294   3.164   1.042   7.235 -0.3732  0.1576  0.5690
   79CHL1  H19C 8295   3.196   1.077   7.400 -0.8295  1.0228 -1.1221
   79CHL1    C1 8296   3.176   0.764   7.264  0.0641 -0.2184  0.4976
   79CHL1   H1A 8297   3.284   0.768   7.240  0.7901 -2.1379  2.9367
   79CHL1   H1B 8298   3.148   0.659   7.286 -3.1357  0.1052 -1.4482
   79CHL1    C2 8299   3.111   0.783   7.126  0.5553  0.1906 -0.1994
   79CHL1   H2A 8300   3.154   0.699   7.068  1.8427 -0.0840  1.0759
   79CHL1   H2B 8301   3.152   0.878   7.085  1.6324 -0.0354  0.3172
   79CHL1   C20 8302   3.461   0.820   7.973  0.8916 -0.6170  0.2633
   79CHL1   H20 8303   3.456   0.931   7.983  0.2065 -0.5079 -1.0913
   79CHL1   C21 8304   3.601   0.780   7.911 -0.2383  0.0124  0.4687
   79CHL1  H21A 8305   3.616   0.812   7.805  0.1777  2.4350  1.1999
   79CHL1  H21B 8306   3.606   0.669   7.908  1.0812  0.0741 -1.4445
   79CHL1  H21C 8307   3.685   0.816   7.974  1.4225  0.2736 -1.7405
   79CHL1   C22 8308   3.464   0.762   8.123 -0.0382  0.0013 -0.3021
   79CHL1  H22A 8309   3.566   0.789   8.157 -0.1758  2.0551 -1.4015
   79CHL1  H22B 8310   3.385   0.811   8.184  0.7986  1.7110 -0.5454
   79CHL1   C23 8311   3.454   0.608   8.136  0.6176  1.0979 -0.1379
   79CHL1  H23A 8312   3.347   0.576   8.128  1.1810 -1.2676  0.8297
   79CHL1  H23B 8313   3.510   0.547   8.063  0.3030 -1.2474  1.4700
   79CHL1   C24 8314   3.483   0.563   8.276 -0.2399 -0.2994 -0.1599
   79CHL1  H24A 8315   3.423   0.625   8.346  0.0220 -1.3625  1.0483
   79CHL1  H24B 8316   3.446   0.459   8.292  2.3008 -1.0771  1.2547
   79CHL1   C25 8317   3.631   0.567   8.323  0.0646  0.6533  0.4963
   79CHL1   H25 8318   3.681   0.648   8.265 -0.0509 -1.5372 -3.0266
   79CHL1   C26 8319   3.639   0.598   8.471  0.4229 -0.1695 -0.2603
   79CHL1  H26A 8320   3.601   0.701   8.487  2.8768  0.9072 -0.8282
   79CHL1  H26B 8321   3.585   0.526   8.535 -2.0014  2.4367  0.8141
   79CHL1  H26C 8322   3.748   0.602   8.492  0.3823 -0.2089 -0.0425
   79CHL1   C27 8323   3.707   0.444   8.274 -0.1752  0.5169 -0.8951
   79CHL1  H27A 8324   3.714   0.442   8.163  4.0344 -0.6853 -0.7776
   79CHL1  H27B 8325   3.814   0.448   8.301 -0.1962 -1.5092 -0.3534
   79CHL1  H27C 8326   3.655   0.358   8.322  0.2647  0.3212 -0.7710
   80CHL1    C3 8327   2.126   1.339   7.184  0.3998 -0.1444 -0.3284
   80CHL1    H3 8328   2.183   1.250   7.149  1.4166  0.2822  0.2041
   80CHL1    O3 8329   2.056   1.384   7.064  0.2312 -0.3479 -0.4485
   80CHL1   H3' 8330   2.126   1.417   7.008  1.5829 -2.4153 -0.0936
   80CHL1    C4 8331   2.025   1.292   7.292  0.0215  0.0603  0.1188
   80CHL1   H4A 8332   1.960   1.382   7.300  0.9483  0.8212 -0.6655
   80CHL1   H4B 8333   1.970   1.207   7.246 -1.2061  0.3401  1.0074
   80CHL1    C5 8334   2.080   1.270   7.441  0.0723 -0.1634  0.8551
   80CHL1    C6 8335   2.057   1.164   7.514  0.0253 -0.1364  0.5778
   80CHL1    H6 8336   1.987   1.084   7.483 -3.4934  3.5740 -2.1919
   80CHL1    C7 8337   2.112   1.130   7.654  0.6414 -1.0414  0.4465
   80CHL1   H7A 8338   2.018   1.120   7.713  0.1011 -0.2992 -0.2786
   80CHL1   H7B 8339   2.179   1.041   7.648 -3.3068 -4.2928 -0.1605
   80CHL1    C8 8340   2.187   1.250   7.712 -0.2372 -0.9436  0.1496
   80CHL1    H8 8341   2.109   1.316   7.755 -0.1953 -0.2561 -0.7940
   80CHL1   C14 8342   2.283   1.210   7.823 -0.0578 -0.0860  0.1082
   80CHL1   H14 8343   2.356   1.143   7.773 -0.4154 -0.5354  0.1778
   80CHL1   C15 8344   2.229   1.118   7.937 -0.3250  0.6149  0.3902
   80CHL1  H15A 8345   2.129   1.152   7.970 -1.8465 -1.4039 -1.7625
   80CHL1  H15B 8346   2.217   1.018   7.890  2.1333  1.2901 -1.9376
   80CHL1   C16 8347   2.332   1.133   8.046 -0.3958 -0.2612 -0.4243
   80CHL1  H16A 8348   2.283   1.175   8.136 -0.9371  1.1903 -1.3613
   80CHL1  H16B 8349   2.388   1.039   8.065  1.1775 -0.3034 -4.3260
   80CHL1   C17 8350   2.443   1.235   7.999 -0.4739  0.0908 -0.0823
   80CHL1   H17 8351   2.512   1.166   7.944 -0.8429 -0.9480  0.7438
   80CHL1   C13 8352   2.363   1.317   7.889 -0.0385 -0.2341  1.3932
   80CHL1   C18 8353   2.266   1.423   7.948  0.5655 -0.3319  0.2198
   80CHL1  H18A 8354   2.228   1.386   8.046 -2.9134 -2.4278 -1.7011
   80CHL1  H18B 8355   2.328   1.513   7.966 -2.8150  2.6450 -1.7919
   80CHL1  H18C 8356   2.188   1.458   7.877 -0.6334  2.8470  2.8305
   80CHL1   C12 8357   2.444   1.379   7.772  0.1439  0.1595 -0.1531
   80CHL1  H12A 8358   2.508   1.464   7.806 -0.1951  2.6756 -4.9537
   80CHL1  H12B 8359   2.521   1.305   7.742  3.7316  3.6704 -0.5582
   80CHL1   C11 8360   2.358   1.432   7.657 -0.4762  0.1412  0.1443
   80CHL1  H11A 8361   2.291   1.514   7.690  0.0877  1.0206 -0.8352
   80CHL1  H11B 8362   2.432   1.469   7.583 -0.3984  3.4825  1.6963
   80CHL1    C9 8363   2.268   1.324   7.599 -0.3506 -0.5052 -0.7462
   80CHL1    H9 8364   2.337   1.247   7.557 -0.6561  0.3645 -3.0088
   80CHL1   C10 8365   2.182   1.373   7.481 -0.4955  0.4179  0.1064
   80CHL1   C19 8366   2.089   1.489   7.516 -0.5791 -0.0727  0.0696
   80CHL1  H19A 8367   2.154   1.578   7.533  0.9664 -0.7763 -1.7845
   80CHL1  H19B 8368   2.021   1.518   7.433 -3.1279 -1.3583  1.5794
   80CHL1  H19C 8369   2.021   1.482   7.604 -1.5332 -0.7926 -0.7114
   80CHL1    C1 8370   2.293   1.409   7.370 -0.0149 -0.2927 -0.3746
   80CHL1   H1A 8371   2.352   1.497   7.404 -1.1689  0.5047 -0.3704
   80CHL1   H1B 8372   2.355   1.319   7.350 -2.5853 -2.6983  1.6265
   80CHL1    C2 8373   2.230   1.444   7.230 -0.2215 -0.3807 -0.5300
   80CHL1   H2A 8374   2.306   1.429   7.150  0.0466 -1.7401 -0.0534
   80CHL1   H2B 8375   2.183   1.544   7.228 -0.6059 -0.5650 -1.6159
   80CHL1   C20 8376   2.516   1.307   8.108  0.4372 -0.3820 -0.8318
   80CHL1   H20 8377   2.440   1.372   8.156 -0.9678 -2.5140 -0.0078
   80CHL1   C21 8378   2.627   1.403   8.066 -0.9749 -0.4934  0.0706
   80CHL1  H21A 8379   2.666   1.461   8.151 -0.6049  2.8805 -2.2060
   80CHL1  H21B 8380   2.594   1.483   7.996  1.0633  0.1860 -0.1760
   80CHL1  H21C 8381   2.715   1.356   8.017 -0.4072  1.4653 -0.8672
   80CHL1   C22 8382   2.578   1.208   8.219  0.0344  0.2709  0.5216
   80CHL1  H22A 8383   2.631   1.264   8.300 -0.5505 -0.7989  1.6913
   80CHL1  H22B 8384   2.491   1.154   8.263  0.0102  0.4549  0.6990
   80CHL1   C23 8385   2.672   1.099   8.167  0.1051  0.0880  0.3300
   80CHL1  H23A 8386   2.621   1.039   8.089  2.9622  0.6911 -2.1612
   80CHL1  H23B 8387   2.770   1.136   8.130 -0.6595 -0.9441 -3.0752
   80CHL1   C24 8388   2.681   0.995   8.282  0.9337  0.2217 -0.2621
   80CHL1  H24A 8389   2.742   1.025   8.369 -0.6557 -2.2752  1.8688
   80CHL1  H24B 8390   2.580   0.965   8.318  0.1973  1.4838 -1.1845
   80CHL1   C25 8391   2.749   0.861   8.230  0.0180  0.1849 -0.2397
   80CHL1   H25 8392   2.705   0.831   8.133 -0.7621 -1.8134  0.6825
   80CHL1   C26 8393   2.896   0.888   8.196 -0.0626 -0.2012 -0.6805
   80CHL1  H26A 8394   2.958   0.801   8.166  1.5436  1.1779 -1.5252
   80CHL1  H26B 8395   2.902   0.969   8.120 -2.2297  1.6895  1.0412
   80CHL1  H26C 8396   2.952   0.936   8.278  0.8098  0.8842 -1.8641
   80CHL1   C27 8397   2.725   0.743   8.323 -0.2825 -0.2181 -0.5304
   80CHL1  H27A 8398   2.617   0.723   8.338 -0.0011 -0.6685  1.1669
   80CHL1  H27B 8399   2.760   0.648   8.277 -1.6708  0.0190 -2.1577
   80CHL1  H27C 8400   2.777   0.754   8.420  0.7276 -0.7100 -1.0010
   81CHL1    C3 8401   0.108   3.562   6.718  0.3530  0.4167  0.2058
   81CHL1    H3 8402   0.161   3.647   6.767  1.2292 -1.1846  2.1673
   81CHL1    O3 8403   0.107   3.578   6.575  0.3401  0.1523  0.0847
   81CHL1   H3' 8404   0.196   3.597   6.545  0.0362 -0.8214 -1.5681
   81CHL1    C4 8405   0.183   3.431   6.755 -0.2324  0.1890  0.6547
   81CHL1   H4A 8406   0.147   3.351   6.687  1.7830  0.5806 -1.0073
   81CHL1   H4B 8407   0.290   3.441   6.725 -0.6994  2.7446 -0.4127
   81CHL1    C5 8408   0.167   3.382   6.897  0.2706  0.5710 -0.6116
   81CHL1    C6 8409   0.273   3.353   6.982  0.2729  0.0458 -0.7676
   81CHL1    H6 8410   0.374   3.366   6.941  0.5528  0.4141  0.0326
   81CHL1    C7 8411   0.260   3.297   7.119 -0.5456  0.2041 -0.2996
   81CHL1   H7A 8412   0.324   3.206   7.127  0.9127  1.1453 -0.8861
   81CHL1   H7B 8413   0.300   3.373   7.190 -2.3797  0.3353  0.6424
   81CHL1    C8 8414   0.112   3.254   7.152  0.0063 -0.5642  0.0763
   81CHL1    H8 8415   0.104   3.156   7.099  0.3465 -0.5539  0.0029
   81CHL1   C14 8416   0.094   3.242   7.302  0.6710 -0.4933 -0.3930
   81CHL1   H14 8417   0.106   3.343   7.346 -1.2072 -0.1438 -0.6109
   81CHL1   C15 8418   0.189   3.158   7.386  0.1501  0.4579  0.2000
   81CHL1  H15A 8419   0.230   3.076   7.324 -0.3434  0.2289  0.1726
   81CHL1  H15B 8420   0.273   3.219   7.427 -0.2680  0.2327  1.4387
   81CHL1   C16 8421   0.108   3.110   7.508  0.1669 -0.5304 -0.4017
   81CHL1  H16A 8422   0.100   3.000   7.492  0.2551 -0.3472 -1.9035
   81CHL1  H16B 8423   0.162   3.134   7.601  0.7034 -0.6510 -0.6793
   81CHL1   C17 8424  -0.033   3.178   7.502  0.1886  0.2968  0.1496
   81CHL1   H17 8425  -0.014   3.274   7.553 -0.3889  0.6141 -0.2248
   81CHL1   C13 8426  -0.050   3.198   7.343 -0.4252  0.2515 -0.2712
   81CHL1   C18 8427  -0.079   3.061   7.284 -0.0586 -0.5312 -0.2367
   81CHL1  H18A 8428  -0.089   3.071   7.174 -0.6061  0.2752 -0.1243
   81CHL1  H18B 8429  -0.005   2.984   7.312  2.3237  1.4050 -0.8425
   81CHL1  H18C 8430  -0.182   3.038   7.318  0.4882  1.4184  3.2688
   81CHL1   C12 8431  -0.151   3.296   7.297  0.5318  0.1512 -0.0612
   81CHL1  H12A 8432  -0.253   3.262   7.324  0.1329  1.1368 -0.2885
   81CHL1  H12B 8433  -0.141   3.393   7.350 -0.6728 -0.0564  0.5837
   81CHL1   C11 8434  -0.136   3.330   7.145  0.1895  0.5896 -0.5054
   81CHL1  H11A 8435  -0.166   3.234   7.098 -1.3121 -0.1655  1.7960
   81CHL1  H11B 8436  -0.215   3.399   7.109 -3.1841 -3.0833 -0.8069
   81CHL1    C9 8437   0.009   3.355   7.100  1.3557 -0.1820  0.3614
   81CHL1    H9 8438   0.042   3.445   7.156  1.1417  0.0956  0.0465
   81CHL1   C10 8439   0.021   3.385   6.945 -0.2088  0.3240 -0.3443
   81CHL1   C19 8440  -0.056   3.270   6.871 -0.4772 -0.2541  0.1595
   81CHL1  H19A 8441  -0.050   3.274   6.760 -0.3004 -1.3671  0.1160
   81CHL1  H19B 8442  -0.017   3.170   6.900  2.0450  1.2231  2.3157
   81CHL1  H19C 8443  -0.167   3.270   6.878 -0.4993 -1.0499 -0.1110
   81CHL1    C1 8444  -0.049   3.523   6.912  0.7490 -0.3854 -0.1314
   81CHL1   H1A 8445  -0.156   3.528   6.942  0.9283 -1.3709  0.7285
   81CHL1   H1B 8446   0.005   3.597   6.974 -0.0425  1.3651 -1.4472
   81CHL1    C2 8447  -0.038   3.560   6.768 -0.0439  0.6819  0.2839
   81CHL1   H2A 8448  -0.073   3.664   6.747  1.9713  0.7260 -3.8843
   81CHL1   H2B 8449  -0.098   3.493   6.702 -0.1582  2.0870 -1.1105
   81CHL1   C20 8450  -0.150   3.118   7.579 -0.3176 -0.4004  0.4286
   81CHL1   H20 8451  -0.202   3.036   7.525 -1.8867  0.5962  0.3762
   81CHL1   C21 8452  -0.262   3.223   7.607  0.1336 -0.5280  0.4876
   81CHL1  H21A 8453  -0.272   3.281   7.513  1.4819 -1.3318 -0.1841
   81CHL1  H21B 8454  -0.217   3.297   7.678 -0.6188  0.1289  0.2878
   81CHL1  H21C 8455  -0.356   3.173   7.639 -0.2152 -0.4215 -0.3682
   81CHL1   C22 8456  -0.103   3.060   7.716 -0.0642 -0.2686 -0.0221
   81CHL1  H22A 8457  -0.194   3.002   7.742  0.8210 -2.3342 -1.2268
   81CHL1  H22B 8458  -0.024   2.986   7.690  1.4426  1.6776 -1.2083
   81CHL1   C23 8459  -0.044   3.149   7.819  0.4626  0.3949  1.1546
   81CHL1  H23A 8460   0.031   3.214   7.768  1.6345 -0.4467  1.7625
   81CHL1  H23B 8461  -0.122   3.216   7.862  0.1967  0.7007  0.2262
   81CHL1   C24 8462   0.028   3.074   7.930 -0.6334  0.1681  1.1714
   81CHL1  H24A 8463  -0.050   3.013   7.980 -1.4808 -0.6867 -1.0348
   81CHL1  H24B 8464   0.104   3.004   7.889  2.1439  2.9991  1.1437
   81CHL1   C25 8465   0.087   3.158   8.038 -0.2352  0.2109 -0.8888
   81CHL1   H25 8466   0.001   3.220   8.071  0.2545  1.6768 -2.2000
   81CHL1   C26 8467   0.129   3.081   8.165 -0.4885 -0.1779  0.2560
   81CHL1  H26A 8468   0.226   3.027   8.156 -1.2760 -1.6531  0.2603
   81CHL1  H26B 8469   0.136   3.155   8.247 -0.3865 -1.7136  1.6922
   81CHL1  H26C 8470   0.047   3.013   8.195 -1.1276  0.6197  0.3446
   81CHL1   C27 8471   0.200   3.252   7.994  0.6424  0.2418  0.2478
   81CHL1  H27A 8472   0.237   3.304   8.085 -0.0125 -1.8391  1.7792
   81CHL1  H27B 8473   0.271   3.179   7.950 -0.2136 -0.8421  0.6023
   81CHL1  H27C 8474   0.159   3.322   7.918 -1.3509 -0.8298  0.2788
   82CHL1    C3 8475   1.318   1.820   7.114  0.3852 -0.3474  0.1992
   82CHL1    H3 8476   1.421   1.860   7.097  1.2583  0.1268  5.0702
   82CHL1    O3 8477   1.244   1.861   7.001 -0.3854 -0.6011  0.1475
   82CHL1   H3' 8478   1.162   1.874   7.048  1.0235  0.0826  2.5743
   82CHL1    C4 8479   1.328   1.662   7.117  0.2247 -0.1971 -0.0049
   82CHL1   H4A 8480   1.226   1.623   7.138 -0.2771  1.9365  1.8679
   82CHL1   H4B 8481   1.364   1.634   7.015 -2.0118 -1.4143 -0.5334
   82CHL1    C5 8482   1.413   1.612   7.226 -0.5765  0.0113  0.0601
   82CHL1    C6 8483   1.525   1.536   7.211 -0.7213  0.1473 -0.9838
   82CHL1    H6 8484   1.559   1.503   7.111  0.7080  1.7989 -1.0921
   82CHL1    C7 8485   1.604   1.485   7.328  0.2623 -0.2688 -0.2425
   82CHL1   H7A 8486   1.605   1.374   7.324 -1.3285 -0.3191  0.0461
   82CHL1   H7B 8487   1.706   1.528   7.335  1.3116 -2.2701 -2.1211
   82CHL1    C8 8488   1.532   1.505   7.464 -0.3656  0.1490 -0.4314
   82CHL1    H8 8489   1.451   1.429   7.463 -0.7502  0.5422 -2.4283
   82CHL1   C14 8490   1.625   1.466   7.583  0.7719 -0.3383  0.4140
   82CHL1   H14 8491   1.707   1.537   7.561  0.5035 -0.7222 -2.0522
   82CHL1   C15 8492   1.682   1.326   7.593 -0.0609  0.0136 -0.1797
   82CHL1  H15A 8493   1.609   1.248   7.560 -0.5168  0.3624 -0.0070
   82CHL1  H15B 8494   1.774   1.322   7.530  1.1934 -1.3943  1.6388
   82CHL1   C16 8495   1.724   1.302   7.739  0.2225  0.8444 -0.6489
   82CHL1  H16A 8496   1.671   1.217   7.787  3.5804 -0.4511  1.1137
   82CHL1  H16B 8497   1.833   1.283   7.751 -0.0113  0.2113  0.7100
   82CHL1   C17 8498   1.687   1.438   7.815  0.6827  0.4449  0.6801
   82CHL1   H17 8499   1.769   1.510   7.792  1.1062 -0.4274 -0.6608
   82CHL1   C13 8500   1.567   1.488   7.726  0.1337  0.0091  0.3152
   82CHL1   C18 8501   1.444   1.395   7.744 -0.1348 -0.4031  0.0873
   82CHL1  H18A 8502   1.398   1.413   7.844 -2.3665 -1.3116 -0.7233
   82CHL1  H18B 8503   1.367   1.411   7.666 -0.2314 -1.6643 -0.1051
   82CHL1  H18C 8504   1.466   1.286   7.735  2.4545  0.1581 -1.4362
   82CHL1   C12 8505   1.530   1.633   7.743  0.1292  0.2728 -0.3030
   82CHL1  H12A 8506   1.477   1.653   7.839 -2.0051 -0.3092 -1.2784
   82CHL1  H12B 8507   1.620   1.697   7.731  0.4110 -0.0820 -0.0773
   82CHL1   C11 8508   1.429   1.674   7.628 -0.5675 -0.6008  0.1916
   82CHL1  H11A 8509   1.333   1.623   7.650 -0.6545 -0.4206  0.2334
   82CHL1  H11B 8510   1.402   1.782   7.626 -2.6735 -1.0894 -1.6225
   82CHL1    C9 8511   1.473   1.645   7.483 -0.0669 -0.1566 -0.5195
   82CHL1    H9 8512   1.548   1.727   7.472 -0.1309  0.2918  1.9045
   82CHL1   C10 8513   1.371   1.669   7.367  0.3067  0.0878  0.3004
   82CHL1   C19 8514   1.237   1.604   7.406 -0.1670 -0.1891 -0.3551
   82CHL1  H19A 8515   1.192   1.639   7.502  0.1038 -0.4973 -0.1146
   82CHL1  H19B 8516   1.159   1.618   7.329 -0.2913 -0.8908 -0.3669
   82CHL1  H19C 8517   1.253   1.495   7.423 -0.6478 -0.3100 -0.6687
   82CHL1    C1 8518   1.352   1.824   7.353 -0.6241 -0.3764  0.4521
   82CHL1   H1A 8519   1.319   1.870   7.448  0.3224  2.1276 -0.3463
   82CHL1   H1B 8520   1.451   1.871   7.336  0.2045 -2.3251 -0.5449
   82CHL1    C2 8521   1.261   1.877   7.238 -1.0451 -0.0563  0.2683
   82CHL1   H2A 8522   1.267   1.988   7.229  0.0844 -0.2037 -1.0853
   82CHL1   H2B 8523   1.151   1.861   7.240 -1.3278  1.0491 -2.4352
   82CHL1   C20 8524   1.668   1.419   7.965  0.1175 -0.3160 -0.4242
   82CHL1   H20 8525   1.582   1.351   7.986 -0.8931  0.8702 -0.6004
   82CHL1   C21 8526   1.652   1.553   8.038  0.0659 -0.8446 -0.2882
   82CHL1  H21A 8527   1.743   1.617   8.049 -0.7634 -0.0325  2.7237
   82CHL1  H21B 8528   1.605   1.530   8.136 -1.2063 -2.3098 -1.1984
   82CHL1  H21C 8529   1.579   1.628   8.000  2.7774  1.8883 -0.5313
   82CHL1   C22 8530   1.793   1.348   8.022 -0.1023  0.9116 -0.3058
   82CHL1  H22A 8531   1.774   1.243   7.991 -1.6918  1.5481 -1.6370
   82CHL1  H22B 8532   1.880   1.395   7.971  1.6420 -0.6983  1.0490
   82CHL1   C23 8533   1.808   1.337   8.175 -0.1515 -0.4269 -0.5569
   82CHL1  H23A 8534   1.816   1.434   8.229  0.3849 -1.1260  0.6699
   82CHL1  H23B 8535   1.712   1.291   8.209  0.6410 -1.4666  0.3331
   82CHL1   C24 8536   1.937   1.251   8.210  0.3324  0.3926  0.6218
   82CHL1  H24A 8537   1.919   1.152   8.162  1.6515 -0.0980  1.0765
   82CHL1  H24B 8538   2.028   1.291   8.162 -0.7037 -0.1878 -1.9733
   82CHL1   C25 8539   1.956   1.239   8.360 -0.3397  0.4644 -0.1819
   82CHL1   H25 8540   1.866   1.191   8.404 -0.2412  0.6239  0.1929
   82CHL1   C26 8541   2.074   1.148   8.393 -0.1657 -0.3627 -0.2992
   82CHL1  H26A 8542   2.071   1.055   8.332  1.7552 -0.7880  0.1755
   82CHL1  H26B 8543   2.159   1.217   8.374  0.7608 -0.1503  3.6719
   82CHL1  H26C 8544   2.086   1.122   8.501 -0.4517 -0.3228 -0.2596
   82CHL1   C27 8545   1.982   1.372   8.427  0.8614  0.4748 -0.5471
   82CHL1  H27A 8546   2.026   1.440   8.352  0.2297  0.8837 -0.5627
   82CHL1  H27B 8547   1.883   1.420   8.449  0.4995  0.9688 -3.0303
   82CHL1  H27C 8548   2.039   1.356   8.521  1.3643 -1.4164 -1.1318
   83CHL1    C3 8549   3.985   6.110   7.028 -1.1152  0.1599  1.4218
   83CHL1    H3 8550   4.010   6.217   7.042  0.5480  0.2358 -1.4174
   83CHL1    O3 8551   3.972   6.089   6.888 -0.8305  0.2261 -0.2336
   83CHL1   H3' 8552   3.984   5.995   6.874 -3.0386 -0.0884 -0.3715
   83CHL1    C4 8553   4.097   6.016   7.074  0.0703  0.6663  0.7634
   83CHL1   H4A 8554   4.084   5.915   7.031  0.0141  1.6510 -1.7022
   83CHL1   H4B 8555   4.184   6.067   7.027 -0.6723  1.9183  0.7105
   83CHL1    C5 8556   4.108   6.010   7.224 -0.1799 -0.3592 -0.3404
   83CHL1    C6 8557   4.229   6.037   7.276  0.2584  0.0062  0.2792
   83CHL1    H6 8558   4.319   6.055   7.214  0.9527 -1.5911  0.7751
   83CHL1    C7 8559   4.249   6.020   7.421  0.3432  0.3754 -0.1714
   83CHL1   H7A 8560   4.335   5.950   7.427 -1.4747 -2.0224 -0.2458
   83CHL1   H7B 8561   4.277   6.120   7.460  0.1848  0.6914 -0.8442
   83CHL1    C8 8562   4.133   5.956   7.498 -0.4620  1.1657 -0.5395
   83CHL1    H8 8563   4.148   5.847   7.479 -1.2349  0.7248  1.2119
   83CHL1   C14 8564   4.145   5.980   7.650 -0.5633 -0.2045  0.6011
   83CHL1   H14 8565   4.139   6.091   7.655 -0.1374  0.0072 -1.9310
   83CHL1   C15 8566   4.272   5.932   7.717 -0.1331 -0.2260  0.0182
   83CHL1  H15A 8567   4.313   5.839   7.671  1.3328  1.0333 -1.3648
   83CHL1  H15B 8568   4.363   5.996   7.710 -0.1581 -0.1840  0.0855
   83CHL1   C16 8569   4.231   5.917   7.867  0.1321  0.1188  0.4154
   83CHL1  H16A 8570   4.247   5.810   7.891 -0.9654 -0.4094 -1.0448
   83CHL1  H16B 8571   4.287   5.989   7.931 -1.9116  3.9443 -1.7167
   83CHL1   C17 8572   4.080   5.950   7.872  0.1437 -1.1135  0.2739
   83CHL1   H17 8573   4.067   6.058   7.896 -1.7268 -1.4786  1.1624
   83CHL1   C13 8574   4.034   5.919   7.730 -0.3372 -0.4777 -0.2349
   83CHL1   C18 8575   4.037   5.765   7.706  0.1395  0.0952  0.2674
   83CHL1  H18A 8576   4.009   5.738   7.602  0.4661  2.5681 -0.5435
   83CHL1  H18B 8577   4.134   5.712   7.717 -0.6784 -1.7069 -0.7672
   83CHL1  H18C 8578   3.961   5.716   7.771  0.4011  0.3386  0.7680
   83CHL1   C12 8579   3.894   5.976   7.686  0.0793 -0.2695  0.2169
   83CHL1  H12A 8580   3.824   5.907   7.737 -2.0423 -0.6575 -2.9175
   83CHL1  H12B 8581   3.870   6.082   7.707  0.1771  0.3139 -2.2229
   83CHL1   C11 8582   3.874   5.961   7.532 -0.2569 -0.0140 -0.1336
   83CHL1  H11A 8583   3.840   5.857   7.514 -0.2687 -0.4389  1.9986
   83CHL1  H11B 8584   3.798   6.038   7.506 -0.0863 -0.3581 -1.7376
   83CHL1    C9 8585   3.997   6.009   7.450 -0.1721  0.0447 -0.9645
   83CHL1    H9 8586   3.988   6.118   7.469  1.8466 -0.1732  1.8193
   83CHL1   C10 8587   3.976   5.983   7.307 -0.3540 -0.5895  0.2607
   83CHL1   C19 8588   3.936   5.840   7.282 -0.3816  1.0345  0.5498
   83CHL1  H19A 8589   4.000   5.766   7.334 -0.6767 -0.5388 -1.2407
   83CHL1  H19B 8590   3.829   5.821   7.304  0.1524 -1.9579  0.9886
   83CHL1  H19C 8591   3.942   5.830   7.171 -0.9026  1.4696  0.4753
   83CHL1    C1 8592   3.873   6.080   7.251  0.1853  0.6311  0.3293
   83CHL1   H1A 8593   3.769   6.064   7.288 -0.6975 -1.1944 -2.5860
   83CHL1   H1B 8594   3.901   6.186   7.270 -1.4930  0.9731  1.1134
   83CHL1    C2 8595   3.856   6.068   7.095 -0.1355 -0.1870  0.1838
   83CHL1   H2A 8596   3.778   6.139   7.062 -2.2875 -2.5082  0.0130
   83CHL1   H2B 8597   3.820   5.967   7.065 -0.3737  0.2111 -0.8969
   83CHL1   C20 8598   4.021   5.864   7.984 -0.7082  0.5607 -0.6292
   83CHL1   H20 8599   4.022   5.759   7.947 -1.4536  0.7201 -1.1368
   83CHL1   C21 8600   3.870   5.897   8.006  0.5208  0.0985  0.5755
   83CHL1  H21A 8601   3.810   5.852   7.924  2.1910  0.5506 -0.9671
   83CHL1  H21B 8602   3.855   6.006   7.987  0.6768  0.1763  0.8949
   83CHL1  H21C 8603   3.831   5.875   8.107 -0.1516  0.0240  0.2999
   83CHL1   C22 8604   4.102   5.859   8.117 -0.6906  0.2779  0.0179
   83CHL1  H22A 8605   4.209   5.840   8.096 -0.6149  1.3014 -0.6294
   83CHL1  H22B 8606   4.090   5.961   8.159 -1.9278  0.5658 -0.9478
   83CHL1   C23 8607   4.058   5.754   8.222  0.2293  0.9304  0.4322
   83CHL1  H23A 8608   3.948   5.766   8.220  0.0790 -0.2162 -2.1023
   83CHL1  H23B 8609   4.074   5.651   8.185 -0.8120  1.3406 -1.2723
   83CHL1   C24 8610   4.110   5.784   8.365  0.0680  0.1353 -0.3818
   83CHL1  H24A 8611   4.220   5.799   8.357 -0.0998  1.0785 -1.0585
   83CHL1  H24B 8612   4.066   5.877   8.408  1.5745  0.3258  0.8703
   83CHL1   C25 8613   4.100   5.656   8.454 -0.5470  0.2249 -0.1935
   83CHL1   H25 8614   4.113   5.567   8.388  2.0015 -0.5832  1.2795
   83CHL1   C26 8615   4.208   5.651   8.566  0.1144 -0.4180 -0.0018
   83CHL1  H26A 8616   4.219   5.547   8.605 -0.4520  0.0458  1.4228
   83CHL1  H26B 8617   4.308   5.676   8.524  0.8164 -2.1231  0.5614
   83CHL1  H26C 8618   4.182   5.713   8.654  1.5415 -1.5716  1.2827
   83CHL1   C27 8619   3.955   5.643   8.508  0.1806 -0.2328  0.2995
   83CHL1  H27A 8620   3.935   5.691   8.607 -1.9860  0.3395 -0.3694
   83CHL1  H27B 8621   3.882   5.672   8.429  1.3853  2.8025  0.1485
   83CHL1  H27C 8622   3.933   5.535   8.520  0.4945 -0.3458 -0.1553
   84CHL1    C3 8623   3.389   0.300   7.068 -0.0513 -0.3600 -0.6484
   84CHL1    H3 8624   3.283   0.303   7.101 -0.1704 -2.2530 -0.7870
   84CHL1    O3 8625   3.389   0.341   6.927  0.1667  0.0135 -0.6358
   84CHL1   H3' 8626   3.407   0.269   6.866 -0.3461 -0.6120 -0.0654
   84CHL1    C4 8627   3.464   0.406   7.155 -0.0040  0.1346 -0.2029
   84CHL1   H4A 8628   3.567   0.415   7.114  0.9804 -1.1277  1.8168
   84CHL1   H4B 8629   3.416   0.506   7.156 -1.9392 -0.7329  1.5036
   84CHL1    C5 8630   3.465   0.359   7.304  0.8215  0.1171  0.2057
   84CHL1    C6 8631   3.415   0.442   7.400  0.1250 -0.0796 -0.2209
   84CHL1    H6 8632   3.371   0.541   7.383 -0.2132  0.0832  1.3884
   84CHL1    C7 8633   3.418   0.393   7.544 -0.2816  0.1757 -0.2085
   84CHL1   H7A 8634   3.439   0.481   7.608 -1.7175  1.5495 -1.5208
   84CHL1   H7B 8635   3.320   0.348   7.569 -1.5792  2.2126 -1.3024
   84CHL1    C8 8636   3.533   0.288   7.566  0.8827 -0.2751  0.4301
   84CHL1    H8 8637   3.630   0.339   7.558  2.4353 -2.6739  2.3355
   84CHL1   C14 8638   3.524   0.232   7.710 -0.4582 -1.0537  0.5950
   84CHL1   H14 8639   3.423   0.185   7.710 -1.9086  1.7875 -0.7987
   84CHL1   C15 8640   3.506   0.336   7.828 -0.6779  0.1107 -0.4106
   84CHL1  H15A 8641   3.577   0.418   7.804 -1.5221  0.9545 -0.0450
   84CHL1  H15B 8642   3.404   0.377   7.823  0.6763  4.1904  1.4453
   84CHL1   C16 8643   3.548   0.254   7.951 -0.1213 -0.8769  0.1250
   84CHL1  H16A 8644   3.641   0.306   7.984  1.3159 -2.9970 -0.3678
   84CHL1  H16B 8645   3.469   0.255   8.029 -0.2869 -1.1113 -0.0391
   84CHL1   C17 8646   3.581   0.111   7.893  0.3209  0.4421  0.2225
   84CHL1   H17 8647   3.489   0.054   7.870  0.1648  0.9513 -0.4528
   84CHL1   C13 8648   3.626   0.132   7.745 -0.3733  0.4472 -0.2791
   84CHL1   C18 8649   3.769   0.196   7.735  0.0256 -0.4219 -0.4817
   84CHL1  H18A 8650   3.809   0.221   7.634  1.5090  1.5582  0.5302
   84CHL1  H18B 8651   3.769   0.287   7.798 -0.2322 -0.4737 -0.4049
   84CHL1  H18C 8652   3.835   0.124   7.789 -0.5228  0.0814  0.9039
   84CHL1   C12 8653   3.603   0.014   7.647  0.2542  1.1804  0.0022
   84CHL1  H12A 8654   3.676  -0.069   7.652  0.7324  1.4184 -2.1843
   84CHL1  H12B 8655   3.499  -0.026   7.649 -0.0631  1.9519 -0.5955
   84CHL1   C11 8656   3.614   0.065   7.503 -0.1575  0.0685  0.5595
   84CHL1  H11A 8657   3.722   0.086   7.485  0.2522 -1.3596  1.2297
   84CHL1  H11B 8658   3.604  -0.016   7.428  0.2817 -0.7968  1.4132
   84CHL1    C9 8659   3.519   0.180   7.462 -0.1865 -0.5553 -0.6057
   84CHL1    H9 8660   3.419   0.134   7.478 -0.3976 -0.0577 -0.4692
   84CHL1   C10 8661   3.532   0.222   7.319 -0.6722 -0.4351  0.5194
   84CHL1   C19 8662   3.677   0.234   7.271 -1.1538  0.0043  0.2578
   84CHL1  H19A 8663   3.739   0.146   7.295  0.7029  1.0489 -0.4909
   84CHL1  H19B 8664   3.690   0.244   7.161  0.8452 -0.2083  0.4398
   84CHL1  H19C 8665   3.733   0.323   7.307 -1.2481  1.3936 -2.6979
   84CHL1    C1 8666   3.452   0.114   7.227  0.2631  0.0112  0.0394
   84CHL1   H1A 8667   3.501   0.014   7.235  2.8730  1.2060  0.2331
   84CHL1   H1B 8668   3.345   0.110   7.256  0.1817  0.9966 -0.1207
   84CHL1    C2 8669   3.447   0.158   7.076 -0.4944  0.2131  0.5677
   84CHL1   H2A 8670   3.383   0.092   7.015  2.0486 -0.0037 -2.0724
   84CHL1   H2B 8671   3.552   0.155   7.041  0.2193 -0.7790  2.6580
   84CHL1   C20 8672   3.676   0.036   7.989  0.5319  0.3099  0.3102
   84CHL1   H20 8673   3.773   0.092   7.987 -0.6356  2.4686  0.5804
   84CHL1   C21 8674   3.711  -0.105   7.938  0.2066  0.5835  0.1638
   84CHL1  H21A 8675   3.620  -0.166   7.922 -0.4728  0.8390  2.5794
   84CHL1  H21B 8676   3.779  -0.157   8.009  1.5148  3.0234  0.8375
   84CHL1  H21C 8677   3.774  -0.096   7.847 -0.9239 -0.4611 -0.7409
   84CHL1   C22 8678   3.631   0.032   8.134  0.1389 -0.0755 -0.2106
   84CHL1  H22A 8679   3.703  -0.028   8.193  0.4567  1.4516  1.0450
   84CHL1  H22B 8680   3.635   0.135   8.175  1.6049 -0.8444  1.6909
   84CHL1   C23 8681   3.491  -0.024   8.165  0.0612 -0.5637 -0.4955
   84CHL1  H23A 8682   3.416   0.049   8.128  1.1075 -0.2476 -2.0876
   84CHL1  H23B 8683   3.484  -0.122   8.113  0.8976 -2.3086  2.4247
   84CHL1   C24 8684   3.458  -0.055   8.318  0.5828 -0.2679 -0.1143
   84CHL1  H24A 8685   3.353  -0.091   8.326  0.3514  0.3724 -0.1643
   84CHL1  H24B 8686   3.509  -0.150   8.345 -2.7686 -2.1061  0.3173
   84CHL1   C25 8687   3.485   0.064   8.403 -0.3705 -0.0698 -0.2595
   84CHL1   H25 8688   3.589   0.098   8.383  0.4066 -1.8559  0.5087
   84CHL1   C26 8689   3.391   0.180   8.378  0.1313  0.2851 -0.6708
   84CHL1  H26A 8690   3.422   0.231   8.284  1.6391  1.8011  0.5833
   84CHL1  H26B 8691   3.283   0.153   8.376 -0.4439  2.2478  0.4375
   84CHL1  H26C 8692   3.410   0.259   8.454  1.9162 -0.0988 -0.6936
   84CHL1   C27 8693   3.488   0.016   8.552  0.1409 -0.5578 -0.5843
   84CHL1  H27A 8694   3.555  -0.070   8.571  1.0725  0.7616  2.8860
   84CHL1  H27B 8695   3.496   0.103   8.620 -1.4637 -1.6967  1.1635
   84CHL1  H27C 8696   3.389  -0.025   8.581  0.2690  0.7611  1.9379
   85CHL1    C3 8697   5.895   5.410   6.680 -0.1314  0.4137  0.1553
   85CHL1    H3 8698   5.859   5.320   6.734 -0.8793  0.2901 -0.5299
   85CHL1    O3 8699   5.873   5.410   6.541 -0.8342  0.6191 -0.4969
   85CHL1   H3' 8700   5.921   5.332   6.512  1.3731  2.1075 -1.1056
   85CHL1    C4 8701   5.827   5.539   6.735  0.1370  0.1130  0.0165
   85CHL1   H4A 8702   5.868   5.631   6.688 -0.9362 -0.2449 -1.7267
   85CHL1   H4B 8703   5.720   5.535   6.705  0.4982  0.9557 -1.4919
   85CHL1    C5 8704   5.842   5.532   6.892 -0.1931 -0.0077  0.2308
   85CHL1    C6 8705   5.730   5.528   6.966 -0.0324  0.4686  0.3082
   85CHL1    H6 8706   5.639   5.537   6.905  1.4287 -1.2746 -2.3120
   85CHL1    C7 8707   5.736   5.526   7.116 -0.0389  0.4315  0.0273
   85CHL1   H7A 8708   5.674   5.602   7.169 -1.1455 -1.6003  1.7992
   85CHL1   H7B 8709   5.676   5.439   7.152 -2.6674  1.2554 -2.0739
   85CHL1    C8 8710   5.877   5.541   7.178  0.5810  0.1134 -0.4737
   85CHL1    H8 8711   5.895   5.651   7.173 -2.3876  0.6404 -1.6447
   85CHL1   C14 8712   5.869   5.487   7.314 -0.0708  0.9187 -0.6796
   85CHL1   H14 8713   5.849   5.378   7.312  0.7139  0.7305  0.7042
   85CHL1   C15 8714   5.757   5.531   7.411 -0.2320 -0.1101  0.2041
   85CHL1  H15A 8715   5.731   5.638   7.392 -0.1069 -0.3024 -1.2011
   85CHL1  H15B 8716   5.673   5.468   7.376 -0.0019 -1.5945  2.1876
   85CHL1   C16 8717   5.813   5.510   7.554 -0.4180 -0.5511 -0.2480
   85CHL1  H16A 8718   5.839   5.606   7.603  1.3330 -0.7207 -0.7858
   85CHL1  H16B 8719   5.739   5.459   7.619  1.7176 -1.0948  1.8780
   85CHL1   C17 8720   5.948   5.428   7.532 -0.7539  0.6777 -0.5135
   85CHL1   H17 8721   5.909   5.326   7.514 -1.0242  0.5786  0.5459
   85CHL1   C13 8722   5.998   5.481   7.397 -0.1109  0.3227 -0.1692
   85CHL1   C18 8723   6.044   5.630   7.417 -0.7804 -0.7779 -0.3049
   85CHL1  H18A 8724   5.959   5.682   7.465 -0.7653 -2.2250  1.4100
   85CHL1  H18B 8725   6.129   5.625   7.489 -1.1881 -2.5644  0.1167
   85CHL1  H18C 8726   6.064   5.676   7.318  0.7346 -2.4276 -0.8343
   85CHL1   C12 8727   6.098   5.394   7.312  0.3900  0.3739  0.7874
   85CHL1  H12A 8728   6.191   5.383   7.371 -1.2841 -3.3809  3.0788
   85CHL1  H12B 8729   6.061   5.290   7.315 -0.1167  0.4907 -0.6495
   85CHL1   C11 8730   6.117   5.441   7.170  0.7536 -0.4962  0.1028
   85CHL1  H11A 8731   6.176   5.535   7.170  1.1990 -0.7734 -0.1373
   85CHL1  H11B 8732   6.180   5.370   7.113 -0.6616 -0.6813 -1.3123
   85CHL1    C9 8733   5.979   5.457   7.101 -0.5699 -1.0802 -0.3160
   85CHL1    H9 8734   5.938   5.354   7.104 -0.7060 -1.0284 -0.4137
   85CHL1   C10 8735   5.984   5.500   6.951  0.4163  0.4489  0.0555
   85CHL1   C19 8736   6.064   5.641   6.930 -0.4682  0.8104  0.1897
   85CHL1  H19A 8737   6.083   5.668   6.824 -1.8004  1.3490  0.0732
   85CHL1  H19B 8738   6.024   5.722   6.994 -0.9350  0.5497  0.2304
   85CHL1  H19C 8739   6.167   5.625   6.970 -0.5041 -0.9498 -0.3583
   85CHL1    C1 8740   6.066   5.393   6.865  0.0929  0.2530  0.1629
   85CHL1   H1A 8741   6.171   5.383   6.902 -0.2437 -1.0334  0.8518
   85CHL1   H1B 8742   6.024   5.291   6.879 -0.1626  0.4933  1.2699
   85CHL1    C2 8743   6.048   5.410   6.710  0.5211 -0.0261 -0.0880
   85CHL1   H2A 8744   6.094   5.333   6.645  1.1392  1.5436 -1.6012
   85CHL1   H2B 8745   6.078   5.510   6.671  0.3190  0.0554 -0.0358
   85CHL1   C20 8746   6.039   5.427   7.658 -1.0554  0.2684  0.8927
   85CHL1   H20 8747   6.077   5.530   7.672 -1.3569  0.3360  1.2226
   85CHL1   C21 8748   6.163   5.330   7.642  0.1849  0.4116 -0.3872
   85CHL1  H21A 8749   6.223   5.348   7.734 -1.4604 -0.2996  0.8628
   85CHL1  H21B 8750   6.228   5.340   7.552  0.0947  0.2429 -0.4710
   85CHL1  H21C 8751   6.124   5.227   7.655  2.3920 -0.4160  0.1073
   85CHL1   C22 8752   5.955   5.390   7.783  0.0654  0.0953 -0.0463
   85CHL1  H22A 8753   5.877   5.469   7.792 -1.8040 -1.8381  1.5776
   85CHL1  H22B 8754   5.909   5.290   7.776 -0.6965  0.3521  0.9376
   85CHL1   C23 8755   6.035   5.374   7.914  0.2945 -0.1391 -0.9210
   85CHL1  H23A 8756   6.083   5.275   7.922  1.1823  0.4635  2.6942
   85CHL1  H23B 8757   6.112   5.454   7.924  3.5061 -3.1414  0.2324
   85CHL1   C24 8758   5.938   5.393   8.032  0.5086  0.5110  0.2018
   85CHL1  H24A 8759   5.854   5.459   8.003 -2.1052 -1.3280  2.8981
   85CHL1  H24B 8760   5.899   5.292   8.057 -0.5418  0.0683 -2.8822
   85CHL1   C25 8761   6.003   5.449   8.158 -0.0750 -0.4288 -0.1269
   85CHL1   H25 8762   6.084   5.378   8.184  2.0413  1.8463 -0.1184
   85CHL1   C26 8763   6.069   5.587   8.134  0.2873  0.0544  0.3813
   85CHL1  H26A 8764   6.153   5.574   8.063 -0.8709 -0.9443 -0.8501
   85CHL1  H26B 8765   5.987   5.645   8.084  1.0740  1.0361  0.1885
   85CHL1  H26C 8766   6.102   5.631   8.230 -0.4816 -0.2082  0.7768
   85CHL1   C27 8767   5.902   5.462   8.271  0.1782 -0.2705 -0.5027
   85CHL1  H27A 8768   5.823   5.538   8.252 -1.5058 -1.6186  0.8433
   85CHL1  H27B 8769   5.856   5.363   8.288  1.6561 -1.2011 -1.6930
   85CHL1  H27C 8770   5.951   5.493   8.366 -0.5962 -1.2850  0.2443
   86CHL1    C3 8771   0.456   2.216   6.885 -0.5209 -0.1106 -0.0062
   86CHL1    H3 8772   0.407   2.121   6.913 -0.5894 -0.2479 -0.5673
   86CHL1    O3 8773   0.436   2.236   6.744 -0.1271  0.5768 -0.6264
   86CHL1   H3' 8774   0.470   2.168   6.686 -0.0413  0.8314 -0.8764
   86CHL1    C4 8775   0.399   2.341   6.959 -0.0056 -0.3008 -0.6691
   86CHL1   H4A 8776   0.445   2.438   6.929 -2.2116  1.1151  0.2920
   86CHL1   H4B 8777   0.290   2.336   6.939  0.0776 -4.7199 -1.1489
   86CHL1    C5 8778   0.414   2.327   7.109  0.4640 -0.4455 -0.1530
   86CHL1    C6 8779   0.317   2.345   7.204  0.5537 -0.0880  0.1580
   86CHL1    H6 8780   0.211   2.351   7.177  0.6515  1.0462 -0.0218
   86CHL1    C7 8781   0.340   2.354   7.352  0.0970 -0.6038 -0.3279
   86CHL1   H7A 8782   0.275   2.433   7.395  0.9868 -0.4455  0.7742
   86CHL1   H7B 8783   0.315   2.261   7.407  1.1341 -0.3601  0.6046
   86CHL1    C8 8784   0.485   2.388   7.388  0.3065  0.4602  0.5297
   86CHL1    H8 8785   0.510   2.495   7.371  0.7853  0.5648  1.7892
   86CHL1   C14 8786   0.506   2.357   7.535 -0.3179 -0.5013  0.0317
   86CHL1   H14 8787   0.481   2.250   7.549  2.0724 -1.5643 -2.8506
   86CHL1   C15 8788   0.410   2.426   7.625 -0.5170  0.6162  0.7038
   86CHL1  H15A 8789   0.399   2.533   7.597 -0.6826  0.5833  0.6407
   86CHL1  H15B 8790   0.302   2.401   7.633 -1.1848  2.7461 -0.7354
   86CHL1   C16 8791   0.478   2.402   7.762  0.1045 -0.3812  0.4924
   86CHL1  H16A 8792   0.491   2.499   7.816 -0.8930  0.5584 -0.8991
   86CHL1  H16B 8793   0.411   2.341   7.825 -0.0398  0.0480  0.7638
   86CHL1   C17 8794   0.615   2.337   7.736  0.0860 -0.2844 -0.7732
   86CHL1   H17 8795   0.599   2.232   7.767  0.8908  0.6596  3.5542
   86CHL1   C13 8796   0.648   2.369   7.594  0.7873 -0.1952 -0.1213
   86CHL1   C18 8797   0.688   2.521   7.582 -0.0423  0.8501  0.3146
   86CHL1  H18A 8798   0.618   2.585   7.640  0.2567  0.4942  1.0902
   86CHL1  H18B 8799   0.787   2.530   7.632  0.8300 -0.3644 -1.1151
   86CHL1  H18C 8800   0.703   2.555   7.477 -1.3496  3.2423  0.8393
   86CHL1   C12 8801   0.739   2.272   7.512  0.4469 -0.4074 -0.6541
   86CHL1  H12A 8802   0.847   2.288   7.531  0.5577 -1.6616 -0.1384
   86CHL1  H12B 8803   0.717   2.167   7.541 -0.2290  0.0417  0.5336
   86CHL1   C11 8804   0.724   2.293   7.357  0.1039 -0.3871  0.1678
   86CHL1  H11A 8805   0.770   2.391   7.332 -0.7361 -0.5716 -2.3291
   86CHL1  H11B 8806   0.797   2.225   7.308  1.9766  2.9137 -2.0679
   86CHL1    C9 8807   0.578   2.292   7.307 -0.0994 -0.1224  0.6579
   86CHL1    H9 8808   0.537   2.192   7.334  0.1033 -0.3258  0.2173
   86CHL1   C10 8809   0.559   2.321   7.156 -0.4248 -0.6238  0.1544
   86CHL1   C19 8810   0.647   2.452   7.122  0.8939  0.1976 -0.1379
   86CHL1  H19A 8811   0.755   2.424   7.127  1.6505  2.6992 -0.8293
   86CHL1  H19B 8812   0.640   2.492   7.018  1.0251 -1.2406 -0.7267
   86CHL1  H19C 8813   0.627   2.526   7.202 -2.2877 -1.2916  0.5755
   86CHL1    C1 8814   0.621   2.196   7.078  0.3007 -0.2664 -0.4059
   86CHL1   H1A 8815   0.730   2.185   7.100  0.4777  1.4160 -0.2865
   86CHL1   H1B 8816   0.573   2.099   7.104  0.7848 -0.6809 -1.0365
   86CHL1    C2 8817   0.603   2.208   6.929  0.5091  0.9303  0.3765
   86CHL1   H2A 8818   0.650   2.121   6.879 -2.0124  0.6212 -1.6779
   86CHL1   H2B 8819   0.654   2.299   6.890  1.5150 -0.1067 -0.7787
   86CHL1   C20 8820   0.717   2.379   7.850 -0.3502  0.3656 -0.5524
   86CHL1   H20 8821   0.763   2.477   7.828 -0.0246  0.8036  1.8011
   86CHL1   C21 8822   0.832   2.281   7.854 -0.1809 -0.5182  0.6616
   86CHL1  H21A 8823   0.886   2.280   7.756 -0.4467 -0.4740  0.5144
   86CHL1  H21B 8824   0.801   2.178   7.883 -1.8411 -0.0114  0.7876
   86CHL1  H21C 8825   0.909   2.318   7.925 -0.3793  1.3744 -0.0576
   86CHL1   C22 8826   0.654   2.381   7.993 -0.3605 -0.4373  0.5340
   86CHL1  H22A 8827   0.582   2.467   7.991  0.7904  0.5520 -1.5876
   86CHL1  H22B 8828   0.591   2.289   7.987  0.1605 -0.7126 -1.5153
   86CHL1   C23 8829   0.741   2.399   8.113  0.4320  0.3446  0.3642
   86CHL1  H23A 8830   0.810   2.311   8.120  1.0958  0.6641 -1.6017
   86CHL1  H23B 8831   0.788   2.498   8.098 -0.0882  0.1915 -3.2021
   86CHL1   C24 8832   0.662   2.395   8.246 -1.0653 -0.4555  0.3069
   86CHL1  H24A 8833   0.558   2.434   8.243 -1.2436 -1.0011 -1.3373
   86CHL1  H24B 8834   0.646   2.294   8.289 -1.5204 -0.4106  0.2494
   86CHL1   C25 8835   0.733   2.478   8.348  0.1672  0.1689  0.7245
   86CHL1   H25 8836   0.746   2.584   8.320  0.5364  1.1557  4.2413
   86CHL1   C26 8837   0.657   2.498   8.484 -0.6451  0.0874 -0.1518
   86CHL1  H26A 8838   0.573   2.569   8.468 -0.8824 -0.2676 -0.5214
   86CHL1  H26B 8839   0.628   2.395   8.516  1.4989 -0.0688  1.5472
   86CHL1  H26C 8840   0.731   2.547   8.551  1.8006 -0.1417 -2.5171
   86CHL1   C27 8841   0.874   2.420   8.373 -0.3538  0.5035 -0.9574
   86CHL1  H27A 8842   0.944   2.450   8.292  0.4924  0.3408 -0.3085
   86CHL1  H27B 8843   0.896   2.471   8.469 -1.7731  0.9017 -0.8182
   86CHL1  H27C 8844   0.882   2.311   8.389 -0.3556  0.9345  2.9562
   87CHL1    C3 8845   6.543   6.640   6.897  0.1402 -0.0753 -0.3925
   87CHL1    H3 8846   6.447   6.681   6.936  1.2400  1.0435  1.3008
   87CHL1    O3 8847   6.545   6.646   6.751 -0.2809  0.1213  0.0285
   87CHL1   H3' 8848   6.575   6.733   6.726  0.9490 -0.7388 -1.6503
   87CHL1    C4 8849   6.642   6.739   6.964 -0.2912  0.5467  0.3492
   87CHL1   H4A 8850   6.742   6.709   6.927 -1.2251  1.6742 -3.5454
   87CHL1   H4B 8851   6.607   6.842   6.939  2.0428  1.2200 -0.3817
   87CHL1    C5 8852   6.640   6.718   7.110 -0.1459  0.5424 -0.3390
   87CHL1    C6 8853   6.638   6.825   7.194 -0.3468  0.1752 -0.0215
   87CHL1    H6 8854   6.649   6.930   7.161  1.1821  0.7631  2.1918
   87CHL1    C7 8855   6.629   6.805   7.342 -0.3188 -0.5398 -0.0176
   87CHL1   H7A 8856   6.691   6.882   7.391 -2.1745  1.8996 -1.2885
   87CHL1   H7B 8857   6.523   6.816   7.373 -0.0191 -1.7691  1.5686
   87CHL1    C8 8858   6.679   6.673   7.398 -0.0360 -0.5725 -0.2133
   87CHL1    H8 8859   6.790   6.679   7.397  0.0595  3.5288  3.5618
   87CHL1   C14 8860   6.625   6.657   7.538 -0.1505 -0.0105 -0.4569
   87CHL1   H14 8861   6.514   6.670   7.544 -0.0969 -0.1626  2.3809
   87CHL1   C15 8862   6.660   6.769   7.643  0.3734 -0.0499  0.0409
   87CHL1  H15A 8863   6.767   6.795   7.629  1.0526 -1.8424  1.5211
   87CHL1  H15B 8864   6.596   6.860   7.637  3.2024  2.0482  0.1693
   87CHL1   C16 8865   6.637   6.696   7.779 -0.4676  1.0955 -0.3597
   87CHL1  H16A 8866   6.734   6.700   7.834 -1.9937  3.4841  2.4643
   87CHL1  H16B 8867   6.559   6.746   7.841  0.6123  1.8168  0.4600
   87CHL1   C17 8868   6.598   6.549   7.744  1.2861  1.0905  0.1119
   87CHL1   H17 8869   6.492   6.546   7.711  0.5542  1.6050  2.2633
   87CHL1   C13 8870   6.658   6.519   7.609  0.2951 -0.3230 -0.5627
   87CHL1   C18 8871   6.806   6.503   7.630 -0.6483  0.3742 -0.2199
   87CHL1  H18A 8872   6.836   6.411   7.684 -0.8424  1.9342  2.7693
   87CHL1  H18B 8873   6.847   6.489   7.528 -1.9145 -3.2697 -0.3824
   87CHL1  H18C 8874   6.853   6.590   7.680 -0.0329 -1.1072  1.9420
   87CHL1   C12 8875   6.593   6.409   7.527  0.0753 -0.0682 -0.5707
   87CHL1  H12A 8876   6.604   6.306   7.566  0.4001 -1.1063 -3.2067
   87CHL1  H12B 8877   6.484   6.431   7.532 -0.2134 -1.7008  1.8419
   87CHL1   C11 8878   6.640   6.416   7.380  0.4666 -0.6106 -0.2775
   87CHL1  H11A 8879   6.745   6.380   7.378  0.6406 -0.2001  0.7722
   87CHL1  H11B 8880   6.580   6.338   7.329  0.1610 -0.3040 -0.3950
   87CHL1    C9 8881   6.622   6.556   7.315  0.6702  0.2331  0.1275
   87CHL1    H9 8882   6.513   6.572   7.326  0.3618 -0.8546 -1.0631
   87CHL1   C10 8883   6.639   6.571   7.163 -0.6571  0.2159 -0.3640
   87CHL1   C19 8884   6.782   6.508   7.139 -0.6352 -0.5538  0.3218
   87CHL1  H19A 8885   6.779   6.399   7.158  0.7315 -0.8444 -0.8727
   87CHL1  H19B 8886   6.811   6.528   7.033  1.6502 -0.7821  0.8342
   87CHL1  H19C 8887   6.864   6.554   7.199 -0.1102  0.2803 -0.9800
   87CHL1    C1 8888   6.540   6.476   7.095 -0.2471  0.3074 -0.1203
   87CHL1   H1A 8889   6.537   6.368   7.119 -1.0494 -0.1718 -2.1249
   87CHL1   H1B 8890   6.439   6.511   7.123 -0.5528  1.8634 -2.7835
   87CHL1    C2 8891   6.555   6.489   6.939  0.1810  0.1284  0.3457
   87CHL1   H2A 8892   6.469   6.444   6.885 -0.7471  1.9654  0.1994
   87CHL1   H2B 8893   6.654   6.461   6.897 -1.3132 -0.9061 -2.7884
   87CHL1   C20 8894   6.615   6.462   7.868  0.3020 -0.5446  1.4456
   87CHL1   H20 8895   6.725   6.463   7.885  0.4958  0.6420  0.2342
   87CHL1   C21 8896   6.595   6.310   7.836  0.0153 -0.1230  0.4578
   87CHL1  H21A 8897   6.501   6.287   7.781  0.2639  2.1104 -1.0360
   87CHL1  H21B 8898   6.595   6.258   7.934 -2.7815 -0.9848  0.0808
   87CHL1  H21C 8899   6.674   6.265   7.772  0.7730  1.5367  0.1678
   87CHL1   C22 8900   6.527   6.490   7.992 -0.0889  0.0213 -0.1547
   87CHL1  H22A 8901   6.537   6.406   8.064  1.3170  2.9904  3.4740
   87CHL1  H22B 8902   6.582   6.561   8.058  0.5720 -0.7505  0.1366
   87CHL1   C23 8903   6.379   6.528   7.979 -0.0779 -0.4684  0.1687
   87CHL1  H23A 8904   6.374   6.611   7.906  1.5264  1.9926  2.6357
   87CHL1  H23B 8905   6.322   6.438   7.950 -2.8990  1.0576  0.6449
   87CHL1   C24 8906   6.296   6.583   8.095 -0.0491 -0.3353 -0.3715
   87CHL1  H24A 8907   6.335   6.681   8.131  0.0750 -0.3241 -0.5361
   87CHL1  H24B 8908   6.194   6.603   8.058 -0.4188  0.2940  0.9305
   87CHL1   C25 8909   6.300   6.487   8.217  0.4935  0.3517  0.2483
   87CHL1   H25 8910   6.404   6.448   8.215  0.7517  1.0506 -0.0516
   87CHL1   C26 8911   6.273   6.563   8.344 -0.4857  0.2344  0.6014
   87CHL1  H26A 8912   6.171   6.608   8.339 -0.9401 -0.7884  0.4856
   87CHL1  H26B 8913   6.273   6.495   8.432 -1.3988 -0.8872 -0.2387
   87CHL1  H26C 8914   6.352   6.641   8.359  1.0223 -1.4596  1.8807
   87CHL1   C27 8915   6.199   6.364   8.196  0.8443  0.0118  0.1454
   87CHL1  H27A 8916   6.102   6.407   8.229 -0.3151 -0.9356 -1.8426
   87CHL1  H27B 8917   6.192   6.324   8.092 -0.6602  0.3509  0.0848
   87CHL1  H27C 8918   6.227   6.274   8.255 -0.5887 -0.1242  0.6569
   88CHL1    C3 8919   5.500   0.960   7.040 -0.1854 -0.9933 -0.5669
   88CHL1    H3 8920   5.409   0.898   7.048 -2.7693  2.6843  1.5368
   88CHL1    O3 8921   5.524   0.960   6.905  0.8535 -0.1564 -0.3441
   88CHL1   H3' 8922   5.607   1.009   6.903  1.1438 -0.5001  1.3617
   88CHL1    C4 8923   5.461   1.100   7.081 -0.0262 -0.1010  0.8536
   88CHL1   H4A 8924   5.548   1.169   7.066  0.9174 -1.4694 -0.2803
   88CHL1   H4B 8925   5.377   1.132   7.016  0.3330  1.3415  1.0548
   88CHL1    C5 8926   5.428   1.116   7.230 -0.2034 -0.1325  0.1235
   88CHL1    C6 8927   5.312   1.159   7.269 -0.2901  0.8907  0.4956
   88CHL1    H6 8928   5.237   1.175   7.191  0.4940  0.5959 -0.3335
   88CHL1    C7 8929   5.275   1.175   7.416 -0.0268  0.3540  0.5555
   88CHL1   H7A 8930   5.216   1.268   7.423 -0.6408 -0.0028  0.2427
   88CHL1   H7B 8931   5.209   1.086   7.429 -1.2824  0.9533 -1.2945
   88CHL1    C8 8932   5.398   1.187   7.505 -0.5728  0.2891  0.1977
   88CHL1    H8 8933   5.463   1.277   7.495 -0.0081 -0.1025  0.3026
   88CHL1   C14 8934   5.360   1.162   7.648 -0.5348 -0.0385 -0.0808
   88CHL1   H14 8935   5.320   1.058   7.652  3.1056 -1.5776 -0.0787
   88CHL1   C15 8936   5.251   1.252   7.719  0.1367  0.7289  0.4056
   88CHL1  H15A 8937   5.276   1.360   7.717  1.2992  0.4825  0.8054
   88CHL1  H15B 8938   5.155   1.228   7.669  1.7187 -2.0410 -1.6583
   88CHL1   C16 8939   5.262   1.201   7.868  0.2614 -0.7171 -0.9920
   88CHL1  H16A 8940   5.254   1.290   7.934  1.1553 -0.5238 -1.1247
   88CHL1  H16B 8941   5.184   1.127   7.895  0.9635 -0.8604  0.7803
   88CHL1   C17 8942   5.406   1.135   7.885  1.0021 -0.2577  0.1785
   88CHL1   H17 8943   5.389   1.026   7.872  1.4341 -0.2767 -0.2721
   88CHL1   C13 8944   5.479   1.158   7.745  0.5964  0.0260  0.3561
   88CHL1   C18 8945   5.543   1.299   7.740  0.0572  0.1069  0.2768
   88CHL1  H18A 8946   5.597   1.311   7.643 -0.5094 -0.2333 -0.0840
   88CHL1  H18B 8947   5.465   1.373   7.766 -1.0365 -1.5274  1.8577
   88CHL1  H18C 8948   5.621   1.313   7.818  1.7103  1.2090 -1.4959
   88CHL1   C12 8949   5.575   1.052   7.712 -0.1655  0.5892  0.6134
   88CHL1  H12A 8950   5.661   1.053   7.782 -0.1469  2.7860  0.6052
   88CHL1  H12B 8951   5.523   0.954   7.719  1.5688 -0.2681  2.1872
   88CHL1   C11 8952   5.621   1.065   7.570 -0.6340 -0.2311  0.3478
   88CHL1  H11A 8953   5.689   1.153   7.570 -1.7401  0.7692  3.7034
   88CHL1  H11B 8954   5.681   0.974   7.549 -0.9955 -0.1975 -0.8971
   88CHL1    C9 8955   5.504   1.075   7.472  0.1379 -0.3517  0.3425
   88CHL1    H9 8956   5.455   0.977   7.485  0.8847 -0.9891 -1.3809
   88CHL1   C10 8957   5.540   1.071   7.318 -0.0646 -0.3073  0.0316
   88CHL1   C19 8958   5.654   1.182   7.298  0.0719  0.2620  0.3905
   88CHL1  H19A 8959   5.690   1.193   7.193  0.5068  0.5717  0.5694
   88CHL1  H19B 8960   5.618   1.279   7.339 -0.5251  0.0959  0.2715
   88CHL1  H19C 8961   5.744   1.150   7.354 -0.4995 -0.5634  0.8511
   88CHL1    C1 8962   5.579   0.928   7.274  0.7580  0.5133  0.4650
   88CHL1   H1A 8963   5.664   0.892   7.335  0.9060 -3.6723 -1.8658
   88CHL1   H1B 8964   5.492   0.864   7.300 -0.0404  1.2033 -0.4368
   88CHL1    C2 8965   5.613   0.904   7.124 -0.3685 -0.0532 -0.0539
   88CHL1   H2A 8966   5.614   0.793   7.127 -0.6002 -0.0454  0.5661
   88CHL1   H2B 8967   5.709   0.954   7.098 -0.3109 -1.0500 -1.9329
   88CHL1   C20 8968   5.478   1.155   8.023 -0.7466 -0.1972 -0.2930
   88CHL1   H20 8969   5.579   1.116   7.999 -0.8203  1.4811 -4.0234
   88CHL1   C21 8970   5.402   1.064   8.124 -0.2568  0.5463  0.1913
   88CHL1  H21A 8971   5.408   0.958   8.090 -0.9174  1.2083 -2.1445
   88CHL1  H21B 8972   5.297   1.097   8.138 -0.2542  0.1453  1.2967
   88CHL1  H21C 8973   5.437   1.070   8.229 -1.2352 -2.2559  0.7553
   88CHL1   C22 8974   5.489   1.298   8.066  0.0790  0.1517 -0.6912
   88CHL1  H22A 8975   5.495   1.372   7.984  0.1200 -0.6188 -1.3974
   88CHL1  H22B 8976   5.391   1.306   8.118  0.0096 -1.3549 -0.5383
   88CHL1   C23 8977   5.597   1.330   8.171  0.1459  0.2420  0.1606
   88CHL1  H23A 8978   5.649   1.240   8.211  0.4351  1.1075  1.8117
   88CHL1  H23B 8979   5.677   1.380   8.112 -0.7153  1.8638  0.3087
   88CHL1   C24 8980   5.540   1.428   8.284  0.3201  0.0487  0.5111
   88CHL1  H24A 8981   5.488   1.509   8.228  3.0645  0.3582 -1.8016
   88CHL1  H24B 8982   5.463   1.381   8.349 -2.4052  0.1418 -2.3855
   88CHL1   C25 8983   5.634   1.480   8.387 -0.1177 -0.6120 -0.0956
   88CHL1   H25 8984   5.721   1.517   8.329 -2.0630  1.1399 -2.0309
   88CHL1   C26 8985   5.588   1.588   8.475  0.2179  0.5695 -0.0454
   88CHL1  H26A 8986   5.520   1.533   8.543 -0.0087 -0.7389 -1.2903
   88CHL1  H26B 8987   5.675   1.630   8.530 -0.2971 -1.5603  2.5905
   88CHL1  H26C 8988   5.539   1.672   8.421 -0.1546  1.1433  1.1446
   88CHL1   C27 8989   5.692   1.361   8.470 -0.2218  0.1144 -0.1805
   88CHL1  H27A 8990   5.727   1.280   8.404 -1.8317  0.8700 -2.0587
   88CHL1  H27B 8991   5.768   1.384   8.548  1.1107 -1.8789 -0.8266
   88CHL1  H27C 8992   5.610   1.312   8.527  1.0835 -2.4324 -0.3880
   89CHL1    C3 8993   5.712   0.322   6.995  0.0912  0.0567  0.1988
   89CHL1    H3 8994   5.617   0.380   7.003 -0.5727 -0.9254 -0.3608
   89CHL1    O3 8995   5.759   0.359   6.869 -0.0665 -0.3234 -0.2919
   89CHL1   H3' 8996   5.808   0.441   6.885 -1.5152  0.6214 -0.5384
   89CHL1    C4 8997   5.793   0.373   7.114 -0.0584 -0.0581  0.5574
   89CHL1   H4A 8998   5.898   0.336   7.108  0.7413  1.9210  1.3080
   89CHL1   H4B 8999   5.803   0.483   7.100 -3.6104  0.0084 -2.9004
   89CHL1    C5 9000   5.721   0.342   7.243 -0.1643  0.1910  0.3900
   89CHL1    C6 9001   5.693   0.436   7.331  0.0732 -0.3281 -0.6089
   89CHL1    H6 9002   5.721   0.539   7.307  2.3355 -0.7948 -0.2130
   89CHL1    C7 9003   5.633   0.408   7.472  0.1214  0.4204  0.5571
   89CHL1   H7A 9004   5.681   0.462   7.557 -0.4218  0.8313  0.6080
   89CHL1   H7B 9005   5.531   0.453   7.469  0.7045  1.7489 -0.2929
   89CHL1    C8 9006   5.635   0.255   7.520 -0.1241  0.2681 -0.0187
   89CHL1    H8 9007   5.739   0.230   7.550 -0.6720 -1.4326  0.5987
   89CHL1   C14 9008   5.545   0.231   7.643 -0.0843  0.2391 -0.2941
   89CHL1   H14 9009   5.440   0.257   7.617  0.6312  2.7267 -0.9907
   89CHL1   C15 9010   5.589   0.296   7.774  0.5921 -0.8793  0.0511
   89CHL1  H15A 9011   5.695   0.316   7.798 -0.0921  3.5467  0.3276
   89CHL1  H15B 9012   5.546   0.399   7.769 -1.8325 -1.8797 -1.3944
   89CHL1   C16 9013   5.519   0.209   7.881  0.0638 -0.2140  0.6810
   89CHL1  H16A 9014   5.592   0.169   7.956  0.6383 -0.6979 -0.1201
   89CHL1  H16B 9015   5.447   0.269   7.940  1.0153  0.2840  1.3731
   89CHL1   C17 9016   5.451   0.091   7.806 -0.3391 -0.5715 -0.2822
   89CHL1   H17 9017   5.349   0.127   7.780 -0.3444 -1.5062 -1.6703
   89CHL1   C13 9018   5.532   0.084   7.671  0.2734 -0.3325  0.2097
   89CHL1   C18 9019   5.668   0.018   7.714  0.2326 -0.6105 -0.0906
   89CHL1  H18A 9020   5.732  -0.002   7.625 -1.9997  2.6349 -2.7130
   89CHL1  H18B 9021   5.721   0.089   7.780  1.3629 -2.5971  1.2501
   89CHL1  H18C 9022   5.652  -0.083   7.757  3.0039 -0.7669  0.7515
   89CHL1   C12 9023   5.463   0.014   7.556 -0.2112 -0.7291 -0.2166
   89CHL1  H12A 9024   5.471  -0.094   7.580 -0.3808 -0.5482  0.6843
   89CHL1  H12B 9025   5.358   0.048   7.545 -0.6640 -2.4636 -1.6959
   89CHL1   C11 9026   5.545   0.037   7.431  0.6240  0.0132  0.4761
   89CHL1  H11A 9027   5.632  -0.032   7.442 -0.6435 -1.7434 -0.1534
   89CHL1  H11B 9028   5.497  -0.005   7.341  0.9953  1.0529 -0.2361
   89CHL1    C9 9029   5.589   0.181   7.402  0.1958 -0.9175 -0.0050
   89CHL1    H9 9030   5.494   0.219   7.361  0.4979 -0.7582 -0.5662
   89CHL1   C10 9031   5.680   0.190   7.271 -0.3649 -0.1163 -0.3314
   89CHL1   C19 9032   5.811   0.108   7.280  0.7875 -0.3303 -0.0977
   89CHL1  H19A 9033   5.883   0.121   7.196  0.5931  0.3826 -0.1543
   89CHL1  H19B 9034   5.866   0.139   7.372  0.8075  0.3506 -0.3381
   89CHL1  H19C 9035   5.779   0.002   7.288 -0.6994  0.2557  3.6653
   89CHL1    C1 9036   5.608   0.148   7.142 -0.2326  0.2101 -0.3989
   89CHL1   H1A 9037   5.581   0.040   7.139 -0.3129  0.1925  0.5795
   89CHL1   H1B 9038   5.509   0.198   7.135 -0.7270 -0.1865  2.6319
   89CHL1    C2 9039   5.676   0.170   7.002 -0.6679 -0.1190  0.4815
   89CHL1   H2A 9040   5.597   0.142   6.930 -3.4923  0.7839  2.9983
   89CHL1   H2B 9041   5.766   0.108   6.983 -0.7792  0.3833 -2.0090
   89CHL1   C20 9042   5.441  -0.031   7.901  0.0908 -0.2779 -0.1567
   89CHL1   H20 9043   5.540  -0.066   7.938  1.2043  1.3044 -1.5029
   89CHL1   C21 9044   5.374  -0.152   7.836  0.1801 -0.8376 -0.5391
   89CHL1  H21A 9045   5.438  -0.188   7.752  0.1275  2.1887 -2.0077
   89CHL1  H21B 9046   5.274  -0.129   7.792 -0.1513 -1.2068  0.0067
   89CHL1  H21C 9047   5.358  -0.237   7.905  1.5209 -0.2803  0.5028
   89CHL1   C22 9048   5.353   0.002   8.025  0.3502  0.7292  0.1109
   89CHL1  H22A 9049   5.348  -0.086   8.093 -1.1995 -1.3659 -2.4956
   89CHL1  H22B 9050   5.405   0.076   8.089  1.2453  1.7979 -1.7622
   89CHL1   C23 9051   5.214   0.053   7.996 -0.0046 -0.0278  0.5548
   89CHL1  H23A 9052   5.216   0.146   7.935  1.5123 -0.8428 -0.7233
   89CHL1  H23B 9053   5.167  -0.012   7.919  0.4825 -0.6770  0.8021
   89CHL1   C24 9054   5.121   0.062   8.119  0.6263  0.3473  0.4949
   89CHL1  H24A 9055   5.028   0.120   8.102  0.7607 -0.1384 -2.4255
   89CHL1  H24B 9056   5.095  -0.044   8.141  0.9295 -0.1101 -1.2281
   89CHL1   C25 9057   5.183   0.124   8.241  0.2693 -0.2625  0.4767
   89CHL1   H25 9058   5.275   0.064   8.254  0.5389  0.4178  1.9752
   89CHL1   C26 9059   5.219   0.269   8.223 -0.0965 -1.0674 -0.6493
   89CHL1  H26A 9060   5.135   0.341   8.214  2.1689  2.0887  1.3975
   89CHL1  H26B 9061   5.276   0.297   8.314 -1.5881  0.8257 -0.2488
   89CHL1  H26C 9062   5.280   0.285   8.131  0.4611  0.9361  0.0228
   89CHL1   C27 9063   5.105   0.111   8.365 -0.1585  0.1527 -0.1004
   89CHL1  H27A 9064   5.003   0.152   8.354 -0.9531 -1.7513 -0.2059
   89CHL1  H27B 9065   5.102   0.001   8.380  0.1674 -0.1405 -1.9565
   89CHL1  H27C 9066   5.154   0.154   8.455  0.7762 -2.0249  0.4984
   90CHL1    C3 9067   6.184   0.230   6.894  0.0827  0.3447 -0.6323
   90CHL1    H3 9068   6.075   0.229   6.919  0.9037  1.4545  3.9195
   90CHL1    O3 9069   6.212   0.233   6.755  0.0399  0.4987  1.5683
   90CHL1   H3' 9070   6.305   0.208   6.755  0.7409  2.4126 -1.5242
   90CHL1    C4 9071   6.228   0.360   6.958  0.2436 -0.0662 -0.0673
   90CHL1   H4A 9072   6.334   0.390   6.939  0.4068 -2.0552 -2.8203
   90CHL1   H4B 9073   6.166   0.436   6.906  0.1328 -0.3033 -0.2788
   90CHL1    C5 9074   6.207   0.360   7.107 -0.3362  0.6213  0.1477
   90CHL1    C6 9075   6.147   0.453   7.171 -1.2832 -1.0852 -0.5379
   90CHL1    H6 9076   6.112   0.545   7.121  0.4430 -0.4415 -0.6350
   90CHL1    C7 9077   6.125   0.455   7.320  0.2253  0.5445  0.3572
   90CHL1   H7A 9078   6.146   0.555   7.366  1.6552  0.9225 -1.0233
   90CHL1   H7B 9079   6.015   0.447   7.329  0.3702  0.2817  2.5796
   90CHL1    C8 9080   6.194   0.345   7.405  0.2791  0.3383 -0.3577
   90CHL1    H8 9081   6.299   0.367   7.433  0.9582 -3.1192  0.2259
   90CHL1   C14 9082   6.109   0.317   7.532  0.4312  0.4058 -0.2816
   90CHL1   H14 9083   6.016   0.273   7.488  0.1363  0.9868 -0.2589
   90CHL1   C15 9084   6.061   0.429   7.612  0.3096  0.1149  0.6943
   90CHL1  H15A 9085   6.152   0.491   7.628  1.9679 -2.0221  0.0846
   90CHL1  H15B 9086   5.985   0.496   7.567  0.7223 -0.7113 -1.3480
   90CHL1   C16 9087   6.015   0.372   7.743  0.0384 -0.0736 -0.3094
   90CHL1  H16A 9088   6.058   0.435   7.824 -3.9584  0.9618  1.2504
   90CHL1  H16B 9089   5.907   0.389   7.762 -0.2586 -2.1963  0.1705
   90CHL1   C17 9090   6.049   0.224   7.748 -0.7083  0.4641  0.4710
   90CHL1   H17 9091   5.960   0.175   7.702 -0.3376  2.0962 -2.2377
   90CHL1   C13 9092   6.161   0.217   7.637  0.0302  0.0402 -0.9450
   90CHL1   C18 9093   6.297   0.274   7.694  0.3975  0.4393  0.4974
   90CHL1  H18A 9094   6.374   0.310   7.623 -0.3265 -0.2299 -0.6456
   90CHL1  H18B 9095   6.283   0.364   7.758 -1.1859 -0.7781  1.9656
   90CHL1  H18C 9096   6.348   0.196   7.755 -0.3649  0.3023  0.9789
   90CHL1   C12 9097   6.180   0.081   7.551  0.4186 -0.7888 -1.0458
   90CHL1  H12A 9098   6.219  -0.004   7.611  0.7786  1.4167  2.1015
   90CHL1  H12B 9099   6.078   0.050   7.520 -0.5372 -1.0146  1.9726
   90CHL1   C11 9100   6.256   0.097   7.419  0.1070  0.0976  0.0894
   90CHL1  H11A 9101   6.359   0.133   7.440  0.7990 -2.2701  1.0690
   90CHL1  H11B 9102   6.262   0.010   7.351 -0.7606 -0.4397  0.6737
   90CHL1    C9 9103   6.200   0.216   7.329 -0.5665 -0.3355 -0.3380
   90CHL1    H9 9104   6.092   0.194   7.317 -1.2898  2.1380  0.9416
   90CHL1   C10 9105   6.256   0.227   7.185  1.1233  0.1275 -0.6014
   90CHL1   C19 9106   6.408   0.241   7.191  0.8638 -0.3270 -0.2569
   90CHL1  H19A 9107   6.454   0.165   7.258  0.5810 -1.2365 -1.0791
   90CHL1  H19B 9108   6.467   0.240   7.097  1.1600 -0.1397 -0.0759
   90CHL1  H19C 9109   6.435   0.337   7.242 -0.3865 -0.7998  1.3959
   90CHL1    C1 9110   6.207   0.099   7.102 -0.0000  0.1088 -0.6198
   90CHL1   H1A 9111   6.240   0.004   7.150 -2.7783 -0.1355  1.0527
   90CHL1   H1B 9112   6.096   0.096   7.103 -0.2290  2.1397 -3.9807
   90CHL1    C2 9113   6.239   0.107   6.952 -1.0838 -0.1860  0.1153
   90CHL1   H2A 9114   6.212   0.013   6.900  0.2939  0.3424 -1.6665
   90CHL1   H2B 9115   6.348   0.125   6.942 -1.2052  0.5279  0.0062
   90CHL1   C20 9116   6.068   0.180   7.889 -0.0585  0.0604 -0.0814
   90CHL1   H20 9117   6.155   0.236   7.929 -0.5466 -0.3890  1.7111
   90CHL1   C21 9118   6.104   0.026   7.898  0.6209 -0.4678  0.8187
   90CHL1  H21A 9119   6.008  -0.031   7.898 -0.0604  0.6014 -0.2931
   90CHL1  H21B 9120   6.153   0.004   7.994 -0.1776 -1.8265  0.9295
   90CHL1  H21C 9121   6.162  -0.009   7.810  2.2247 -1.1579  2.1083
   90CHL1   C22 9122   5.941   0.217   7.981  0.6884  0.4117  0.1610
   90CHL1  H22A 9123   5.918   0.325   7.981 -0.1123  0.2704 -1.3914
   90CHL1  H22B 9124   5.854   0.161   7.941  2.6983 -0.4512 -3.3365
   90CHL1   C23 9125   5.968   0.165   8.126 -0.2619  0.1079  0.5691
   90CHL1  H23A 9126   5.986   0.056   8.122 -1.7436 -0.1353 -1.2858
   90CHL1  H23B 9127   6.070   0.194   8.158  0.7512  0.0746 -2.3752
   90CHL1   C24 9128   5.866   0.210   8.239 -0.6564  1.3015  1.0726
   90CHL1  H24A 9129   5.915   0.198   8.338 -0.8236  1.6686  1.2038
   90CHL1  H24B 9130   5.867   0.320   8.224 -0.6472  1.0756 -0.8484
   90CHL1   C25 9131   5.732   0.143   8.245 -0.5817  0.6637  0.0448
   90CHL1   H25 9132   5.677   0.163   8.151 -0.6266 -0.8536 -0.2760
   90CHL1   C26 9133   5.739  -0.007   8.245  0.2235 -0.1102 -0.0693
   90CHL1  H26A 9134   5.784  -0.035   8.343  0.8158  0.7816 -0.0691
   90CHL1  H26B 9135   5.637  -0.050   8.235  1.0532 -2.0830 -0.5753
   90CHL1  H26C 9136   5.797  -0.052   8.161 -0.7175  0.9933 -1.3506
   90CHL1   C27 9137   5.634   0.182   8.362 -0.3138  0.3946 -0.5334
   90CHL1  H27A 9138   5.693   0.196   8.455  0.7263 -1.0201 -0.9459
   90CHL1  H27B 9139   5.589   0.283   8.348 -1.6686  0.0488  1.1051
   90CHL1  H27C 9140   5.554   0.106   8.376 -0.2403  0.6712  1.5685
   91CHL1    C3 9141   2.552   6.443   7.247 -0.1564 -0.3990 -0.2665
   91CHL1    H3 9142   2.491   6.531   7.275  0.3672 -1.0050  3.2492
   91CHL1    O3 9143   2.579   6.459   7.110  0.2072 -0.3451  1.1070
   91CHL1   H3' 9144   2.663   6.505   7.112 -1.1141  2.3160  1.0998
   91CHL1    C4 9145   2.688   6.420   7.312  0.2787  0.0187 -0.2634
   91CHL1   H4A 9146   2.736   6.337   7.256 -0.8508 -0.8772  0.0541
   91CHL1   H4B 9147   2.760   6.501   7.290  0.1118  0.6012  1.2118
   91CHL1    C5 9148   2.668   6.391   7.463 -0.0872  0.3137 -0.2625
   91CHL1    C6 9149   2.745   6.464   7.547  0.5467 -0.4449 -0.0647
   91CHL1    H6 9150   2.802   6.548   7.504 -3.3415  1.2391 -2.5207
   91CHL1    C7 9151   2.747   6.440   7.694  0.0069  0.5929  0.7687
   91CHL1   H7A 9152   2.853   6.437   7.724  0.0301 -0.9654  0.6177
   91CHL1   H7B 9153   2.713   6.531   7.748  3.1380  1.1385  1.9970
   91CHL1    C8 9154   2.678   6.308   7.733  0.2129 -0.6150  0.4336
   91CHL1    H8 9155   2.747   6.224   7.715 -0.7480 -1.4583  0.6051
   91CHL1   C14 9156   2.639   6.323   7.882 -0.5155 -0.4949 -0.1185
   91CHL1   H14 9157   2.555   6.395   7.892 -0.9790 -1.2765  2.1784
   91CHL1   C15 9158   2.737   6.377   7.991 -0.2381 -0.7401  0.0211
   91CHL1  H15A 9159   2.841   6.342   7.974  0.4790  0.1108  2.3666
   91CHL1  H15B 9160   2.751   6.487   7.994 -1.8249 -0.5380  1.7509
   91CHL1   C16 9161   2.689   6.326   8.122  0.2383  0.1323  0.6928
   91CHL1  H16A 9162   2.768   6.272   8.179  0.0320 -0.5121  0.3752
   91CHL1  H16B 9163   2.669   6.417   8.181 -0.5896 -0.4734  1.3643
   91CHL1   C17 9164   2.561   6.237   8.093  0.3993 -0.4347  0.1267
   91CHL1   H17 9165   2.476   6.308   8.095  1.6382  1.1097  0.5139
   91CHL1   C13 9166   2.576   6.197   7.950 -0.0430 -0.1121  0.1206
   91CHL1   C18 9167   2.663   6.068   7.937 -0.3911  0.0420  0.1766
   91CHL1  H18A 9168   2.595   5.982   7.957 -1.8179  1.3988  1.4852
   91CHL1  H18B 9169   2.710   6.066   7.837 -0.9702  3.6375 -0.2977
   91CHL1  H18C 9170   2.758   6.072   7.993  1.1347  2.0127 -2.3587
   91CHL1   C12 9171   2.448   6.178   7.869  0.3522  0.6496  0.2054
   91CHL1  H12A 9172   2.396   6.084   7.896  0.9519  0.1900 -0.2209
   91CHL1  H12B 9173   2.382   6.265   7.890 -0.3846 -0.2223  1.6296
   91CHL1   C11 9174   2.462   6.164   7.718  0.6963 -0.2186  0.3703
   91CHL1  H11A 9175   2.520   6.074   7.689  1.5625  0.2676  0.5445
   91CHL1  H11B 9176   2.363   6.169   7.668  0.3882 -2.2742  0.6732
   91CHL1    C9 9177   2.549   6.285   7.657  0.3140  1.0390 -0.3557
   91CHL1    H9 9178   2.479   6.368   7.680  0.6719  1.3954 -0.5523
   91CHL1   C10 9179   2.569   6.282   7.507 -0.6870 -0.0358  0.0763
   91CHL1   C19 9180   2.635   6.149   7.461 -0.2842 -0.3320 -0.1589
   91CHL1  H19A 9181   2.654   6.148   7.352  1.1176  0.6276  0.0470
   91CHL1  H19B 9182   2.731   6.132   7.514  0.3711  0.6372 -0.9971
   91CHL1  H19C 9183   2.567   6.063   7.476 -0.8456 -0.4573 -2.9152
   91CHL1    C1 9184   2.440   6.305   7.432  0.2968 -0.5223  0.1297
   91CHL1   H1A 9185   2.368   6.222   7.450 -0.2728  0.5021  3.1181
   91CHL1   H1B 9186   2.408   6.403   7.473  1.0988 -0.3204  0.2852
   91CHL1    C2 9187   2.459   6.322   7.279 -0.7801  0.5779  0.5874
   91CHL1   H2A 9188   2.354   6.344   7.249 -0.5203  0.5775 -0.3639
   91CHL1   H2B 9189   2.486   6.227   7.228 -0.7869 -0.5382  2.5949
   91CHL1   C20 9190   2.535   6.129   8.196 -0.2358 -0.2275 -0.5138
   91CHL1   H20 9191   2.632   6.074   8.198 -0.2832 -0.3024  0.9975
   91CHL1   C21 9192   2.403   6.046   8.176  0.4839  0.2488 -0.8336
   91CHL1  H21A 9193   2.406   5.982   8.085  0.1995  0.4226 -0.9667
   91CHL1  H21B 9194   2.320   6.113   8.146 -0.4145 -0.8433 -0.8592
   91CHL1  H21C 9195   2.398   5.985   8.268 -1.4470  1.9457  0.2751
   91CHL1   C22 9196   2.548   6.179   8.346 -0.7758  0.2649 -0.0556
   91CHL1  H22A 9197   2.542   6.095   8.418 -0.7794  0.1814 -0.1539
   91CHL1  H22B 9198   2.651   6.220   8.357 -1.2321  2.0526 -1.8057
   91CHL1   C23 9199   2.444   6.292   8.384 -0.6114 -0.1878  0.3347
   91CHL1  H23A 9200   2.463   6.372   8.310  3.6698 -1.3681 -0.1297
   91CHL1  H23B 9201   2.343   6.247   8.370  0.0741 -1.5659 -0.3390
   91CHL1   C24 9202   2.459   6.350   8.534  0.4361  0.2546 -0.1109
   91CHL1  H24A 9203   2.378   6.424   8.547 -0.6197 -0.8112 -0.4914
   91CHL1  H24B 9204   2.439   6.263   8.600  1.9572  0.3570  0.5316
   91CHL1   C25 9205   2.595   6.414   8.560 -0.3550 -0.3146  0.0181
   91CHL1   H25 9206   2.680   6.349   8.529 -0.5130 -0.2168 -0.6284
   91CHL1   C26 9207   2.611   6.554   8.490  0.6977  0.8796  0.0731
   91CHL1  H26A 9208   2.607   6.543   8.380 -0.3073  0.1821  0.1661
   91CHL1  H26B 9209   2.526   6.621   8.516  0.5622  0.9562 -0.5511
   91CHL1  H26C 9210   2.705   6.594   8.534 -0.0244  0.1223  2.4927
   91CHL1   C27 9211   2.601   6.441   8.711  0.4976 -0.1359 -0.6970
   91CHL1  H27A 9212   2.513   6.495   8.753 -0.8239 -1.3714 -1.7965
   91CHL1  H27B 9213   2.602   6.342   8.761 -0.5168  0.6844  1.0583
   91CHL1  H27C 9214   2.687   6.500   8.749 -0.6073  1.6631 -0.8618
   92CHL1    C3 9215   5.520   5.206   6.800 -0.1794  0.4532  0.5371
   92CHL1    H3 9216   5.600   5.282   6.810  2.3343 -2.0853  0.8648
   92CHL1    O3 9217   5.479   5.196   6.665  0.1529 -0.2698  0.4330
   92CHL1   H3' 9218   5.547   5.143   6.622  0.5808  1.5105 -1.2168
   92CHL1    C4 9219   5.598   5.077   6.841 -0.5846  0.0087  0.2903
   92CHL1   H4A 9220   5.545   4.987   6.804 -0.3100  0.2207 -0.6554
   92CHL1   H4B 9221   5.689   5.075   6.777 -0.7718 -1.8412  0.0258
   92CHL1    C5 9222   5.632   5.064   6.985 -0.3372 -0.7210  0.3238
   92CHL1    C6 9223   5.750   5.043   7.040  0.0357 -0.2273 -0.3906
   92CHL1    H6 9224   5.841   5.042   6.977  0.5897 -0.6072  0.3965
   92CHL1    C7 9225   5.774   5.031   7.191 -0.1898  0.0407 -0.1489
   92CHL1   H7A 9226   5.832   4.941   7.218  1.3974  1.3164  0.9422
   92CHL1   H7B 9227   5.834   5.122   7.215 -3.3341  2.2214 -0.0382
   92CHL1    C8 9228   5.653   5.029   7.279 -0.1334 -1.0237  0.4035
   92CHL1    H8 9229   5.602   4.930   7.289 -0.6457 -0.9219 -1.0121
   92CHL1   C14 9230   5.690   5.071   7.423  1.3277 -0.1375 -0.4495
   92CHL1   H14 9231   5.726   5.175   7.407  5.1064 -1.1878  0.0939
   92CHL1   C15 9232   5.802   5.000   7.492 -0.7898  0.0055  0.7142
   92CHL1  H15A 9233   5.775   4.893   7.500  3.4868 -1.2567  0.5491
   92CHL1  H15B 9234   5.896   5.017   7.436 -1.3800 -1.3316 -0.7443
   92CHL1   C16 9235   5.793   5.064   7.634 -0.5217 -0.1658  0.1402
   92CHL1  H16A 9236   5.806   4.980   7.706  0.8504  0.0871  0.2192
   92CHL1  H16B 9237   5.874   5.140   7.645  1.0661 -1.2932 -2.6938
   92CHL1   C17 9238   5.651   5.125   7.649  0.3453  0.1552 -0.1637
   92CHL1   H17 9239   5.654   5.234   7.627  1.4619  0.2057  0.1463
   92CHL1   C13 9240   5.575   5.075   7.525 -0.3648 -0.5227  0.0250
   92CHL1   C18 9241   5.510   4.930   7.557 -0.0194  0.2067  0.3029
   92CHL1  H18A 9242   5.422   4.928   7.625  0.0692 -0.7757  0.4066
   92CHL1  H18B 9243   5.481   4.879   7.463  0.9748 -0.9842  0.6125
   92CHL1  H18C 9244   5.584   4.869   7.613 -0.6588  0.0477  0.9992
   92CHL1   C12 9245   5.464   5.166   7.476 -0.2765  0.0075  0.2668
   92CHL1  H12A 9246   5.375   5.156   7.541 -1.6618  0.4098 -1.4767
   92CHL1  H12B 9247   5.498   5.272   7.486 -2.6557  0.7703  0.8284
   92CHL1   C11 9248   5.430   5.139   7.324 -0.5656 -1.0208 -0.5534
   92CHL1  H11A 9249   5.384   5.038   7.331 -0.2537 -1.0597  2.3299
   92CHL1  H11B 9250   5.343   5.201   7.293  0.1671  1.1604  1.4923
   92CHL1    C9 9251   5.550   5.127   7.224  0.3378 -0.4504  0.3018
   92CHL1    H9 9252   5.599   5.226   7.230 -0.2753  0.0132 -1.6236
   92CHL1   C10 9253   5.511   5.112   7.068  0.8065 -0.1520 -0.2478
   92CHL1   C19 9254   5.416   4.987   7.062 -0.1111  0.0567  0.2188
   92CHL1  H19A 9255   5.453   4.912   7.135 -0.3522  0.8688  1.1852
   92CHL1  H19B 9256   5.313   5.007   7.096 -0.7674 -1.6197 -0.6451
   92CHL1  H19C 9257   5.402   4.955   6.956 -0.3233 -0.1632  0.3135
   92CHL1    C1 9258   5.433   5.245   7.028 -0.6781 -0.1830 -0.1469
   92CHL1   H1A 9259   5.335   5.247   7.080 -1.2328 -3.8084 -0.7882
   92CHL1   H1B 9260   5.498   5.330   7.058 -3.0533  1.7699 -0.2018
   92CHL1    C2 9261   5.400   5.247   6.878  0.9624 -0.4972  1.2057
   92CHL1   H2A 9262   5.357   5.344   6.846  0.5554 -1.0947 -0.1808
   92CHL1   H2B 9263   5.320   5.172   6.856  0.2372  0.8666 -1.2741
   92CHL1   C20 9264   5.579   5.107   7.789 -0.0302 -0.4395 -0.4629
   92CHL1   H20 9265   5.493   5.038   7.789 -1.7055  1.4848  1.7309
   92CHL1   C21 9266   5.529   5.254   7.818  1.1647 -0.6138  0.2024
   92CHL1  H21A 9267   5.466   5.254   7.910 -1.0289  4.3631 -0.9983
   92CHL1  H21B 9268   5.459   5.286   7.739  0.4052  1.1658  1.5414
   92CHL1  H21C 9269   5.606   5.333   7.831  0.7652 -0.3199  0.8406
   92CHL1   C22 9270   5.662   5.063   7.912 -0.4643  0.2975 -0.1415
   92CHL1  H22A 9271   5.710   4.964   7.893 -1.9037 -0.0990 -1.9680
   92CHL1  H22B 9272   5.747   5.134   7.926  0.5688 -1.0630  0.8120
   92CHL1   C23 9273   5.573   5.037   8.040 -0.3534 -0.1276  0.1140
   92CHL1  H23A 9274   5.475   5.088   8.038  0.5669  1.9740  2.0962
   92CHL1  H23B 9275   5.557   4.927   8.042 -1.0226 -0.0659 -1.2403
   92CHL1   C24 9276   5.651   5.082   8.171 -0.2058 -0.2303  0.0724
   92CHL1  H24A 9277   5.759   5.064   8.152 -0.0805  0.7142 -0.1541
   92CHL1  H24B 9278   5.634   5.192   8.182 -0.9645 -0.3749  0.3968
   92CHL1   C25 9279   5.599   5.014   8.296 -0.3930  0.6174  0.4823
   92CHL1   H25 9280   5.564   4.912   8.271 -1.7564  1.0770  0.4293
   92CHL1   C26 9281   5.708   5.010   8.402 -0.2594 -0.7017 -0.5011
   92CHL1  H26A 9282   5.766   5.104   8.408  0.9389 -1.3138 -1.7888
   92CHL1  H26B 9283   5.678   4.985   8.506  0.3807  0.6009  0.0152
   92CHL1  H26C 9284   5.791   4.941   8.373  0.9197 -0.1947  1.5100
   92CHL1   C27 9285   5.475   5.095   8.337 -0.4843 -0.3314  0.0820
   92CHL1  H27A 9286   5.415   5.045   8.417 -0.9210  1.2797  0.7973
   92CHL1  H27B 9287   5.494   5.202   8.359 -0.3607 -0.5768  1.2535
   92CHL1  H27C 9288   5.399   5.092   8.256  0.0187  1.1786 -0.4751
   93CHL1    C3 9289   1.984   6.664   7.281  0.7104 -0.5383 -0.6470
   93CHL1    H3 9290   1.967   6.772   7.300 -1.2985 -1.2034  2.0523
   93CHL1    O3 9291   1.978   6.652   7.140  0.6839 -0.3988 -0.4013
   93CHL1   H3' 9292   2.049   6.712   7.113  1.3186 -0.0226  1.9193
   93CHL1    C4 9293   2.112   6.616   7.331 -0.1109  0.2092  0.1484
   93CHL1   H4A 9294   2.137   6.516   7.290  2.7478  1.2156 -0.8041
   93CHL1   H4B 9295   2.181   6.693   7.289 -1.2656  1.0036 -0.3346
   93CHL1    C5 9296   2.129   6.618   7.484 -0.2586 -0.4392  0.6566
   93CHL1    C6 9297   2.229   6.679   7.547 -0.1008  1.1384  0.0477
   93CHL1    H6 9298   2.314   6.727   7.497  0.7501  1.8235  2.0462
   93CHL1    C7 9299   2.256   6.661   7.694  0.3364  0.1942 -0.1445
   93CHL1   H7A 9300   2.361   6.639   7.720 -0.7217 -3.3536  1.6502
   93CHL1   H7B 9301   2.241   6.758   7.746 -1.2148 -0.3494  0.4795
   93CHL1    C8 9302   2.164   6.564   7.774  0.2702  0.7986 -0.4918
   93CHL1    H8 9303   2.198   6.459   7.762 -0.3537  0.2874  1.6818
   93CHL1   C14 9304   2.168   6.601   7.922  0.8197  0.4610 -0.7223
   93CHL1   H14 9305   2.134   6.706   7.934 -2.2121 -0.5170  0.0644
   93CHL1   C15 9306   2.307   6.589   7.999  0.0960  0.3239  0.6949
   93CHL1  H15A 9307   2.375   6.507   7.970  1.8054  1.1917  2.0598
   93CHL1  H15B 9308   2.358   6.688   7.992  1.2171 -0.2779  0.0783
   93CHL1   C16 9309   2.269   6.595   8.149 -0.7582  1.1375  0.8029
   93CHL1  H16A 9310   2.308   6.508   8.206 -1.2713  1.7334  2.1216
   93CHL1  H16B 9311   2.313   6.682   8.201  1.8978  0.3800  0.0045
   93CHL1   C17 9312   2.116   6.599   8.157  0.4010  0.0808  0.0839
   93CHL1   H17 9313   2.086   6.706   8.154 -1.8757 -0.4932  0.7600
   93CHL1   C13 9314   2.072   6.534   8.019 -0.5889  0.7402  0.2747
   93CHL1   C18 9315   2.104   6.375   8.011 -0.1512 -0.3216 -0.3637
   93CHL1  H18A 9316   2.213   6.360   8.025 -0.7008 -3.1240  2.0179
   93CHL1  H18B 9317   2.058   6.322   8.097 -2.1336 -2.3221 -2.5063
   93CHL1  H18C 9318   2.086   6.322   7.915  1.2589 -0.5009 -0.5469
   93CHL1   C12 9319   1.928   6.544   7.959  0.2904  1.0386  0.1722
   93CHL1  H12A 9320   1.867   6.469   8.014 -0.3649 -1.2822 -3.4031
   93CHL1  H12B 9321   1.891   6.648   7.969  0.6913  1.2888 -0.8579
   93CHL1   C11 9322   1.924   6.498   7.809  0.5506  0.1757 -0.5656
   93CHL1  H11A 9323   1.939   6.388   7.802  1.5773  0.3763 -1.8690
   93CHL1  H11B 9324   1.820   6.525   7.780  0.5269  2.0886  1.1335
   93CHL1    C9 9325   2.023   6.573   7.718 -0.6198  0.2063  0.0027
   93CHL1    H9 9326   1.996   6.680   7.709 -1.1967 -0.0433 -1.8196
   93CHL1   C10 9327   2.016   6.538   7.564  0.0534 -0.6269 -0.0025
   93CHL1   C19 9328   2.029   6.383   7.541  0.0590  0.3008 -0.5203
   93CHL1  H19A 9329   1.951   6.324   7.593  0.5665 -2.7026 -2.9239
   93CHL1  H19B 9330   2.019   6.356   7.434  0.1516  0.8779 -0.6818
   93CHL1  H19C 9331   2.127   6.343   7.576  0.7886 -1.9601 -4.4667
   93CHL1    C1 9332   1.879   6.590   7.501 -0.3839 -0.0057 -0.3860
   93CHL1   H1A 9333   1.797   6.534   7.550  1.6465 -2.1761  0.7568
   93CHL1   H1B 9334   1.876   6.697   7.531  1.8056 -0.0800  0.3242
   93CHL1    C2 9335   1.866   6.593   7.347 -0.0963  0.3101  0.5662
   93CHL1   H2A 9336   1.772   6.648   7.325  0.3817  0.9166 -0.0308
   93CHL1   H2B 9337   1.865   6.490   7.307 -2.1954  0.1301  0.9880
   93CHL1   C20 9338   2.055   6.558   8.292  0.0552  0.1325 -0.2151
   93CHL1   H20 9339   2.082   6.450   8.304  0.5773  0.2365 -0.4251
   93CHL1   C21 9340   1.899   6.557   8.287 -0.0236  0.3689 -0.4424
   93CHL1  H21A 9341   1.871   6.538   8.393  1.0467  1.7990  0.1341
   93CHL1  H21B 9342   1.876   6.463   8.232  0.7107 -1.0083  1.4984
   93CHL1  H21C 9343   1.867   6.651   8.237  1.3388  0.8511 -0.4439
   93CHL1   C22 9344   2.114   6.637   8.410  0.1554  0.2287 -0.1698
   93CHL1  H22A 9345   2.224   6.618   8.405 -0.0234 -0.6455 -1.0505
   93CHL1  H22B 9346   2.095   6.746   8.403 -0.4330  0.0903 -0.7345
   93CHL1   C23 9347   2.073   6.579   8.550 -0.0657 -0.0873  0.3695
   93CHL1  H23A 9348   1.966   6.589   8.581 -0.3002 -1.1482 -0.0478
   93CHL1  H23B 9349   2.083   6.469   8.552 -1.8594 -0.3516 -1.9479
   93CHL1   C24 9350   2.169   6.624   8.659  0.4682  0.5471 -0.3341
   93CHL1  H24A 9351   2.144   6.556   8.743  0.0016 -2.9101 -3.0238
   93CHL1  H24B 9352   2.265   6.584   8.620  0.2883  0.0382 -0.2529
   93CHL1   C25 9353   2.187   6.771   8.682 -0.0775 -0.1004  0.5272
   93CHL1   H25 9354   2.230   6.802   8.585  0.1368  0.6292  0.8472
   93CHL1   C26 9355   2.053   6.841   8.713 -0.5916 -0.0275 -0.5048
   93CHL1  H26A 9356   2.071   6.950   8.724 -2.9368  0.3991 -0.2748
   93CHL1  H26B 9357   1.986   6.825   8.626  0.3635 -2.4037 -0.8690
   93CHL1  H26C 9358   2.001   6.803   8.804  0.9056 -1.0952 -0.0589
   93CHL1   C27 9359   2.282   6.787   8.807 -0.3948 -0.3790  0.3530
   93CHL1  H27A 9360   2.385   6.749   8.788  0.8702  1.1627  3.3952
   93CHL1  H27B 9361   2.322   6.889   8.827  0.7848 -0.3947 -1.6554
   93CHL1  H27C 9362   2.252   6.736   8.901 -2.7933  0.7575  0.2802
   94CHL1    C3 9363   5.201   0.479   6.846  0.5093  0.8652 -0.3772
   94CHL1    H3 9364   5.095   0.445   6.847  1.4815 -2.4225 -0.4558
   94CHL1    O3 9365   5.249   0.457   6.718  0.4833  0.1113 -0.4069
   94CHL1   H3' 9366   5.345   0.460   6.714  0.4979 -1.2858 -2.1301
   94CHL1    C4 9367   5.227   0.626   6.888  0.2464  0.5796  0.3448
   94CHL1   H4A 9368   5.334   0.642   6.865  0.4509 -2.3347 -1.2693
   94CHL1   H4B 9369   5.160   0.686   6.822 -1.3914 -2.0403 -0.5587
   94CHL1    C5 9370   5.198   0.638   7.040  0.2213 -0.1647  0.5751
   94CHL1    C6 9371   5.112   0.733   7.081 -0.4041 -0.4425  0.5408
   94CHL1    H6 9372   5.075   0.802   7.003  0.5961 -2.1303 -1.5224
   94CHL1    C7 9373   5.081   0.763   7.229  0.5565  0.5419  0.0330
   94CHL1   H7A 9374   5.090   0.869   7.261 -1.5463  0.6870  0.3390
   94CHL1   H7B 9375   4.977   0.735   7.256  0.0504  1.8224 -0.4890
   94CHL1    C8 9376   5.167   0.688   7.329  0.0975 -0.1353 -0.1391
   94CHL1    H8 9377   5.261   0.742   7.350 -0.4414 -0.0891  2.3953
   94CHL1   C14 9378   5.107   0.683   7.466 -0.7487  0.1869 -0.0205
   94CHL1   H14 9379   5.009   0.631   7.455  0.2170 -1.4635 -1.3072
   94CHL1   C15 9380   5.066   0.823   7.527 -0.7666 -0.5830  0.1945
   94CHL1  H15A 9381   5.149   0.893   7.502 -1.3311 -0.1452 -0.4989
   94CHL1  H15B 9382   4.970   0.856   7.481 -0.0861  0.1087 -0.7730
   94CHL1   C16 9383   5.058   0.800   7.672 -0.4453  0.3521  0.0753
   94CHL1  H16A 9384   5.127   0.861   7.736  0.8909 -0.1903 -0.7990
   94CHL1  H16B 9385   4.957   0.826   7.711 -0.5821 -0.2765  0.1487
   94CHL1   C17 9386   5.096   0.650   7.699  0.8692  0.6492  0.4708
   94CHL1   H17 9387   5.002   0.593   7.683  1.6037 -0.2250 -0.8485
   94CHL1   C13 9388   5.183   0.606   7.576  0.1534  0.1855 -0.8759
   94CHL1   C18 9389   5.324   0.654   7.603 -0.2768  0.1960  0.0665
   94CHL1  H18A 9390   5.325   0.755   7.651  0.2558 -0.0062  0.4931
   94CHL1  H18B 9391   5.379   0.582   7.668  1.0344 -1.7440 -2.9577
   94CHL1  H18C 9392   5.383   0.667   7.510 -1.4943  1.3182 -0.5878
   94CHL1   C12 9393   5.184   0.457   7.525 -0.1310  0.4503  0.3001
   94CHL1  H12A 9394   5.245   0.391   7.590  1.4028 -0.8555 -2.2965
   94CHL1  H12B 9395   5.085   0.407   7.525  0.1893 -0.2045 -0.7152
   94CHL1   C11 9396   5.246   0.451   7.386 -0.1437 -0.1367 -0.2031
   94CHL1  H11A 9397   5.352   0.483   7.396  0.3461 -0.8906 -2.5402
   94CHL1  H11B 9398   5.247   0.346   7.349 -0.0908 -1.3862  2.9966
   94CHL1    C9 9399   5.190   0.544   7.278 -0.3727 -0.0940  0.1111
   94CHL1    H9 9400   5.081   0.525   7.263 -0.2195  0.9963 -3.0543
   94CHL1   C10 9401   5.259   0.533   7.139  0.1693 -0.0952  0.1308
   94CHL1   C19 9402   5.408   0.547   7.147 -0.8321  0.5318  0.2143
   94CHL1  H19A 9403   5.458   0.476   7.216 -0.4676  1.0349  0.4775
   94CHL1  H19B 9404   5.450   0.520   7.048 -0.9902 -0.3578  0.3852
   94CHL1  H19C 9405   5.443   0.649   7.173 -0.7933  0.6130 -0.1522
   94CHL1    C1 9406   5.227   0.400   7.081 -0.4013  0.1232  0.4880
   94CHL1   H1A 9407   5.285   0.330   7.144  0.7319  0.9409  0.3818
   94CHL1   H1B 9408   5.119   0.379   7.095  0.0085 -0.9346  2.3845
   94CHL1    C2 9409   5.263   0.372   6.933 -0.3494  0.1549 -0.1092
   94CHL1   H2A 9410   5.223   0.273   6.903 -0.5141  0.6651 -1.6181
   94CHL1   H2B 9411   5.371   0.373   6.909 -0.2655  0.0508  0.2571
   94CHL1   C20 9412   5.144   0.612   7.839 -0.7121 -0.0646  0.1751
   94CHL1   H20 9413   5.249   0.647   7.844 -0.7564  0.1008 -0.0208
   94CHL1   C21 9414   5.140   0.458   7.865  0.2288  0.8199 -0.2496
   94CHL1  H21A 9415   5.146   0.439   7.975 -1.4408 -1.6961 -0.5100
   94CHL1  H21B 9416   5.218   0.400   7.812 -3.2028 -1.8892 -2.8407
   94CHL1  H21C 9417   5.041   0.414   7.840 -1.1924  0.9566  4.2381
   94CHL1   C22 9418   5.066   0.694   7.949  0.1714  0.3481  0.2100
   94CHL1  H22A 9419   5.072   0.804   7.932  0.3105  0.6361  1.8880
   94CHL1  H22B 9420   4.958   0.673   7.938  0.6340 -1.7494 -0.8588
   94CHL1   C23 9421   5.121   0.684   8.095  0.4594 -0.1311 -0.7186
   94CHL1  H23A 9422   5.122   0.578   8.125  1.3835 -0.4324 -1.7818
   94CHL1  H23B 9423   5.226   0.720   8.095  0.6618 -0.6982 -1.4310
   94CHL1   C24 9424   5.023   0.774   8.176  0.0611 -0.5759  0.0955
   94CHL1  H24A 9425   5.004   0.878   8.144 -1.2793 -0.9880 -0.5626
   94CHL1  H24B 9426   4.923   0.724   8.171 -0.0789 -0.3070  0.1853
   94CHL1   C25 9427   5.059   0.776   8.323 -0.2069 -0.4166 -0.1491
   94CHL1   H25 9428   5.062   0.669   8.353  0.0559  0.2585  2.4564
   94CHL1   C26 9429   5.201   0.840   8.348  0.8957  0.0637  0.9412
   94CHL1  H26A 9430   5.280   0.787   8.291  0.2360 -0.0474  0.1063
   94CHL1  H26B 9431   5.213   0.949   8.327  0.0120  0.2648  1.3897
   94CHL1  H26C 9432   5.216   0.815   8.455  0.1855  1.2926  1.3604
   94CHL1   C27 9433   4.953   0.850   8.409  0.2717  0.3827 -0.4209
   94CHL1  H27A 9434   4.965   0.957   8.380  2.8414  0.1354 -0.4899
   94CHL1  H27B 9435   4.859   0.808   8.368  1.1597 -2.3483  0.1588
   94CHL1  H27C 9436   4.961   0.821   8.516 -0.1943  0.4594 -0.3605
   95CHL1    C3 9437   4.658   4.395   6.571 -0.3399  0.2590 -0.3526
   95CHL1    H3 9438   4.639   4.501   6.600  1.0861  0.6397 -0.7575
   95CHL1    O3 9439   4.677   4.374   6.428  0.5746 -0.0320 -0.1116
   95CHL1   H3' 9440   4.647   4.285   6.411 -0.7381  0.1969  0.8479
   95CHL1    C4 9441   4.785   4.347   6.640  0.2988 -0.1073  0.2112
   95CHL1   H4A 9442   4.813   4.255   6.586 -1.8523  0.4228 -1.9860
   95CHL1   H4B 9443   4.872   4.410   6.611  0.9906 -1.1336  0.0402
   95CHL1    C5 9444   4.783   4.328   6.791  0.5375  0.2253 -0.1966
   95CHL1    C6 9445   4.886   4.361   6.872  0.8350  0.4369  0.2704
   95CHL1    H6 9446   4.968   4.414   6.822  1.2326 -1.9969 -1.9050
   95CHL1    C7 9447   4.900   4.327   7.017 -0.4336  0.5340 -0.6588
   95CHL1   H7A 9448   4.997   4.274   7.033 -1.0461 -0.4452 -0.0448
   95CHL1   H7B 9449   4.906   4.419   7.078  0.3543 -0.3236  0.6009
   95CHL1    C8 9450   4.779   4.241   7.068 -0.1431  0.3589 -0.7698
   95CHL1    H8 9451   4.800   4.134   7.044 -1.4982 -0.2044  0.3962
   95CHL1   C14 9452   4.760   4.258   7.219  0.1249 -0.7921  1.3935
   95CHL1   H14 9453   4.738   4.365   7.234 -0.2671 -0.3274 -1.8000
   95CHL1   C15 9454   4.879   4.222   7.309 -0.0062 -0.0009  0.1000
   95CHL1  H15A 9455   4.923   4.128   7.269 -2.2763 -0.7986 -0.6720
   95CHL1  H15B 9456   4.967   4.289   7.309  0.3439 -0.3363  3.0361
   95CHL1   C16 9457   4.823   4.221   7.447  0.0697  0.2679 -0.6603
   95CHL1  H16A 9458   4.854   4.131   7.504 -3.2090 -0.4643  0.1232
   95CHL1  H16B 9459   4.855   4.310   7.506 -0.0463  0.2239 -0.5318
   95CHL1   C17 9460   4.660   4.230   7.437  0.1433  0.2636  0.8880
   95CHL1   H17 9461   4.637   4.339   7.448  2.9022  0.9455  0.6699
   95CHL1   C13 9462   4.636   4.193   7.282  0.0270 -0.5127 -0.2728
   95CHL1   C18 9463   4.646   4.044   7.272 -0.2165  0.3773 -0.3746
   95CHL1  H18A 9464   4.645   4.005   7.168 -0.2396 -1.3568  0.2387
   95CHL1  H18B 9465   4.734   4.002   7.325 -0.4521  2.0006  1.4133
   95CHL1  H18C 9466   4.555   3.998   7.316 -1.4169  3.1415  0.2228
   95CHL1   C12 9467   4.509   4.253   7.213 -0.0163  0.1640  0.0396
   95CHL1  H12A 9468   4.413   4.206   7.244  0.5117 -0.9237  0.0821
   95CHL1  H12B 9469   4.515   4.358   7.247 -2.3048 -0.1936  1.8019
   95CHL1   C11 9470   4.521   4.234   7.061 -0.0442 -1.0013 -0.3561
   95CHL1  H11A 9471   4.496   4.126   7.052 -3.1564 -0.3669 -0.4057
   95CHL1  H11B 9472   4.428   4.279   7.020  0.3074 -2.0069 -2.3792
   95CHL1    C9 9473   4.652   4.286   6.999  0.3564  0.2663 -0.1867
   95CHL1    H9 9474   4.657   4.395   7.019  0.8981  0.0630  0.8505
   95CHL1   C10 9475   4.653   4.264   6.848 -0.5768  0.8114 -0.1796
   95CHL1   C19 9476   4.665   4.112   6.828  0.6646 -0.3841  0.2639
   95CHL1  H19A 9477   4.643   4.088   6.721 -0.9498  0.0526  0.4782
   95CHL1  H19B 9478   4.765   4.069   6.849  0.1813 -1.9199 -0.4438
   95CHL1  H19C 9479   4.598   4.050   6.890  1.5070  0.5510  2.1835
   95CHL1    C1 9480   4.529   4.328   6.784 -0.1684 -0.0464  0.4601
   95CHL1   H1A 9481   4.443   4.265   6.814  0.9046 -1.1558  1.3100
   95CHL1   H1B 9482   4.515   4.432   6.821 -1.3129  0.0484 -0.1826
   95CHL1    C2 9483   4.539   4.311   6.629  0.1504  0.2559  0.1030
   95CHL1   H2A 9484   4.442   4.331   6.577  0.0206 -2.3234 -0.8017
   95CHL1   H2B 9485   4.548   4.206   6.595 -0.2811  0.3209 -0.2189
   95CHL1   C20 9486   4.590   4.141   7.542 -0.8444 -0.0745  0.1500
   95CHL1   H20 9487   4.619   4.035   7.526  1.8176  0.7401 -0.9308
   95CHL1   C21 9488   4.439   4.152   7.540 -0.2520 -0.0457 -0.1715
   95CHL1  H21A 9489   4.408   4.251   7.578  1.3588  0.1087  0.8533
   95CHL1  H21B 9490   4.411   4.071   7.611  1.7822 -1.4393 -0.8469
   95CHL1  H21C 9491   4.385   4.123   7.447 -1.6724 -0.3061  0.7025
   95CHL1   C22 9492   4.650   4.170   7.685  0.0146 -0.5337 -0.1715
   95CHL1  H22A 9493   4.757   4.142   7.696  0.0751 -1.0769 -1.7886
   95CHL1  H22B 9494   4.652   4.281   7.689 -2.4538 -0.4243 -0.1444
   95CHL1   C23 9495   4.564   4.117   7.800 -0.5695 -0.0885  0.6871
   95CHL1  H23A 9496   4.467   4.168   7.789 -1.5259 -2.1585 -1.2652
   95CHL1  H23B 9497   4.553   4.006   7.794  0.1499 -0.2010  1.2887
   95CHL1   C24 9498   4.638   4.159   7.931  0.3367 -0.5830  0.2668
   95CHL1  H24A 9499   4.742   4.120   7.932  0.4799 -0.2181  2.3097
   95CHL1  H24B 9500   4.634   4.270   7.935 -0.6233 -0.5036 -1.5739
   95CHL1   C25 9501   4.560   4.089   8.051  0.2774 -0.3263 -0.5165
   95CHL1   H25 9502   4.520   3.987   8.029  0.2847 -0.4291 -0.0623
   95CHL1   C26 9503   4.655   4.080   8.176  0.0801  0.1579  0.7282
   95CHL1  H26A 9504   4.604   4.016   8.251  1.2622 -1.0898  0.5238
   95CHL1  H26B 9505   4.751   4.038   8.138  0.1726  0.7466  0.3022
   95CHL1  H26C 9506   4.669   4.180   8.221  0.5168  2.5632 -4.1152
   95CHL1   C27 9507   4.430   4.167   8.088 -0.4911  0.2372 -0.2528
   95CHL1  H27A 9508   4.454   4.270   8.121  0.8550 -0.3876  0.8383
   95CHL1  H27B 9509   4.365   4.181   7.999  0.6294 -1.1604 -1.3470
   95CHL1  H27C 9510   4.380   4.118   8.174 -0.7708 -2.3422 -1.7731
   96CHL1    C3 9511   6.060   4.904   6.697  0.0018  0.0966 -0.3167
   96CHL1    H3 9512   5.959   4.927   6.738  0.6057  0.2955  1.0998
   96CHL1    O3 9513   6.059   4.939   6.560 -0.1983 -0.2266  0.2161
   96CHL1   H3' 9514   6.087   4.856   6.522  0.3743 -0.4826  1.1489
   96CHL1    C4 9515   6.173   4.983   6.768 -0.4473  0.4591  0.2053
   96CHL1   H4A 9516   6.261   4.956   6.707 -1.7014  0.4089 -1.6710
   96CHL1   H4B 9517   6.142   5.089   6.753  1.0195  1.2724  2.3315
   96CHL1    C5 9518   6.185   4.946   6.913  0.3748  0.3192  0.2815
   96CHL1    C6 9519   6.185   5.043   7.009 -0.3295  0.3710  0.4318
   96CHL1    H6 9520   6.175   5.150   6.984 -0.3952 -0.0011 -1.2012
   96CHL1    C7 9521   6.193   5.023   7.154 -0.2240  0.3961 -0.7315
   96CHL1   H7A 9522   6.264   5.090   7.207  1.8160  0.5296 -3.4296
   96CHL1   H7B 9523   6.094   5.049   7.198 -0.2641 -2.0667  0.8148
   96CHL1    C8 9524   6.235   4.884   7.195 -0.2819  0.3078  0.9562
   96CHL1    H8 9525   6.345   4.872   7.195 -0.1333  1.0991 -1.8450
   96CHL1   C14 9526   6.172   4.852   7.335 -0.0225  0.5390 -0.0486
   96CHL1   H14 9527   6.063   4.834   7.322 -0.1202  1.8243 -1.3188
   96CHL1   C15 9528   6.187   4.959   7.443 -0.9651  0.1782 -0.9459
   96CHL1  H15A 9529   6.290   5.001   7.433 -0.8911  0.1118 -0.4889
   96CHL1  H15B 9530   6.110   5.032   7.414 -0.0084  1.7199  0.2562
   96CHL1   C16 9531   6.153   4.893   7.571  0.1476 -0.3564 -0.2733
   96CHL1  H16A 9532   6.243   4.906   7.634 -0.3873  2.7909  0.0218
   96CHL1  H16B 9533   6.066   4.949   7.611  1.5172  1.4981  0.2768
   96CHL1   C17 9534   6.138   4.743   7.542  0.7181 -0.2517 -0.1657
   96CHL1   H17 9535   6.032   4.729   7.510  0.1513  1.0680  1.0519
   96CHL1   C13 9536   6.210   4.718   7.407 -0.1074  0.1453 -0.1728
   96CHL1   C18 9537   6.362   4.720   7.427 -0.3885  0.2589  0.1960
   96CHL1  H18A 9538   6.425   4.732   7.336 -0.5349  1.1248  0.1960
   96CHL1  H18B 9539   6.388   4.807   7.491 -0.1904  1.7003 -1.7589
   96CHL1  H18C 9540   6.408   4.631   7.474 -0.9580  0.4869  1.2091
   96CHL1   C12 9541   6.169   4.602   7.307 -0.4811  0.0841 -0.2227
   96CHL1  H12A 9542   6.205   4.502   7.336 -2.0146 -0.4648 -0.1147
   96CHL1  H12B 9543   6.058   4.592   7.313 -0.5015  0.9386  1.4034
   96CHL1   C11 9544   6.214   4.626   7.161 -0.1076  0.2951  0.3021
   96CHL1  H11A 9545   6.325   4.625   7.156 -0.0504 -1.4883  1.0944
   96CHL1  H11B 9546   6.176   4.541   7.101 -1.3064  0.0912  1.3046
   96CHL1    C9 9547   6.175   4.763   7.105  0.3008 -0.2886  0.4477
   96CHL1    H9 9548   6.065   4.775   7.105  0.4633  1.4813 -0.1021
   96CHL1   C10 9549   6.199   4.793   6.947 -0.5626 -0.5739 -0.3601
   96CHL1   C19 9550   6.346   4.756   6.917  0.2606  0.5390  0.2800
   96CHL1  H19A 9551   6.366   4.647   6.914  0.6631  0.6111 -2.9560
   96CHL1  H19B 9552   6.382   4.784   6.816 -0.4045 -1.3417 -0.5105
   96CHL1  H19C 9553   6.407   4.792   7.003  1.0827 -0.9754  0.3637
   96CHL1    C1 9554   6.100   4.713   6.863 -0.1606 -0.0471 -0.3519
   96CHL1   H1A 9555   6.120   4.604   6.860 -0.9934 -0.1971 -0.8139
   96CHL1   H1B 9556   5.995   4.730   6.895  0.1511  0.3208  0.5039
   96CHL1    C2 9557   6.105   4.752   6.716 -0.6949  0.3777 -0.1314
   96CHL1   H2A 9558   6.038   4.694   6.650 -1.1537 -0.9570  1.4419
   96CHL1   H2B 9559   6.209   4.730   6.682 -0.9399  1.3608 -1.6231
   96CHL1   C20 9560   6.186   4.661   7.656 -0.3029  0.2450  0.0794
   96CHL1   H20 9561   6.292   4.679   7.684 -0.8010  1.4147  1.3145
   96CHL1   C21 9562   6.165   4.507   7.626 -0.2341  0.1215 -0.2785
   96CHL1  H21A 9563   6.201   4.445   7.712  0.8252  0.3842 -0.5130
   96CHL1  H21B 9564   6.224   4.472   7.539  0.6024 -0.0669  0.3387
   96CHL1  H21C 9565   6.061   4.484   7.598 -0.7604  0.7296  1.0755
   96CHL1   C22 9566   6.103   4.690   7.788 -0.6035 -0.1070 -0.0028
   96CHL1  H22A 9567   6.155   4.642   7.874  1.3292  1.1259 -0.4377
   96CHL1  H22B 9568   6.104   4.798   7.814  0.7981 -0.0986 -0.0292
   96CHL1   C23 9569   5.956   4.652   7.797  0.6211  0.2165 -0.1891
   96CHL1  H23A 9570   5.903   4.686   7.705  1.1730 -1.8957 -1.3622
   96CHL1  H23B 9571   5.951   4.541   7.791  1.9452  0.1211  0.0362
   96CHL1   C24 9572   5.880   4.692   7.931  0.3179 -0.3149  0.2207
   96CHL1  H24A 9573   5.892   4.802   7.927  0.6890 -0.2879  1.6530
   96CHL1  H24B 9574   5.772   4.671   7.912  0.1905 -0.7203  1.3514
   96CHL1   C25 9575   5.917   4.619   8.064  0.7307 -0.6943  0.5429
   96CHL1   H25 9576   6.025   4.635   8.086  1.4528 -2.7569 -1.1853
   96CHL1   C26 9577   5.834   4.673   8.180 -0.4936 -0.4265 -0.2766
   96CHL1  H26A 9578   5.860   4.780   8.190 -0.5506 -0.1880 -2.2452
   96CHL1  H26B 9579   5.725   4.666   8.156 -1.0996 -0.2350  2.1696
   96CHL1  H26C 9580   5.871   4.619   8.270 -0.5706 -0.5353 -0.3092
   96CHL1   C27 9581   5.902   4.469   8.061 -0.2935 -0.9727 -0.1361
   96CHL1  H27A 9582   5.798   4.442   8.033  0.4392 -2.1795 -1.8463
   96CHL1  H27B 9583   5.967   4.427   7.981 -0.7246 -2.0738  0.0701
   96CHL1  H27C 9584   5.917   4.416   8.157  0.3439 -1.9142 -0.7415
   97OSM      N 9585   3.178   6.384  11.523 -0.8175 -0.2936 -0.2290
   97OSM    C15 9586   3.104   6.258  11.498 -0.0080  0.2605 -0.7423
   97OSM   H15A 9587   3.160   6.177  11.454 -0.3486 -1.1452  1.2520
   97OSM   H15B 9588   3.025   6.277  11.428  0.1240 -1.4335 -1.4000
   97OSM   H15C 9589   3.087   6.208  11.593  2.3057  0.3351 -0.2175
   97OSM    C14 9590   3.097   6.480  11.594 -0.1155 -0.2509  0.1728
   97OSM   H14A 9591   3.045   6.425  11.671  2.6570 -2.5073  0.6015
   97OSM   H14B 9592   3.026   6.526  11.528  1.0210 -1.3964 -1.9393
   97OSM   H14C 9593   3.160   6.553  11.641  1.5916 -1.1612 -0.6194
   97OSM    C13 9594   3.296   6.348  11.613 -0.1764  0.0950  0.2212
   97OSM   H13A 9595   3.352   6.273  11.560  0.5187  0.7005  0.0827
   97OSM   H13B 9596   3.260   6.311  11.708  1.2802 -1.0082  0.3767
   97OSM   H13C 9597   3.361   6.433  11.627 -0.0523 -0.1120  0.9532
   97OSM    C12 9598   3.240   6.439  11.393  0.4466 -0.4277  0.3208
   97OSM   H12A 9599   3.292   6.532  11.411 -0.6174  0.0390  1.0537
   97OSM   H12B 9600   3.159   6.465  11.326  1.8137 -1.7493 -1.9778
   97OSM    C11 9601   3.321   6.348  11.299 -0.8046 -0.4506 -0.2730
   97OSM   H11A 9602   3.398   6.302  11.365  0.5129  0.1896 -1.3193
   97OSM   H11B 9603   3.383   6.391  11.217 -0.7842  0.5541  0.2536
   97OSM      P 9604   3.164   6.265  11.101 -0.2406  0.0726 -0.0471
   97OSM    O13 9605   3.061   6.161  11.092  0.1287  0.1129 -0.0968
   97OSM    O14 9606   3.114   6.403  11.082 -0.6226 -0.0353  0.1133
   97OSM    O11 9607   3.280   6.227  10.994 -0.1437 -0.0497 -0.2067
   97OSM    O12 9608   3.237   6.249  11.239  0.3774  0.6011 -0.2061
   97OSM    C1S 9609   3.320   6.331  10.910 -0.6850  1.3331 -0.0354
   97OSM    H1S 9610   3.430   6.333  10.927 -0.6836 -0.8928  0.6167
   97OSM    H1T 9611   3.292   6.435  10.937 -0.8486  1.1307  0.5884
   97OSM     NF 9612   3.356   6.437  10.690 -0.1261 -0.0172  0.3051
   97OSM    HNF 9613   3.305   6.521  10.673  0.6647  0.0763 -1.9880
   97OSM    C2S 9614   3.292   6.324  10.758  0.6533  0.2241  0.1797
   97OSM    H2S 9615   3.330   6.225  10.723 -0.3659  0.2002 -0.9204
   97OSM    C3S 9616   3.135   6.312  10.737 -0.2076 -0.8141  0.3807
   97OSM    H3S 9617   3.081   6.391  10.794 -0.4973 -0.5925 -0.1918
   97OSM     O3 9618   3.080   6.195  10.790 -0.0353  0.0161  0.7385
   97OSM    HO3 9619   3.148   6.159  10.847  0.7049  0.1828 -0.0237
   97OSM    C4S 9620   3.110   6.311  10.589 -0.0837  0.0222  0.0771
   97OSM    H4S 9621   3.162   6.225  10.543 -0.3831  0.1300 -0.4753
   97OSM    C5S 9622   3.039   6.404  10.519 -0.2932 -0.7392  0.1648
   97OSM    H5S 9623   2.995   6.485  10.580 -1.8141 -1.9483  0.7426
   97OSM    C6S 9624   3.002   6.402  10.368 -0.2251 -0.3922  0.6601
   97OSM    H6S 9625   3.015   6.506  10.330 -1.8493 -0.4806 -0.2127
   97OSM    H6T 9626   2.893   6.391  10.356 -0.2157  0.8143 -0.7682
   97OSM    C7S 9627   3.077   6.300  10.281  0.8173  0.7122  0.6591
   97OSM    H7S 9628   3.058   6.199  10.323  2.8335  0.1326  0.2755
   97OSM    H7T 9629   3.185   6.324  10.279  0.4220  2.6758 -1.2976
   97OSM    C8S 9630   3.036   6.289  10.129 -0.4509 -0.5022  0.0489
   97OSM    H8S 9631   3.021   6.395  10.097  1.4394  0.2467  1.4402
   97OSM    H8T 9632   2.941   6.231  10.127 -2.4413  2.2768  2.8381
   97OSM    C9S 9633   3.151   6.233  10.045  0.0183 -0.2396  0.7598
   97OSM    H9S 9634   3.146   6.122  10.055  1.3041 -0.7557 -3.0800
   97OSM    H9T 9635   3.249   6.264  10.087 -0.3997  0.5304  1.1942
   97OSM   C10S 9636   3.131   6.276   9.907 -0.2774 -0.6173  0.3309
   97OSM   H10S 9637   3.127   6.387   9.899 -1.1877 -0.4581  2.3788
   97OSM   H10T 9638   3.044   6.237   9.851 -0.9319  2.5713 -1.1182
   97OSM   C11S 9639   3.257   6.242   9.826 -0.5745  0.2739  0.6636
   97OSM   H11S 9640   3.261   6.132   9.819 -1.4578  0.2765 -0.0046
   97OSM   H11T 9641   3.354   6.275   9.869 -0.6171  1.4443 -0.0855
   97OSM   C12S 9642   3.240   6.302   9.683  0.2431 -0.0170 -0.6318
   97OSM   H12S 9643   3.230   6.413   9.679 -2.8546 -0.1987 -0.2505
   97OSM   H12T 9644   3.157   6.243   9.640  0.3278 -0.8440  0.2790
   97OSM   C13S 9645   3.368   6.268   9.601  0.3564 -0.5496 -0.2114
   97OSM   H13S 9646   3.399   6.162   9.612 -0.3483 -0.9033 -1.4487
   97OSM   H13T 9647   3.458   6.316   9.646 -1.5981  0.9268  2.4692
   97OSM   C14S 9648   3.360   6.305   9.455  0.5226  0.2030 -0.2669
   97OSM   H14S 9649   3.447   6.257   9.405  1.6293  1.5061  0.3256
   97OSM   H14T 9650   3.371   6.414   9.436 -0.1134  0.4088  0.4927
   97OSM   C15S 9651   3.239   6.240   9.380  0.1854  0.3920 -0.8626
   97OSM   H15S 9652   3.150   6.292   9.420  1.3204  1.3055  0.5866
   97OSM   H15T 9653   3.238   6.132   9.404  0.2443  0.9226  1.9035
   97OSM   C16S 9654   3.241   6.244   9.227 -0.3747 -0.9446  0.2481
   97OSM   H16S 9655   3.161   6.176   9.191 -0.6180 -0.3655 -0.3468
   97OSM   H16T 9656   3.340   6.202   9.199 -0.2050 -0.1604 -0.3677
   97OSM   C17S 9657   3.218   6.380   9.164 -0.0122 -0.6636 -0.1866
   97OSM   H17S 9658   3.235   6.379   9.054 -0.5167  4.0511 -0.5198
   97OSM   H17T 9659   3.297   6.454   9.187  0.6023 -0.6469 -2.1327
   97OSM   C18S 9660   3.085   6.434   9.197 -0.5027 -0.3478  0.0073
   97OSM   H18S 9661   3.093   6.488   9.294 -0.7341 -1.3155  0.5800
   97OSM   H18T 9662   3.010   6.353   9.208  1.8622 -2.5353  1.2137
   97OSM   H18U 9663   3.055   6.515   9.127 -0.6932 -1.3465 -1.0994
   97OSM    C1F 9664   3.485   6.442  10.668 -0.1705  0.5974 -0.3554
   97OSM     OF 9665   3.554   6.342  10.692 -0.3346 -0.4349  0.1131
   97OSM    C2F 9666   3.549   6.569  10.629 -0.8159  0.0874 -0.5040
   97OSM    H2F 9667   3.634   6.587  10.698 -1.0670 -1.6625  0.3403
   97OSM    H2G 9668   3.476   6.649  10.655 -0.2614  0.8370 -1.2398
   97OSM    C3F 9669   3.589   6.568  10.483  0.4068  0.4494  0.0791
   97OSM    H3F 9670   3.654   6.480  10.462 -0.4473 -1.3663  4.1288
   97OSM    H3G 9671   3.662   6.650  10.463  1.7083 -0.1343  2.1246
   97OSM    C4F 9672   3.467   6.570  10.386 -0.3898  0.0856  0.0607
   97OSM    H4F 9673   3.408   6.661  10.412 -1.1487 -0.5973  0.7861
   97OSM    H4G 9674   3.406   6.478  10.400  0.6620 -1.0809 -2.3619
   97OSM    C5F 9675   3.513   6.587  10.241 -0.6279  0.1220 -0.0116
   97OSM    H5F 9676   3.594   6.516  10.215 -1.2642 -1.0060  0.9819
   97OSM    H5G 9677   3.551   6.691  10.230  3.6284 -1.4984 -3.1011
   97OSM    C6F 9678   3.395   6.545  10.150 -0.3129  0.2413  0.1096
   97OSM    H6F 9679   3.324   6.630  10.160 -0.2416  0.1426  1.5927
   97OSM    H6G 9680   3.354   6.450  10.188  1.6059 -1.5434 -1.9810
   97OSM    C7F 9681   3.429   6.522  10.008 -0.4133  0.2447 -0.1405
   97OSM    H7F 9682   3.341   6.472   9.962  0.6171 -3.2297  1.3222
   97OSM    H7G 9683   3.502   6.438  10.002 -1.0925 -0.4712  1.2585
   97OSM    C8F 9684   3.468   6.645   9.917  0.6889 -0.0990  0.2364
   97OSM    H8F 9685   3.550   6.705   9.961  0.3493  0.3486  0.2619
   97OSM    H8G 9686   3.375   6.706   9.911 -0.5178 -1.9564 -1.3772
   97OSM    C9F 9687   3.502   6.597   9.774  0.1881 -0.7603  0.6756
   97OSM    H9F 9688   3.486   6.492   9.745  0.8683 -0.5464 -0.5194
   97OSM   C10F 9689   3.558   6.677   9.678  0.0486  0.3384  0.2789
   97OSM   H10F 9690   3.571   6.631   9.579  1.7213 -0.0027  0.6204
   97OSM   C11F 9691   3.597   6.820   9.696  0.4565 -0.2000 -0.3262
   97OSM   H11F 9692   3.708   6.827   9.698  0.4966 -0.7391 -0.5030
   97OSM   H11G 9693   3.574   6.855   9.798 -0.4283 -1.3469 -0.1152
   97OSM   C12F 9694   3.534   6.915   9.592  0.5114  0.1953  0.0438
   97OSM   H12F 9695   3.563   7.020   9.615  1.3913 -0.1278  0.4680
   97OSM   H12G 9696   3.424   6.912   9.599  0.6286 -1.7092  3.0399
   97OSM   C13F 9697   3.565   6.886   9.446  0.7142  0.2237 -0.2857
   97OSM   H13F 9698   3.513   6.791   9.419  1.2413 -0.0571 -0.3137
   97OSM   H13G 9699   3.670   6.851   9.448  0.5647 -0.2957 -1.0082
   97OSM   C14F 9700   3.521   6.995   9.338 -0.4270  0.4782 -0.2603
   97OSM   H14F 9701   3.572   7.086   9.376  1.3991 -1.5819  2.6026
   97OSM   H14G 9702   3.412   7.019   9.346 -0.9288 -1.7836  0.3818
   97OSM   C15F 9703   3.550   6.971   9.191  0.0403  0.1501  0.0538
   97OSM   H15F 9704   3.657   6.942   9.186 -0.4537 -1.6936 -0.3426
   97OSM   H15G 9705   3.538   7.065   9.133  0.7111  0.3616  0.2441
   97OSM   C16F 9706   3.465   6.864   9.118  0.3853 -0.4074  0.2087
   97OSM   H16F 9707   3.359   6.889   9.137  0.5225  0.7253 -0.3927
   97OSM   H16G 9708   3.489   6.768   9.167  0.9795 -2.3995 -3.5828
   97OSM   C17F 9709   3.498   6.843   8.972  0.1175 -0.3797  0.0414
   97OSM   H17F 9710   3.606   6.823   8.957  0.2596  0.7963 -0.6800
   97OSM   H17G 9711   3.472   6.941   8.926  0.2858 -0.5506 -0.4318
   97OSM   C18F 9712   3.418   6.731   8.905 -0.3507 -0.1646 -0.1042
   97OSM   H18F 9713   3.453   6.703   8.803 -1.6305 -3.4909  0.2591
   97OSM   H18G 9714   3.308   6.745   8.905 -0.7346 -2.6241  0.7681
   97OSM   H18H 9715   3.434   6.636   8.960  0.6436 -1.6180 -2.7209
   98OSM      N 9716   5.495   4.434  11.051 -0.0979 -0.7384 -0.4540
   98OSM    C15 9717   5.500   4.391  10.907  0.2230 -0.5443  0.2074
   98OSM   H15A 9718   5.549   4.298  10.883  0.9430 -0.4735  1.3427
   98OSM   H15B 9719   5.558   4.467  10.858  0.0231 -1.4861 -1.5455
   98OSM   H15C 9720   5.400   4.377  10.867  0.4755 -0.0692 -0.6064
   98OSM    C14 9721   5.376   4.350  11.109 -0.3121 -0.1589  0.6837
   98OSM   H14A 9722   5.395   4.245  11.093  2.2436  0.2796  0.3867
   98OSM   H14B 9723   5.285   4.371  11.053  0.2612  1.0755  0.1881
   98OSM   H14C 9724   5.355   4.385  11.209 -4.2385 -1.5472  0.5387
   98OSM    C13 9725   5.617   4.388  11.129  0.7206  0.0227  0.1775
   98OSM   H13A 9726   5.627   4.281  11.113  0.0874 -0.3866  2.2799
   98OSM   H13B 9727   5.617   4.415  11.233  0.7973  0.0248  0.1784
   98OSM   H13C 9728   5.707   4.430  11.087  0.4199  1.1144  0.6009
   98OSM    C12 9729   5.463   4.581  11.058 -0.0080 -0.8149  0.2807
   98OSM   H12A 9730   5.417   4.619  11.148 -1.5987 -0.7267 -0.5436
   98OSM   H12B 9731   5.385   4.592  10.985  1.6519 -0.4952 -1.4981
   98OSM    C11 9732   5.590   4.666  11.018 -0.3120  0.3014  0.1989
   98OSM   H11A 9733   5.662   4.656  11.102  1.0983 -1.0731 -1.1231
   98OSM   H11B 9734   5.560   4.773  11.019 -0.8675  0.1697 -0.8484
   98OSM      P 9735   5.616   4.706  10.762  0.5739  0.2374  0.4646
   98OSM    O13 9736   5.695   4.830  10.760 -0.1566 -0.4529 -0.3060
   98OSM    O14 9737   5.633   4.610  10.650  0.2233  0.2102  0.0141
   98OSM    O11 9738   5.461   4.740  10.780  0.4923 -0.2717 -0.1326
   98OSM    O12 9739   5.656   4.631  10.894 -0.1362  0.2877 -0.2856
   98OSM    C1S 9740   5.386   4.807  10.673  0.3978  0.3837  0.0324
   98OSM    H1S 9741   5.454   4.884  10.630  1.5759 -0.3559  0.5114
   98OSM    H1T 9742   5.297   4.854  10.720 -0.8516 -1.4008 -0.4754
   98OSM     NF 9743   5.265   4.760  10.456 -0.9549  0.5637  0.2668
   98OSM    HNF 9744   5.166   4.759  10.445 -0.9875 -0.3566  0.4941
   98OSM    C2S 9745   5.322   4.702  10.580  0.0521  0.1128 -0.0875
   98OSM    H2S 9746   5.409   4.643  10.545 -0.0430  0.2525 -0.5672
   98OSM    C3S 9747   5.216   4.626  10.658 -0.3660 -0.2855  0.0009
   98OSM    H3S 9748   5.127   4.685  10.687  0.5563  0.3468  1.6975
   98OSM     O3 9749   5.258   4.570  10.780 -0.0254  0.4076 -0.1214
   98OSM    HO3 9750   5.335   4.623  10.803  0.5946 -0.9815  1.1500
   98OSM    C4S 9751   5.156   4.511  10.583 -0.1541 -1.0186 -0.6901
   98OSM    H4S 9752   5.229   4.439  10.543  1.8471 -0.3381  1.5086
   98OSM    C5S 9753   5.023   4.492  10.550 -0.2253 -0.5257  0.0670
   98OSM    H5S 9754   4.950   4.558  10.600  2.7300  1.9369  1.4901
   98OSM    C6S 9755   4.986   4.370  10.476 -0.1059 -0.0057 -0.3567
   98OSM    H6S 9756   4.878   4.347  10.486  0.4153 -2.7625 -0.4438
   98OSM    H6T 9757   5.039   4.288  10.527 -2.2802 -1.9760 -1.0866
   98OSM    C7S 9758   5.049   4.361  10.334 -0.2514 -0.2327 -0.9594
   98OSM    H7S 9759   5.052   4.258  10.291  0.5913 -0.5488 -0.1639
   98OSM    H7T 9760   5.154   4.394  10.333 -0.9097  1.9718 -1.7574
   98OSM    C8S 9761   4.978   4.463  10.244  0.0998  0.2889  1.1637
   98OSM    H8S 9762   4.944   4.549  10.306 -2.7675  0.4145 -0.4256
   98OSM    H8T 9763   4.886   4.409  10.214 -1.0569  0.5148  3.9676
   98OSM    C9S 9764   5.046   4.496  10.100  0.4295  0.3608 -0.2027
   98OSM    H9S 9765   5.027   4.402  10.044 -1.4893  0.6004 -0.0315
   98OSM    H9T 9766   5.153   4.524  10.116  0.7975 -0.1128 -1.7221
   98OSM   C10S 9767   4.966   4.608  10.029  0.6557  0.0532  0.7156
   98OSM   H10S 9768   4.958   4.702  10.088 -2.7323  0.8478 -0.7340
   98OSM   H10T 9769   4.861   4.569  10.027  0.9595 -0.9208  2.0331
   98OSM   C11S 9770   5.014   4.649   9.890 -0.1314 -0.4272 -0.5874
   98OSM   H11S 9771   5.117   4.687   9.906 -0.3112  1.3918 -3.1610
   98OSM   H11T 9772   4.948   4.735   9.865 -1.6806 -1.4699 -0.2314
   98OSM   C12S 9773   5.011   4.544   9.784 -0.0172 -0.1673 -0.4297
   98OSM   H12S 9774   5.059   4.451   9.822  0.9761  0.9714  1.2742
   98OSM   H12T 9775   5.074   4.589   9.704  0.4940 -0.5595 -0.2593
   98OSM   C13S 9776   4.865   4.521   9.745 -0.1061 -0.0379  0.7857
   98OSM   H13S 9777   4.813   4.619   9.741  1.5969  0.8799 -0.0969
   98OSM   H13T 9778   4.830   4.459   9.831  2.7187 -0.6106  1.6410
   98OSM   C14S 9779   4.859   4.465   9.609 -0.0777 -0.3223  0.5010
   98OSM   H14S 9780   4.925   4.376   9.597 -0.4249 -0.2099 -3.7870
   98OSM   H14T 9781   4.902   4.545   9.545 -0.2994  0.6716  1.5684
   98OSM   C15S 9782   4.713   4.440   9.556 -0.8630 -0.4783  0.2664
   98OSM   H15S 9783   4.662   4.537   9.540 -1.2523 -0.7932 -0.4671
   98OSM   H15T 9784   4.658   4.373   9.626  0.3356 -0.3212  1.3936
   98OSM   C16S 9785   4.706   4.375   9.415 -0.2370  0.1142  0.2574
   98OSM   H16S 9786   4.608   4.364   9.364  0.3555 -1.1557 -0.6876
   98OSM   H16T 9787   4.741   4.270   9.429 -0.4914 -0.0507 -0.3132
   98OSM   C17S 9788   4.799   4.436   9.310  0.0794 -0.2226 -0.8031
   98OSM   H17S 9789   4.771   4.387   9.215 -1.1726 -1.3219  0.0970
   98OSM   H17T 9790   4.904   4.418   9.343 -0.4687  0.7433  1.7575
   98OSM   C18S 9791   4.771   4.581   9.287 -0.2907 -0.2153  1.0567
   98OSM   H18S 9792   4.683   4.584   9.220  0.9210 -0.5870 -0.5942
   98OSM   H18T 9793   4.855   4.629   9.232 -1.0906 -1.0175 -0.9563
   98OSM   H18U 9794   4.763   4.641   9.381  2.5370  2.2242 -0.0974
   98OSM    C1F 9795   5.358   4.814  10.368  0.1158  1.2834 -0.6460
   98OSM     OF 9796   5.469   4.852  10.400  0.0385 -0.2364  0.2740
   98OSM    C2F 9797   5.318   4.797  10.226 -0.2020 -0.3287 -0.0826
   98OSM    H2F 9798   5.209   4.810  10.210  0.0233  0.4764 -1.0890
   98OSM    H2G 9799   5.340   4.691  10.198  2.0362  0.7030 -2.6646
   98OSM    C3F 9800   5.398   4.886  10.124 -0.2172 -0.4890  0.4097
   98OSM    H3F 9801   5.506   4.900  10.147 -0.4642  1.6792  0.5020
   98OSM    H3G 9802   5.357   4.989  10.127  1.2892  0.1389  0.4279
   98OSM    C4F 9803   5.392   4.828   9.976  0.1261 -0.2005 -0.1337
   98OSM    H4F 9804   5.290   4.793   9.949  0.7758 -1.6190 -0.9044
   98OSM    H4G 9805   5.457   4.738   9.971 -0.9492 -1.0558  0.6703
   98OSM    C5F 9806   5.456   4.922   9.874 -0.2550  0.1034 -0.5491
   98OSM    H5F 9807   5.567   4.926   9.886 -0.3060  1.7506 -0.3868
   98OSM    H5G 9808   5.414   5.022   9.897 -2.7774 -0.9679 -0.2440
   98OSM    C6F 9809   5.435   4.884   9.729  0.6544 -0.2458  0.2690
   98OSM    H6F 9810   5.475   4.780   9.735 -0.5128 -0.6302  2.0972
   98OSM    H6G 9811   5.501   4.946   9.666 -0.7917  1.5278  0.4150
   98OSM    C7F 9812   5.285   4.890   9.694 -0.9090 -0.7219 -0.3073
   98OSM    H7F 9813   5.246   4.993   9.714  1.3427 -0.1652  1.6487
   98OSM    H7G 9814   5.222   4.825   9.758 -0.8257 -0.3382  0.1726
   98OSM    C8F 9815   5.261   4.860   9.547 -0.2770 -0.2704 -0.1369
   98OSM    H8F 9816   5.313   4.763   9.532  2.0203  0.3693  2.8081
   98OSM    H8G 9817   5.319   4.930   9.483 -1.1044 -0.3964 -1.0577
   98OSM    C9F 9818   5.118   4.850   9.503 -0.3317  0.5299 -0.5578
   98OSM    H9F 9819   5.044   4.880   9.578  1.2995 -0.9345  1.7420
   98OSM   C10F 9820   5.074   4.806   9.385 -0.0050 -0.1960  0.1365
   98OSM   H10F 9821   4.964   4.807   9.380  0.0474 -0.0307 -1.6338
   98OSM   C11F 9822   5.157   4.761   9.267  0.3058  0.5590 -0.4714
   98OSM   H11F 9823   5.127   4.658   9.239  1.2389  0.2090 -0.2336
   98OSM   H11G 9824   5.265   4.761   9.292  0.6516  0.2325 -1.8961
   98OSM   C12F 9825   5.131   4.835   9.133 -0.1744  0.4087 -0.3082
   98OSM   H12F 9826   5.207   4.824   9.052 -0.3691 -2.0162 -0.2451
   98OSM   H12G 9827   5.125   4.942   9.162 -0.8570  0.6082 -1.1418
   98OSM   C13F 9828   4.992   4.803   9.084 -0.3377 -0.3994  0.6732
   98OSM   H13F 9829   4.912   4.824   9.158  0.1116 -2.4138  1.7854
   98OSM   H13G 9830   4.971   4.695   9.065 -2.2849  0.1057 -0.3317
   98OSM   C14F 9831   4.957   4.894   8.962  0.2124 -0.4385  0.0959
   98OSM   H14F 9832   4.979   5.000   8.988 -1.7297  0.4373 -1.4691
   98OSM   H14G 9833   4.846   4.895   8.961  0.1066 -2.5635 -2.6723
   98OSM   C15F 9834   5.017   4.840   8.829 -0.5689 -0.1101 -0.2318
   98OSM   H15F 9835   5.017   4.730   8.846 -0.1678  0.2459  2.6886
   98OSM   H15G 9836   5.124   4.868   8.814  0.2336 -1.7441  1.8974
   98OSM   C16F 9837   4.932   4.882   8.706  0.6498  0.0956 -0.6440
   98OSM   H16F 9838   4.899   4.986   8.724 -1.7438 -1.1291  3.1252
   98OSM   H16G 9839   4.837   4.825   8.710  0.2770  0.7719  0.7829
   98OSM   C17F 9840   4.998   4.856   8.564  0.2760 -0.4550 -0.8967
   98OSM   H17F 9841   4.921   4.869   8.486  0.1601  1.4763 -0.4931
   98OSM   H17G 9842   5.016   4.746   8.556 -4.4466 -1.4554 -0.8833
   98OSM   C18F 9843   5.131   4.936   8.538  0.7298  0.3275 -0.4134
   98OSM   H18F 9844   5.174   4.911   8.438  1.6298 -0.4486  0.1564
   98OSM   H18G 9845   5.201   4.893   8.612 -0.4887  0.2521  0.7256
   98OSM   H18H 9846   5.117   5.044   8.559 -2.6927  0.0070 -0.4408
   99OSM      N 9847   4.440   2.366  10.872 -0.2066  0.1079  0.1418
   99OSM    C15 9848   4.397   2.510  10.884 -0.0192  0.5412  0.2663
   99OSM   H15A 9849   4.299   2.521  10.929  0.8742 -0.1244  2.5173
   99OSM   H15B 9850   4.401   2.556  10.786 -1.8618 -2.8289 -1.5954
   99OSM   H15C 9851   4.464   2.565  10.948  0.3831  0.8699 -0.4285
   99OSM    C14 9852   4.336   2.300  10.793 -0.4636  0.4168 -0.1948
   99OSM   H14A 9853   4.238   2.332  10.825  0.1099  2.2383 -0.1496
   99OSM   H14B 9854   4.344   2.194  10.807  0.3440  0.6041  0.8493
   99OSM   H14C 9855   4.352   2.320  10.688 -0.0392  2.5925  0.2204
   99OSM    C13 9856   4.571   2.353  10.798 -0.2151 -0.3662 -0.6110
   99OSM   H13A 9857   4.626   2.265  10.829 -0.2222  0.3306  1.5888
   99OSM   H13B 9858   4.636   2.437  10.813  2.1000 -1.7463 -2.1900
   99OSM   H13C 9859   4.552   2.351  10.692  2.4966  0.2445 -1.1783
   99OSM    C12 9860   4.448   2.311  11.018 -0.4572 -0.5844  0.1019
   99OSM   H12A 9861   4.348   2.298  11.055 -1.1765  1.2247 -1.1091
   99OSM   H12B 9862   4.479   2.389  11.086 -0.1589 -0.7295  0.1356
   99OSM    C11 9863   4.538   2.184  11.035  0.2953 -0.4703  0.2198
   99OSM   H11A 9864   4.536   2.159  11.143  0.8034 -0.7743  0.1581
   99OSM   H11B 9865   4.642   2.219  11.017 -0.9699  4.5697  1.0334
   99OSM      P 9866   4.397   1.975  10.970 -0.0699 -0.0852 -0.0239
   99OSM    O13 9867   4.369   1.952  11.115  0.5114 -0.1764  0.0545
   99OSM    O14 9868   4.283   2.019  10.888  0.1583  0.3105 -0.2778
   99OSM    O11 9869   4.453   1.838  10.914  0.4095  0.2122  0.5520
   99OSM    O12 9870   4.511   2.077  10.944  0.1736 -0.7187 -0.3741
   99OSM    C1S 9871   4.477   1.842  10.773  0.1177  0.3778  0.2113
   99OSM    H1S 9872   4.525   1.936  10.738  1.7833 -0.2166  0.7724
   99OSM    H1T 9873   4.381   1.822  10.722 -0.7579 -0.4992  2.1081
   99OSM     NF 9874   4.589   1.737  10.582 -0.3010  0.1818  0.2374
   99OSM    HNF 9875   4.540   1.677  10.519  2.7454 -1.1776 -1.0374
   99OSM    C2S 9876   4.569   1.725  10.722  0.5329 -0.7459 -0.1352
   99OSM    H2S 9877   4.669   1.740  10.769  0.4332 -1.6589  0.4034
   99OSM    C3S 9878   4.502   1.592  10.761  0.5647 -0.4477 -0.3164
   99OSM    H3S 9879   4.415   1.583  10.692  1.2715 -0.0157 -1.3065
   99OSM     O3 9880   4.453   1.578  10.894  0.0924  0.2897 -0.0007
   99OSM    HO3 9881   4.434   1.670  10.915 -1.8315  0.2455 -1.3066
   99OSM    C4S 9882   4.598   1.475  10.729  0.2807 -0.4791  0.2857
   99OSM    H4S 9883   4.576   1.427  10.633 -0.1035 -0.2425  0.2497
   99OSM    C5S 9884   4.701   1.442  10.806 -0.1852  0.2347  0.1750
   99OSM    H5S 9885   4.710   1.484  10.908  1.6199 -0.4662  0.3238
   99OSM    C6S 9886   4.785   1.321  10.773 -0.3572 -0.2543 -0.7215
   99OSM    H6S 9887   4.751   1.279  10.675  1.6972  0.2291 -1.6904
   99OSM    H6T 9888   4.772   1.237  10.845  1.8129 -0.1707 -0.1657
   99OSM    C7S 9889   4.936   1.351  10.768  0.2799  0.2941 -0.1525
   99OSM    H7S 9890   4.981   1.253  10.743  1.8110  1.2436 -1.2320
   99OSM    H7T 9891   4.965   1.385  10.870 -1.8014  1.5971  0.0779
   99OSM    C8S 9892   4.985   1.457  10.660  0.2537 -0.3242  0.4401
   99OSM    H8S 9893   5.095   1.462  10.670  0.2316 -0.9393  1.0622
   99OSM    H8T 9894   4.934   1.549  10.693 -1.0200 -1.4007  1.5898
   99OSM    C9S 9895   4.952   1.414  10.515 -0.5171 -0.1140 -0.7226
   99OSM    H9S 9896   4.841   1.402  10.510 -0.8389  0.6420  2.5039
   99OSM    H9T 9897   4.999   1.314  10.501  0.5225 -0.2690  2.9526
   99OSM   C10S 9898   5.008   1.505  10.399  0.5577 -0.3372 -0.1282
   99OSM   H10S 9899   5.028   1.449  10.305  1.1482 -0.7822  0.2527
   99OSM   H10T 9900   5.097   1.555  10.443 -1.2749  0.8178  2.5645
   99OSM   C11S 9901   4.913   1.621  10.363 -0.9050  0.0353  0.9879
   99OSM   H11S 9902   4.881   1.663  10.461 -1.4964  0.1081  0.7651
   99OSM   H11T 9903   4.824   1.584  10.307  0.9729 -0.5919 -1.7786
   99OSM   C12S 9904   4.977   1.743  10.288 -0.2492  0.2636 -0.0800
   99OSM   H12S 9905   5.028   1.693  10.203  1.6121 -0.0919  1.1902
   99OSM   H12T 9906   4.897   1.811  10.251 -1.0952 -0.3948  0.5126
   99OSM   C13S 9907   5.066   1.823  10.379 -0.8358  0.2383 -0.4741
   99OSM   H13S 9908   5.128   1.752  10.438  1.3444  2.4747  0.0654
   99OSM   H13T 9909   5.000   1.866  10.457  1.2929  0.8144  1.1116
   99OSM   C14S 9910   5.156   1.911  10.299 -0.4309 -1.0078  0.1665
   99OSM   H14S 9911   5.095   1.976  10.232 -1.1012 -0.1775  1.5285
   99OSM   H14T 9912   5.219   1.854  10.228  1.4251  0.6496  0.3787
   99OSM   C15S 9913   5.260   1.993  10.384  0.1158  0.1188 -0.3212
   99OSM   H15S 9914   5.349   1.931  10.406  0.6838  1.4844  1.4693
   99OSM   H15T 9915   5.206   2.021  10.477  1.6832 -1.5813  1.1748
   99OSM   C16S 9916   5.294   2.127  10.317  0.3110  0.9971  0.3385
   99OSM   H16S 9917   5.204   2.183  10.285  0.7584  1.5748  0.0696
   99OSM   H16T 9918   5.347   2.107  10.222 -3.0339 -2.4944 -1.0587
   99OSM   C17S 9919   5.370   2.222  10.412 -0.5118  0.1011  0.2177
   99OSM   H17S 9920   5.458   2.173  10.458  0.6384 -1.3270 -3.2048
   99OSM   H17T 9921   5.309   2.256  10.499 -2.1078  0.7683 -1.0987
   99OSM   C18S 9922   5.415   2.350  10.330 -0.2299  0.3914 -0.0562
   99OSM   H18S 9923   5.484   2.303  10.258 -0.4666 -0.8499  0.5017
   99OSM   H18T 9924   5.468   2.415  10.403 -2.2007  1.4968  0.4841
   99OSM   H18U 9925   5.322   2.400  10.294 -1.0320  0.6292  2.1823
   99OSM    C1F 9926   4.652   1.841  10.536  0.0666 -0.1937 -0.0066
   99OSM     OF 9927   4.742   1.888  10.605 -0.0246  0.0367 -0.4421
   99OSM    C2F 9928   4.630   1.882  10.398 -0.5492 -0.2187  0.0622
   99OSM    H2F 9929   4.521   1.899  10.390 -1.0841 -1.6723  3.1115
   99OSM    H2G 9930   4.653   1.800  10.326 -0.1255 -0.1017  0.0610
   99OSM    C3F 9931   4.706   2.012  10.366 -0.2277  0.1717  0.5996
   99OSM    H3F 9932   4.664   2.093  10.430  0.8328  1.0628  0.2133
   99OSM    H3G 9933   4.809   1.996  10.404  0.0196 -1.8714 -0.7910
   99OSM    C4F 9934   4.706   2.059  10.217 -0.3381 -0.3122 -0.6392
   99OSM    H4F 9935   4.746   1.963  10.176 -0.1230 -2.6740  4.3341
   99OSM    H4G 9936   4.785   2.137  10.207 -1.5189  0.9336 -0.4413
   99OSM    C5F 9937   4.581   2.103  10.157  0.6427 -0.3777  0.1867
   99OSM    H5F 9938   4.537   2.190  10.212  0.3638 -0.2190 -0.2820
   99OSM    H5G 9939   4.508   2.020  10.169 -0.0862  0.5483  3.2111
   99OSM    C6F 9940   4.589   2.135  10.006  0.5743 -0.2891 -0.4060
   99OSM    H6F 9941   4.655   2.055   9.965  1.0962 -0.0529 -0.0418
   99OSM    H6G 9942   4.636   2.231   9.978 -2.9337  1.1285 -2.0500
   99OSM    C7F 9943   4.452   2.139   9.936  0.4114 -0.8747 -0.0295
   99OSM    H7F 9944   4.402   2.232   9.971  1.9132 -0.6165  1.5927
   99OSM    H7G 9945   4.389   2.050   9.955 -0.7377  0.1267  1.0291
   99OSM    C8F 9946   4.466   2.165   9.786  0.8769 -0.0683 -0.6193
   99OSM    H8F 9947   4.456   2.271   9.753  1.9219 -0.5170 -2.5439
   99OSM    H8G 9948   4.371   2.117   9.754  2.2354 -1.2423 -3.2599
   99OSM    C9F 9949   4.575   2.104   9.703  0.2143  0.2500  0.4289
   99OSM    H9F 9950   4.575   1.994   9.707 -3.2493  0.1301 -0.0024
   99OSM   C10F 9951   4.656   2.172   9.619 -0.8537 -0.1647 -0.5970
   99OSM   H10F 9952   4.736   2.115   9.569 -0.7097  1.0492 -1.7926
   99OSM   C11F 9953   4.657   2.321   9.595 -0.0104  0.2125 -0.0088
   99OSM   H11F 9954   4.552   2.355   9.612 -1.1820 -2.0281 -2.1706
   99OSM   H11G 9955   4.678   2.348   9.489 -0.5379  0.4204 -0.0643
   99OSM   C12F 9956   4.750   2.388   9.692 -0.2894 -0.2575 -0.2857
   99OSM   H12F 9957   4.737   2.353   9.796  0.8368  1.9387  0.6530
   99OSM   H12G 9958   4.728   2.497   9.699  0.1115 -0.2819  2.9658
   99OSM   C13F 9959   4.902   2.377   9.667 -0.3931  0.6573 -0.4506
   99OSM   H13F 9960   4.928   2.438   9.578 -0.8902  0.3244 -0.8319
   99OSM   H13G 9961   4.921   2.270   9.647 -0.9772  0.2727  0.9135
   99OSM   C14F 9962   4.991   2.448   9.777 -0.1947 -0.4195 -0.2333
   99OSM   H14F 9963   4.944   2.549   9.784  1.4673  0.4456 -1.0335
   99OSM   H14G 9964   5.087   2.453   9.721  0.4405 -4.1417  0.2726
   99OSM   C15F 9965   5.001   2.358   9.903 -0.0728  0.0139  0.2276
   99OSM   H15F 9966   5.017   2.258   9.859 -2.3467  0.3236 -1.5008
   99OSM   H15G 9967   4.908   2.343   9.961  2.0291 -2.2480  3.3081
   99OSM   C16F 9968   5.105   2.396  10.003  0.2447 -0.7226 -0.2691
   99OSM   H16F 9969   5.087   2.337  10.095  0.6114  1.6096  1.3718
   99OSM   H16G 9970   5.082   2.503  10.024  1.7372 -0.3459 -0.4440
   99OSM   C17F 9971   5.250   2.394   9.950 -0.3176 -0.3075  0.0351
   99OSM   H17F 9972   5.325   2.410  10.030 -0.6653 -0.1556  0.3285
   99OSM   H17G 9973   5.264   2.470   9.870  0.3134  1.2663  1.5662
   99OSM   C18F 9974   5.297   2.260   9.877 -0.1567  1.0593 -0.0547
   99OSM   H18F 9975   5.299   2.175   9.949  0.3192  1.3982  0.3405
   99OSM   H18G 9976   5.404   2.259   9.847  0.9279 -1.0744  3.2981
   99OSM   H18H 9977   5.228   2.241   9.792 -0.9484  2.2161  0.3131
  100OSM      N 9978   3.859   1.814  11.196  0.3670 -0.0216  0.1774
  100OSM    C15 9979   3.833   1.673  11.217 -0.2317  0.1097 -0.3910
  100OSM   H15A 9980   3.879   1.631  11.304 -2.1383  0.3003  0.7605
  100OSM   H15B 9981   3.856   1.617  11.127 -0.8061 -0.9594  0.1101
  100OSM   H15C 9982   3.728   1.655  11.233  0.1418 -1.7369  0.1984
  100OSM    C14 9983   3.813   1.894  11.310  0.1625 -0.2559 -0.8545
  100OSM   H14A 9984   3.706   1.908  11.301  0.0754 -0.6436 -0.4359
  100OSM   H14B 9985   3.852   1.994  11.309  4.6338 -1.7537 -3.4910
  100OSM   H14C 9986   3.828   1.854  11.409 -3.1102  2.9830  1.2026
  100OSM    C13 9987   4.004   1.834  11.199 -0.6668 -0.6410  0.4617
  100OSM   H13A 9988   4.039   1.782  11.287 -1.7560 -1.9590  0.1478
  100OSM   H13B 9989   4.031   1.939  11.200 -0.6375 -0.6504  1.6320
  100OSM   H13C 9990   4.055   1.793  11.112 -0.4255  2.3358 -0.9285
  100OSM    C12 9991   3.800   1.867  11.073  0.1968  0.2360  0.4910
  100OSM   H12A 9992   3.845   1.965  11.063  0.5895  0.0887  0.7553
  100OSM   H12B 9993   3.694   1.881  11.084  0.0822 -0.2878  0.1149
  100OSM    C11 9994   3.818   1.775  10.948  0.3667 -0.1954 -1.0111
  100OSM   H11A 9995   3.923   1.739  10.938  0.0286 -1.2071 -1.0847
  100OSM   H11B 9996   3.802   1.844  10.862 -1.1616  0.9831  0.1614
  100OSM      P 9997   3.571   1.693  10.923 -0.4818  0.3870 -0.1824
  100OSM    O13 9998   3.499   1.568  10.956  0.0128  0.1473  0.1846
  100OSM    O14 9999   3.537   1.814  11.005  0.1203 -0.0478  0.5991
  100OSM    O1110000   3.561   1.729  10.766 -0.0962 -0.0708 -0.2434
  100OSM    O1210001   3.725   1.666  10.949  0.0918  0.2402  0.0864
  100OSM    C1S10002   3.461   1.668  10.687 -0.5899  0.6073  0.8217
  100OSM    H1S10003   3.357   1.689  10.721 -0.8382 -0.3998  0.7190
  100OSM    H1T10004   3.475   1.558  10.678 -2.3183  0.5116 -1.7535
  100OSM     NF10005   3.349   1.646  10.462  0.6493  0.9323  0.0242
  100OSM    HNF10006   3.371   1.568  10.404 -0.8389  0.4873  0.0159
  100OSM    C2S10007   3.458   1.713  10.537  0.3551  0.6028 -0.0940
  100OSM    H2S10008   3.441   1.822  10.525 -3.0760  0.1142 -0.7639
  100OSM    C3S10009   3.596   1.690  10.471 -0.1618 -0.4209 -0.3379
  100OSM    H3S10010   3.603   1.580  10.450 -0.7843 -0.1212 -2.3824
  100OSM     O310011   3.715   1.717  10.552  0.0859  0.3930  0.1391
  100OSM    HO310012   3.680   1.745  10.637  2.9147  2.3756  0.7797
  100OSM    C4S10013   3.608   1.762  10.337  0.5891  0.7954  0.2391
  100OSM    H4S10014   3.579   1.693  10.256 -0.1888  1.4743 -0.0853
  100OSM    C5S10015   3.653   1.882  10.297 -0.5376 -0.6819 -0.2373
  100OSM    H5S10016   3.665   1.964  10.369  0.2621 -0.2871 -0.8111
  100OSM    C6S10017   3.663   1.924  10.154 -0.1885 -0.1196  0.0175
  100OSM    H6S10018   3.686   1.840  10.085 -5.4983 -2.8338  0.9575
  100OSM    H6T10019   3.737   2.004  10.137  2.1385 -1.7689  1.6723
  100OSM    C7S10020   3.534   1.986  10.093 -0.0323 -0.5312  0.3902
  100OSM    H7S10021   3.496   2.074  10.148 -1.8062 -1.5647  0.9013
  100OSM    H7T10022   3.458   1.904  10.093 -0.3591 -0.2956 -1.8842
  100OSM    C8S10023   3.560   2.025   9.944  0.2642  0.3877  0.1893
  100OSM    H8S10024   3.660   2.072   9.935 -0.0263  1.1671  0.9710
  100OSM    H8T10025   3.482   2.099   9.915 -2.1531 -2.2706 -0.5990
  100OSM    C9S10026   3.547   1.900   9.854  0.1731 -0.3284  0.1824
  100OSM    H9S10027   3.456   1.841   9.876  0.7183 -0.9433  0.8629
  100OSM    H9T10028   3.638   1.838   9.868  1.0214  0.6069 -0.9825
  100OSM   C10S10029   3.528   1.944   9.703 -0.5238  0.9804 -0.5805
  100OSM   H10S10030   3.438   2.008   9.708 -3.1437 -2.5265  1.3900
  100OSM   H10T10031   3.518   1.853   9.640  1.7702  0.3168 -0.1060
  100OSM   C11S10032   3.641   2.021   9.638  0.2982  0.1426  0.3720
  100OSM   H11S10033   3.722   1.948   9.617 -2.8534 -2.5805 -4.2300
  100OSM   H11T10034   3.668   2.106   9.703 -4.2399 -0.0541  2.9358
  100OSM   C12S10035   3.602   2.071   9.492  0.1841  0.2126  0.1280
  100OSM   H12S10036   3.684   2.137   9.457 -0.4331  1.9703  1.8534
  100OSM   H12T10037   3.506   2.127   9.486  0.0439 -0.1354 -1.5721
  100OSM   C13S10038   3.575   1.962   9.383  0.1726  0.5563 -0.4807
  100OSM   H13S10039   3.468   1.930   9.385  0.2267  0.1940 -1.9636
  100OSM   H13T10040   3.632   1.873   9.417  3.0027  2.7926  0.9814
  100OSM   C14S10041   3.616   2.007   9.239  0.6942  0.6720 -0.2352
  100OSM   H14S10042   3.725   2.025   9.252  0.8536  0.0867 -0.7164
  100OSM   H14T10043   3.559   2.101   9.219 -1.4401 -0.4791  0.1562
  100OSM   C15S10044   3.588   1.898   9.126  0.3403 -0.9728  0.7424
  100OSM   H15S10045   3.478   1.886   9.114  0.4861 -0.1566 -2.0063
  100OSM   H15T10046   3.637   1.801   9.149  2.1335 -0.3954 -0.4114
  100OSM   C16S10047   3.638   1.950   8.993 -0.1525  0.4430  0.1857
  100OSM   H16S10048   3.748   1.969   8.993 -0.2505  1.9146 -3.4445
  100OSM   H16T10049   3.597   2.052   8.981  0.4438  0.7584  0.7894
  100OSM   C17S10050   3.602   1.857   8.877  0.0240 -0.5670  0.6652
  100OSM   H17S10051   3.499   1.820   8.890 -0.0275  0.0224  2.1120
  100OSM   H17T10052   3.666   1.767   8.868 -1.0034 -1.1840 -0.7183
  100OSM   C18S10053   3.595   1.935   8.741  0.2704  0.5830  0.6829
  100OSM   H18S10054   3.526   2.021   8.750 -0.3802  0.7141 -3.5817
  100OSM   H18T10055   3.556   1.870   8.660  1.6485  0.7388 -0.1459
  100OSM   H18U10056   3.696   1.970   8.708  1.6102 -3.2907  0.1449
  100OSM    C1F10057   3.224   1.671  10.495  0.1229  0.1403 -0.0592
  100OSM     OF10058   3.193   1.782  10.539  0.2171  0.2289  0.2551
  100OSM    C2F10059   3.141   1.557  10.486  0.3493  0.0312  0.2844
  100OSM    H2F10060   3.182   1.473  10.546 -2.0328 -0.7557  0.9162
  100OSM    H2G10061   3.143   1.521  10.381  1.8946  1.0313 -0.0624
  100OSM    C3F10062   3.003   1.594  10.544 -0.3446 -0.7569 -0.0717
  100OSM    H3F10063   2.968   1.678  10.481  3.1542 -0.2001 -1.4933
  100OSM    H3G10064   3.007   1.624  10.651 -0.0192  2.7543 -0.9550
  100OSM    C4F10065   2.905   1.474  10.532 -0.0499  0.4123  0.2319
  100OSM    H4F10066   2.832   1.473  10.616 -1.9574  1.6068 -1.3364
  100OSM    H4G10067   2.959   1.377  10.532  1.0533  1.0063 -0.5494
  100OSM    C5F10068   2.814   1.462  10.410  0.1588 -0.0299 -0.5776
  100OSM    H5F10069   2.744   1.548  10.420 -0.1208 -0.3516  0.2909
  100OSM    H5G10070   2.756   1.368  10.415  1.2040 -0.6608  0.1622
  100OSM    C6F10071   2.867   1.459  10.269 -0.6952  0.1304 -0.1427
  100OSM    H6F10072   2.936   1.372  10.276  1.9787  1.9527 -1.7546
  100OSM    H6G10073   2.926   1.552  10.252 -0.4425 -0.0938 -0.5001
  100OSM    C7F10074   2.760   1.449  10.157  0.4850 -0.2065 -0.7989
  100OSM    H7F10075   2.709   1.546  10.174  2.6374  1.0987 -1.3239
  100OSM    H7G10076   2.688   1.368  10.183  1.4679 -0.3742  1.6840
  100OSM    C8F10077   2.809   1.457  10.009  0.2723  0.0868 -0.1043
  100OSM    H8F10078   2.893   1.385   9.993 -1.1415 -1.5387 -0.4805
  100OSM    H8G10079   2.855   1.557   9.995 -0.7442  0.7181  0.8691
  100OSM    C9F10080   2.699   1.450   9.906  0.4460 -0.1462  0.3804
  100OSM    H9F10081   2.599   1.480   9.942  0.3871 -1.4487  1.3696
  100OSM   C10F10082   2.703   1.400   9.782  0.1218  0.6589  0.0246
  100OSM   H10F10083   2.616   1.395   9.714  2.0298  0.1481 -2.5657
  100OSM   C11F10084   2.821   1.329   9.727  0.1673 -0.4616  0.2311
  100OSM   H11F10085   2.800   1.220   9.730 -0.7580 -0.3332 -0.7478
  100OSM   H11G10086   2.906   1.347   9.796  0.1148 -0.9036  0.4136
  100OSM   C12F10087   2.849   1.373   9.586  0.0393 -0.7070 -0.1383
  100OSM   H12F10088   2.952   1.336   9.567 -0.1255 -0.8330 -0.8466
  100OSM   H12G10089   2.857   1.483   9.573  0.2312 -0.5614  1.1299
  100OSM   C13F10090   2.752   1.321   9.472 -0.7118 -0.0421 -0.1852
  100OSM   H13F10091   2.656   1.375   9.485 -0.3310  0.6684 -0.3078
  100OSM   H13G10092   2.722   1.215   9.490  0.5569 -0.6180 -1.3316
  100OSM   C14F10093   2.813   1.342   9.333 -0.1650  0.0303 -0.0172
  100OSM   H14F10094   2.900   1.274   9.327  0.2567  0.4978  0.6326
  100OSM   H14G10095   2.857   1.443   9.337 -0.0841 -0.0454  1.5196
  100OSM   C15F10096   2.717   1.321   9.212  0.1411  0.1278  0.3821
  100OSM   H15F10097   2.634   1.394   9.206 -1.2594 -1.1935  2.2067
  100OSM   H15G10098   2.662   1.225   9.225 -2.2136  1.2741 -0.4756
  100OSM   C16F10099   2.791   1.324   9.078 -0.5088  0.1943  0.5562
  100OSM   H16F10100   2.735   1.275   8.996  0.7108  0.8110 -0.6883
  100OSM   H16G10101   2.875   1.253   9.097 -1.8726 -1.1297  1.9071
  100OSM   C17F10102   2.821   1.469   9.036  0.2041  0.7197  0.3792
  100OSM   H17F10103   2.892   1.521   9.104  1.7667 -0.7094 -0.0884
  100OSM   H17G10104   2.723   1.520   9.030  0.4468  1.0418 -1.5696
  100OSM   C18F10105   2.882   1.474   8.893 -0.4718 -0.3057  0.1676
  100OSM   H18F10106   2.985   1.432   8.898 -0.9226 -1.3478  1.1568
  100OSM   H18G10107   2.877   1.576   8.850  4.3346 -0.1825 -0.7333
  100OSM   H18H10108   2.823   1.408   8.827  1.9808  0.8786 -3.5461
  101OSM      N10109   3.764   1.330  10.770  0.2135  0.6280 -0.3278
  101OSM    C1510110   3.845   1.425  10.856  0.2298 -0.2569 -0.0939
  101OSM   H15A10111   3.947   1.430  10.821 -0.0311 -0.4370 -0.9116
  101OSM   H15B10112   3.838   1.385  10.956  0.3070 -0.6882 -0.2553
  101OSM   H15C10113   3.810   1.527  10.850  1.5398  0.1075 -2.8938
  101OSM    C1410114   3.627   1.329  10.831 -0.0493 -0.1957 -0.3565
  101OSM   H14A10115   3.626   1.314  10.938  1.1337  0.8273 -0.1841
  101OSM   H14B10116   3.570   1.246  10.792 -0.8509  0.4013 -0.4960
  101OSM   H14C10117   3.569   1.415  10.802  0.4656  0.4318  0.4287
  101OSM    C1310118   3.757   1.380  10.631 -0.4655 -0.0489  0.7758
  101OSM   H13A10119   3.729   1.484  10.634  2.4390  0.8134  2.7992
  101OSM   H13B10120   3.683   1.329  10.571  0.8679 -1.8682  0.6020
  101OSM   H13C10121   3.851   1.379  10.577 -0.7279  0.3958  0.3069
  101OSM    C1210122   3.824   1.193  10.765 -0.2722  1.2674  0.4573
  101OSM   H12A10123   3.923   1.196  10.721 -0.6451  0.5616 -0.4606
  101OSM   H12B10124   3.778   1.141  10.682  1.4470 -1.5961  1.1698
  101OSM    C1110125   3.820   1.116  10.902  0.0868 -0.0980  0.0870
  101OSM   H11A10126   3.720   1.126  10.948 -0.2893  0.4105 -0.8028
  101OSM   H11B10127   3.891   1.160  10.975 -1.6705 -0.2374  1.9511
  101OSM      P10128   3.759   0.860  10.871 -0.1435  0.0632 -0.2632
  101OSM    O1310129   3.797   0.763  10.974 -0.0983 -0.5598  0.3683
  101OSM    O1410130   3.620   0.909  10.870 -0.6119 -0.3959  0.3304
  101OSM    O1110131   3.795   0.796  10.722  0.4633 -0.5598 -0.4895
  101OSM    O1210132   3.864   0.980  10.873 -1.1175 -0.0991  0.0371
  101OSM    C1S10133   3.806   0.870  10.602 -0.0839 -0.3013  0.1278
  101OSM    H1S10134   3.765   0.972  10.612 -0.8356 -0.6882  1.2701
  101OSM    H1T10135   3.738   0.818  10.532  0.9130  0.2806 -1.3112
  101OSM     NF10136   3.945   0.961  10.412 -0.2088  0.6716  0.4789
  101OSM    HNF10137   3.899   0.915  10.337  0.3417  0.8119  0.0495
  101OSM    C2S10138   3.947   0.886  10.541  1.0424  0.1198  0.0153
  101OSM    H2S10139   4.012   0.933  10.618  1.7886 -2.7494  1.2961
  101OSM    C3S10140   3.993   0.739  10.515  0.0134 -0.1047 -0.0040
  101OSM    H3S10141   3.925   0.698  10.437 -0.7741 -0.9667  1.1054
  101OSM     O310142   3.987   0.662  10.633 -0.7276 -0.1403  0.4899
  101OSM    HO310143   3.925   0.707  10.691 -0.0409  0.2031  0.9844
  101OSM    C4S10144   4.132   0.739  10.468 -0.2779  0.1102  0.3216
  101OSM    H4S10145   4.193   0.754  10.559 -0.3305 -0.8026  0.5188
  101OSM    C5S10146   4.175   0.718  10.337  0.1722 -0.0050  0.2909
  101OSM    H5S10147   4.099   0.713  10.257 -0.8931 -0.9026  1.3197
  101OSM    C6S10148   4.322   0.717  10.305  0.3238  0.1659 -0.0713
  101OSM    H6S10149   4.378   0.685  10.395 -1.2689 -0.9120  0.5991
  101OSM    H6T10150   4.358   0.808  10.253 -0.3366 -0.1003 -1.0335
  101OSM    C7S10151   4.352   0.608  10.195 -0.1397  0.0457 -0.2187
  101OSM    H7S10152   4.303   0.512  10.219 -0.2554  0.2968  0.5640
  101OSM    H7T10153   4.462   0.587  10.191 -0.0409  0.6537 -2.9561
  101OSM    C8S10154   4.305   0.659  10.053  0.5903  0.2242 -0.1603
  101OSM    H8S10155   4.348   0.758  10.027  1.3175  0.0963  0.5368
  101OSM    H8T10156   4.197   0.675  10.070  0.3838 -0.8813 -0.3066
  101OSM    C9S10157   4.319   0.559   9.938 -0.0586  0.5077 -0.2766
  101OSM    H9S10158   4.238   0.484   9.951 -1.3491  1.4256 -2.4197
  101OSM    H9T10159   4.418   0.508   9.934 -0.7671 -0.8960 -0.7021
  101OSM   C10S10160   4.294   0.613   9.795 -0.3237  0.4128  0.3456
  101OSM   H10S10161   4.205   0.678   9.779  1.0196  1.9152 -1.5378
  101OSM   H10T10162   4.275   0.525   9.730 -0.5595  1.7212 -1.4598
  101OSM   C11S10163   4.415   0.694   9.743 -0.0746 -0.3981 -0.2855
  101OSM   H11S10164   4.507   0.636   9.719  1.2672  1.6137 -0.2839
  101OSM   H11T10165   4.449   0.768   9.819  1.1836 -0.7419 -0.4816
  101OSM   C12S10166   4.372   0.767   9.617 -0.9265  0.2481 -0.3962
  101OSM   H12S10167   4.461   0.823   9.582  0.9261 -1.9986  0.4730
  101OSM   H12T10168   4.281   0.830   9.625 -0.9449  0.0399  1.7829
  101OSM   C13S10169   4.347   0.668   9.501  0.7691  0.5916  0.3988
  101OSM   H13S10170   4.270   0.592   9.525  0.0284  1.3719  0.5292
  101OSM   H13T10171   4.431   0.598   9.479 -0.5142 -0.9631  0.2842
  101OSM   C14S10172   4.304   0.737   9.366 -0.0851  0.2706 -0.0482
  101OSM   H14S10173   4.388   0.805   9.341 -1.9709  2.2838 -1.3070
  101OSM   H14T10174   4.206   0.787   9.375  0.3218  1.0719  0.0218
  101OSM   C15S10175   4.301   0.624   9.266  0.2045 -0.7493 -0.1013
  101OSM   H15S10176   4.231   0.545   9.298 -0.8906 -0.4619 -1.6930
  101OSM   H15T10177   4.401   0.576   9.262  1.3014  1.2910  0.8575
  101OSM   C16S10178   4.263   0.671   9.129  0.0074 -0.1366 -1.0376
  101OSM   H16S10179   4.179   0.743   9.138 -0.6007 -1.1380  2.6638
  101OSM   H16T10180   4.223   0.590   9.064  0.7833 -0.0825 -1.6074
  101OSM   C17S10181   4.380   0.726   9.049  0.3543 -0.0617  0.3942
  101OSM   H17S10182   4.478   0.674   9.061  0.6978  0.6748  0.8559
  101OSM   H17T10183   4.398   0.823   9.100 -0.1563 -1.3248  3.1567
  101OSM   C18S10184   4.340   0.748   8.906  0.4024 -0.3331  0.2261
  101OSM   H18S10185   4.236   0.780   8.884  1.0392  1.2866 -0.6439
  101OSM   H18T10186   4.341   0.652   8.848 -1.2471 -1.4284  1.9056
  101OSM   H18U10187   4.410   0.822   8.862  1.0249 -1.2031 -0.2981
  101OSM    C1F10188   3.943   1.096  10.409 -0.1427  0.0576 -0.3375
  101OSM     OF10189   3.985   1.165  10.502 -0.2981 -0.4708  0.1691
  101OSM    C2F10190   3.897   1.156  10.281  0.2443  0.2413 -0.4232
  101OSM    H2F10191   3.786   1.155  10.286  0.2525  1.2969  0.3180
  101OSM    H2G10192   3.935   1.095  10.196  0.9755  2.1931 -1.5595
  101OSM    C3F10193   3.946   1.306  10.268  0.9041  0.0820 -0.2742
  101OSM    H3F10194   4.056   1.301  10.283  0.6288 -1.5921  1.6955
  101OSM    H3G10195   3.912   1.356  10.361 -0.9623  0.9940 -1.4059
  101OSM    C4F10196   3.903   1.373  10.145  0.0992 -0.4050 -0.1909
  101OSM    H4F10197   3.798   1.407  10.156  0.4095  0.4069  0.3504
  101OSM    H4G10198   3.919   1.299  10.063 -1.3386 -1.0206  0.0609
  101OSM    C5F10199   3.974   1.503  10.125 -0.7015 -0.0079 -0.7368
  101OSM    H5F10200   4.083   1.487  10.140 -0.4958  1.2745 -0.7748
  101OSM    H5G10201   3.934   1.571  10.204 -0.4706  0.0748 -0.6909
  101OSM    C6F10202   3.946   1.568   9.985 -0.5752 -0.2177 -0.2310
  101OSM    H6F10203   3.840   1.600   9.976 -0.4931  0.0211 -0.3358
  101OSM    H6G10204   4.003   1.663   9.984  1.1036 -1.1626  0.8478
  101OSM    C7F10205   3.990   1.485   9.863 -0.1450  0.3267  0.5537
  101OSM    H7F10206   3.926   1.397   9.843 -0.1259  0.5867 -0.7604
  101OSM    H7G10207   4.092   1.453   9.895  0.0073  1.0763  0.8383
  101OSM    C8F10208   3.999   1.567   9.732 -0.3008  0.4691 -0.4550
  101OSM    H8F10209   4.032   1.499   9.651 -1.5301 -0.1191 -0.4866
  101OSM    H8G10210   4.065   1.656   9.739  1.6728 -0.9434 -0.0561
  101OSM    C9F10211   3.866   1.623   9.694  0.1369  0.1118  0.7175
  101OSM    H9F10212   3.811   1.674   9.775  1.4915  2.2642  0.3834
  101OSM   C10F10213   3.807   1.627   9.569 -0.0427  0.0380  0.3286
  101OSM   H10F10214   3.704   1.662   9.552 -0.2273 -0.4219  0.4653
  101OSM   C11F10215   3.875   1.563   9.444 -0.2504 -0.1359  0.1123
  101OSM   H11F10216   3.814   1.472   9.421 -1.3837  0.0603  2.0580
  101OSM   H11G10217   3.980   1.533   9.460 -0.5549 -0.3730  1.9409
  101OSM   C12F10218   3.869   1.670   9.329  0.6505  0.0326 -0.3274
  101OSM   H12F10219   3.909   1.768   9.362 -0.4194  0.9080 -1.5383
  101OSM   H12G10220   3.763   1.694   9.304  1.4431  1.9596 -2.1442
  101OSM   C13F10221   3.918   1.621   9.194  0.5957  0.0004  0.2374
  101OSM   H13F10222   4.021   1.657   9.173  0.0048  1.5740 -0.1515
  101OSM   H13G10223   3.864   1.676   9.114 -0.7803  0.0026  1.1178
  101OSM   C14F10224   3.913   1.464   9.161 -0.0717 -0.4067 -0.6150
  101OSM   H14F10225   3.816   1.422   9.126 -0.4756  0.7312 -0.9116
  101OSM   H14G10226   3.969   1.408   9.239 -1.6924 -0.4345  0.5937
  101OSM   C15F10227   4.003   1.449   9.040 -0.2271  0.6389  0.7259
  101OSM   H15F10228   4.094   1.510   9.059 -0.6503  2.2524 -1.9447
  101OSM   H15G10229   3.954   1.503   8.956 -1.3479 -1.1872  0.1685
  101OSM   C16F10230   4.037   1.299   9.011  0.0402  0.2908 -0.7254
  101OSM   H16F10231   3.951   1.228   9.019  2.3167 -2.4514  2.4038
  101OSM   H16G10232   4.095   1.263   9.099  1.7171  1.7772 -1.1744
  101OSM   C17F10233   4.092   1.263   8.874 -0.0688 -0.2379  0.4860
  101OSM   H17F10234   4.194   1.305   8.860 -1.0701  2.0078 -0.5421
  101OSM   H17G10235   4.032   1.315   8.796 -0.6378  0.1894  1.1982
  101OSM   C18F10236   4.094   1.112   8.839 -0.7192 -0.2466  0.2051
  101OSM   H18F10237   4.012   1.057   8.888  0.5521 -1.7956  0.6768
  101OSM   H18G10238   4.187   1.065   8.876 -0.8373 -0.9218 -0.3358
  101OSM   H18H10239   4.086   1.102   8.728  2.8024 -1.7913 -0.0681
  102OSM      N10240   6.187   4.007  10.679 -0.1255 -0.1450  0.7779
  102OSM    C1510241   6.302   3.972  10.588 -0.0887 -0.3388  0.2113
  102OSM   H15A10242   6.377   4.049  10.592 -1.0019  0.7194 -1.6421
  102OSM   H15B10243   6.288   3.960  10.482  2.4055  0.5365 -0.2871
  102OSM   H15C10244   6.349   3.888  10.637  1.8504  1.1851  1.0649
  102OSM    C1410245   6.100   3.891  10.671  0.3062 -0.5816 -0.2905
  102OSM   H14A10246   6.017   3.888  10.739  0.0886  0.6775 -0.4792
  102OSM   H14B10247   6.151   3.800  10.700  0.6345  0.3077  2.1447
  102OSM   H14C10248   6.076   3.876  10.567  1.5675 -0.1260 -0.6723
  102OSM    C1310249   6.240   4.029  10.820 -0.1829  0.1303  0.3689
  102OSM   H13A10250   6.313   4.108  10.826 -0.1855  0.3157 -1.4513
  102OSM   H13B10251   6.285   3.941  10.863 -1.0786  0.1917  1.4862
  102OSM   H13C10252   6.160   4.052  10.889 -0.6361  1.9163 -0.6877
  102OSM    C1210253   6.114   4.128  10.625 -0.2497 -0.0671  0.9823
  102OSM   H12A10254   6.038   4.158  10.696 -2.1374  1.3462 -1.4685
  102OSM   H12B10255   6.055   4.100  10.539  2.6682  0.7785 -1.4676
  102OSM    C1110256   6.197   4.257  10.589  0.7259 -0.2863 -0.5089
  102OSM   H11A10257   6.120   4.331  10.558  0.9296 -0.5711 -1.7133
  102OSM   H11B10258   6.270   4.234  10.509 -0.4012 -1.0381 -1.3578
  102OSM      P10259   6.420   4.315  10.721  0.3396  0.0376  0.0301
  102OSM    O1310260   6.463   4.400  10.835  0.0856  0.7180 -0.3115
  102OSM    O1410261   6.491   4.188  10.697 -0.4899  0.0928 -0.3541
  102OSM    O1110262   6.439   4.406  10.594 -0.8078 -0.0186  0.4475
  102OSM    O1210263   6.265   4.293  10.712  0.1135 -0.1137  0.5318
  102OSM    C1S10264   6.558   4.428  10.519  0.0292 -0.4095  0.2368
  102OSM    H1S10265   6.633   4.351  10.547  0.0525 -0.3190  0.4301
  102OSM    H1T10266   6.588   4.534  10.533 -3.0298  0.4675  0.9399
  102OSM     NF10267   6.661   4.432  10.297  0.0373  0.1040 -0.9647
  102OSM    HNF10268   6.681   4.528  10.279 -1.4576  0.6527  0.1851
  102OSM    C2S10269   6.533   4.411  10.362  0.5987 -0.0034  0.1159
  102OSM    H2S10270   6.489   4.311  10.343  0.0522  0.4444 -1.0549
  102OSM    C3S10271   6.424   4.513  10.312 -0.0912 -0.6936 -0.1322
  102OSM    H3S10272   6.460   4.616  10.329 -1.8967  0.2084 -1.3953
  102OSM     O310273   6.297   4.508  10.379  0.2416  0.4096  0.4608
  102OSM    HO310274   6.317   4.452  10.454 -2.1750  1.0575  1.7099
  102OSM    C4S10275   6.412   4.496  10.160 -0.0138 -0.5216 -0.3981
  102OSM    H4S10276   6.496   4.550  10.113  0.1073 -1.7310 -1.6359
  102OSM    C5S10277   6.324   4.426  10.085  0.1042 -0.1808 -0.3772
  102OSM    H5S10278   6.238   4.381  10.136 -0.0327  0.0337 -0.4183
  102OSM    C6S10279   6.327   4.400   9.938  0.1242 -0.0890 -0.5374
  102OSM    H6S10280   6.223   4.415   9.900 -0.0097  0.9575  0.1824
  102OSM    H6T10281   6.357   4.296   9.917  1.6850  0.4995 -1.3627
  102OSM    C7S10282   6.406   4.494   9.856 -0.1764 -0.2913  0.1865
  102OSM    H7S10283   6.513   4.488   9.884 -0.1330 -4.0173 -0.2036
  102OSM    H7T10284   6.390   4.600   9.885 -0.0152 -0.0300 -0.6583
  102OSM    C8S10285   6.398   4.461   9.705 -0.2075 -0.1804  0.3908
  102OSM    H8S10286   6.295   4.481   9.670  0.3401  1.0290 -0.5790
  102OSM    H8T10287   6.430   4.356   9.686  0.4200  0.0991 -0.1071
  102OSM    C9S10288   6.502   4.548   9.630 -0.3164  0.6469  0.1683
  102OSM    H9S10289   6.588   4.554   9.699  0.0035  0.4481 -0.2124
  102OSM    H9T10290   6.457   4.650   9.622 -2.1127 -0.0103  1.1753
  102OSM   C10S10291   6.551   4.498   9.496  0.2827  0.7853  0.1743
  102OSM   H10S10292   6.602   4.399   9.501  0.6218  0.9122 -0.5922
  102OSM   H10T10293   6.634   4.563   9.462  0.5041  0.6281  0.4160
  102OSM   C11S10294   6.441   4.506   9.389 -0.0460 -0.8235 -0.0811
  102OSM   H11S10295   6.407   4.611   9.376 -1.1871 -1.2976 -1.0581
  102OSM   H11T10296   6.365   4.433   9.424  1.2782 -1.2450  2.1117
  102OSM   C12S10297   6.501   4.452   9.258 -0.3899 -0.6343 -0.0828
  102OSM   H12S10298   6.518   4.342   9.268 -0.5238 -0.6536 -0.0637
  102OSM   H12T10299   6.595   4.509   9.246 -0.5652 -0.4579 -0.5967
  102OSM   C13S10300   6.432   4.479   9.129  0.6362 -0.4349  0.0876
  102OSM   H13S10301   6.415   4.589   9.129  1.8917 -0.2287  0.3879
  102OSM   H13T10302   6.338   4.421   9.121  0.2662 -0.0119  1.1736
  102OSM   C14S10303   6.515   4.436   9.009 -0.6895  0.0361  0.0811
  102OSM   H14S10304   6.559   4.340   9.043 -2.4552 -0.0330  2.3978
  102OSM   H14T10305   6.595   4.509   8.985  0.3561 -0.7821  0.9701
  102OSM   C15S10306   6.426   4.399   8.890 -0.1732 -0.4227 -0.2381
  102OSM   H15S10307   6.392   4.491   8.837  0.9833  0.5956  0.7224
  102OSM   H15T10308   6.332   4.350   8.924 -0.5866 -0.5305 -1.4885
  102OSM   C16S10309   6.487   4.300   8.790 -0.2639 -0.2763 -0.0134
  102OSM   H16S10310   6.413   4.273   8.712  0.1874 -1.0755 -0.1695
  102OSM   H16T10311   6.504   4.203   8.842  0.3014 -0.3446 -0.3195
  102OSM   C17S10312   6.617   4.350   8.729  0.5421  0.2546  0.0442
  102OSM   H17S10313   6.700   4.336   8.802 -0.2867 -1.2420  0.7641
  102OSM   H17T10314   6.605   4.458   8.707 -0.2843 -0.0737 -1.2030
  102OSM   C18S10315   6.649   4.267   8.609 -0.5358 -0.4449  0.0118
  102OSM   H18S10316   6.749   4.304   8.577 -0.1256 -1.2321  0.3586
  102OSM   H18T10317   6.582   4.270   8.520 -2.6643 -0.2402  1.5396
  102OSM   H18U10318   6.661   4.162   8.641 -1.1787 -0.3810  0.4721
  102OSM    C1F10319   6.750   4.338  10.284  0.0676 -0.5088  0.3070
  102OSM     OF10320   6.710   4.234  10.331  0.3414 -0.2966  0.3723
  102OSM    C2F10321   6.884   4.352  10.219  0.6248  0.2381  0.0204
  102OSM    H2F10322   6.967   4.345  10.293  1.3738 -1.7708 -0.9516
  102OSM    H2G10323   6.885   4.453  10.171  3.3241  0.5327  0.5505
  102OSM    C3F10324   6.919   4.229  10.130 -0.0284  0.0448 -1.1043
  102OSM    H3F10325   6.902   4.134  10.185 -1.1890  0.5116 -0.6448
  102OSM    H3G10326   7.024   4.220  10.096 -0.1406 -0.3072 -1.3613
  102OSM    C4F10327   6.841   4.221   9.997  0.4643  0.6112 -0.2037
  102OSM    H4F10328   6.865   4.317   9.947  1.0137  0.7905  0.3889
  102OSM    H4G10329   6.731   4.218  10.017  0.6205 -0.5776  0.5693
  102OSM    C5F10330   6.880   4.096   9.919  0.4610  0.4277 -0.1354
  102OSM    H5F10331   6.827   4.005   9.954  1.7578 -0.4317 -0.3211
  102OSM    H5G10332   6.988   4.072   9.929  0.5700  0.4497 -1.2283
  102OSM    C6F10333   6.834   4.110   9.772 -0.4042  0.1477 -0.1772
  102OSM    H6F10334   6.900   4.186   9.725  0.1331  1.3360  2.3040
  102OSM    H6G10335   6.734   4.156   9.766 -0.5296 -0.3016 -2.4511
  102OSM    C7F10336   6.828   3.981   9.688  0.0740 -0.0759 -0.0188
  102OSM    H7F10337   6.732   3.932   9.716  0.3940 -0.8015 -0.1947
  102OSM    H7G10338   6.916   3.919   9.715  0.6360  0.6088 -0.2462
  102OSM    C8F10339   6.829   4.011   9.536  0.0111  0.0016  0.1090
  102OSM    H8F10340   6.835   3.913   9.484  1.8017  0.8423 -1.3792
  102OSM    H8G10341   6.928   4.049   9.503 -0.1538  0.0907 -0.2843
  102OSM    C9F10342   6.715   4.096   9.494 -0.5020  0.3161  0.5533
  102OSM    H9F10343   6.669   4.168   9.563 -1.4001  0.2187  0.0731
  102OSM   C10F10344   6.656   4.069   9.378  0.1133  0.0796 -0.2536
  102OSM   H10F10345   6.565   4.127   9.356  0.6823  0.6161 -1.2341
  102OSM   C11F10346   6.707   3.968   9.272 -0.0972 -0.0651  0.0629
  102OSM   H11F10347   6.672   3.866   9.298 -0.9391  0.4560  1.0583
  102OSM   H11G10348   6.817   3.963   9.257  0.1299  2.0409  0.6293
  102OSM   C12F10349   6.646   4.001   9.128  0.2781 -0.6792 -0.0982
  102OSM   H12F10350   6.658   4.110   9.112 -0.9149 -0.3309  1.1545
  102OSM   H12G10351   6.536   3.984   9.131  0.3281 -1.1564 -0.7604
  102OSM   C13F10352   6.701   3.907   9.023  0.7835  0.4410 -0.0683
  102OSM   H13F10353   6.685   3.810   9.074 -1.6055  0.9032  0.1633
  102OSM   H13G10354   6.809   3.930   9.013  0.8908 -0.3041 -0.6554
  102OSM   C14F10355   6.631   3.924   8.891  0.4503 -0.0695 -0.2482
  102OSM   H14F10356   6.664   4.019   8.843  2.8680 -0.6451  0.1354
  102OSM   H14G10357   6.525   3.952   8.908  0.4291  1.5267 -2.4367
  102OSM   C15F10358   6.626   3.809   8.793 -0.1054 -0.3966  0.5256
  102OSM   H15F10359   6.575   3.718   8.832 -1.5597  1.0827  2.2531
  102OSM   H15G10360   6.731   3.781   8.772  0.1399  0.7241  0.2124
  102OSM   C16F10361   6.572   3.858   8.661 -0.2089 -0.5599 -0.0383
  102OSM   H16F10362   6.638   3.935   8.615 -0.5197 -1.1440 -1.5101
  102OSM   H16G10363   6.471   3.900   8.677  0.2194  0.9765 -1.1269
  102OSM   C17F10364   6.562   3.758   8.553  1.0674  1.5338  0.3843
  102OSM   H17F10365   6.485   3.683   8.582  0.9840  0.7803 -1.6000
  102OSM   H17G10366   6.657   3.703   8.538 -1.1191 -2.5192 -0.1550
  102OSM   C18F10367   6.520   3.817   8.411  0.0951  0.8998 -0.2246
  102OSM   H18F10368   6.610   3.867   8.370 -0.2779  2.3104  0.6104
  102OSM   H18G10369   6.425   3.873   8.414  0.9217  2.3010  1.2517
  102OSM   H18H10370   6.502   3.742   8.331 -0.2707  1.7179 -0.9137
  103OSM      N10371   4.435   0.064  11.375  0.8699 -0.2091 -0.2059
  103OSM    C1510372   4.468   0.079  11.518  0.4269  0.2037 -0.5070
  103OSM   H15A10373   4.447  -0.007  11.580 -1.3992  0.0672 -1.2505
  103OSM   H15B10374   4.406   0.161  11.553 -0.2536 -0.2815 -0.5482
  103OSM   H15C10375   4.566   0.121  11.535 -0.2485  1.3655  0.7170
  103OSM    C1410376   4.305  -0.001  11.364  0.8539  0.3093 -0.3129
  103OSM   H14A10377   4.274  -0.001  11.261  0.3908 -0.5850 -0.1818
  103OSM   H14B10378   4.228   0.045  11.424  0.3677  2.0873 -2.2068
  103OSM   H14C10379   4.307  -0.105  11.393 -0.2920  0.0564 -1.0528
  103OSM    C1310380   4.417   0.203  11.334  0.6442 -0.3906  0.0084
  103OSM   H13A10381   4.419   0.215  11.227 -3.9017 -0.9396 -0.3480
  103OSM   H13B10382   4.497   0.269  11.364  0.5979  0.1757 -1.0558
  103OSM   H13C10383   4.331   0.249  11.380  0.7335  1.7973 -1.8392
  103OSM    C1210384   4.538  -0.009  11.301  0.2224  1.1165 -0.0319
  103OSM   H12A10385   4.554  -0.105  11.347  3.6775  0.3039 -2.5006
  103OSM   H12B10386   4.625   0.056  11.304  2.2103 -1.3710 -0.7144
  103OSM    C1110387   4.509  -0.038  11.156 -0.0595  0.2756  0.3803
  103OSM   H11A10388   4.411  -0.091  11.147  0.4570 -0.6418  0.0668
  103OSM   H11B10389   4.587  -0.102  11.111 -0.6819 -1.4565  1.6824
  103OSM      P10390   4.652   0.171  11.077  0.0893 -0.3352 -0.2575
  103OSM    O1310391   4.631   0.315  11.105  0.7003 -0.6478  0.2738
  103OSM    O1410392   4.750   0.098  11.154 -0.0093  0.2232  0.1259
  103OSM    O1110393   4.686   0.158  10.923  0.2002  0.3380 -0.0834
  103OSM    O1210394   4.518   0.082  11.081 -0.5752  0.2312  0.0652
  103OSM    C1S10395   4.584   0.182  10.826  0.1300  0.2669  0.1324
  103OSM    H1S10396   4.564   0.291  10.820 -1.3026 -0.0279 -1.1590
  103OSM    H1T10397   4.493   0.127  10.858  2.1927 -1.9350  2.7467
  103OSM     NF10398   4.569   0.185  10.573 -0.6147  0.8884 -0.0449
  103OSM    HNF10399   4.504   0.118  10.537 -0.3600 -0.6476  2.1684
  103OSM    C2S10400   4.639   0.128  10.691 -1.1603  0.0256  0.1365
  103OSM    H2S10401   4.745   0.161  10.682 -1.1394 -0.3894 -1.5829
  103OSM    C3S10402   4.645  -0.029  10.695 -0.0508  0.0105 -0.6472
  103OSM    H3S10403   4.541  -0.064  10.674 -0.0001  1.0699 -3.0050
  103OSM     O310404   4.703  -0.081  10.812 -0.2174  0.0427 -0.5565
  103OSM    HO310405   4.711   0.003  10.858  1.4551 -1.2869  1.7673
  103OSM    C4S10406   4.732  -0.088  10.575  0.5745  0.5683 -0.2682
  103OSM    H4S10407   4.832  -0.112  10.614  0.1137  2.1749  2.1058
  103OSM    C5S10408   4.703  -0.103  10.445  0.3686  0.4542 -0.3607
  103OSM    H5S10409   4.605  -0.074  10.402 -0.2024 -1.9705 -0.8165
  103OSM    C6S10410   4.792  -0.150  10.335  0.0431 -0.6269  0.3695
  103OSM    H6S10411   4.759  -0.242  10.281 -0.0563  0.3111 -1.2386
  103OSM    H6T10412   4.893  -0.166  10.379 -0.4066 -0.3619  1.5115
  103OSM    C7S10413   4.802  -0.038  10.231 -0.0394  0.0041 -0.9381
  103OSM    H7S10414   4.818   0.054  10.291 -2.0919 -0.7900  0.9452
  103OSM    H7T10415   4.704  -0.020  10.182 -0.0725 -1.0909 -1.2807
  103OSM    C8S10416   4.911  -0.059  10.124 -0.3189 -0.0042  0.2202
  103OSM    H8S10417   4.902  -0.160  10.078 -0.3888 -0.1505  0.5543
  103OSM    H8T10418   5.016  -0.040  10.156  0.7045 -2.3274 -1.5235
  103OSM    C9S10419   4.888   0.055  10.022 -0.6468  0.0859  0.3355
  103OSM    H9S10420   4.877   0.149  10.079  1.2100  0.1241  0.7081
  103OSM    H9T10421   4.787   0.036   9.979 -0.0235  0.7262 -1.5082
  103OSM   C10S10422   5.001   0.061   9.922  0.5308 -0.2560  0.2194
  103OSM   H10S10423   5.025  -0.039   9.881 -0.8653 -0.6815  0.3611
  103OSM   H10T10424   5.094   0.108   9.961  0.5604 -1.1115  1.2076
  103OSM   C11S10425   4.969   0.165   9.808  0.1633  0.1961 -0.2025
  103OSM   H11S10426   4.918   0.256   9.846  0.4778  0.7451 -1.0775
  103OSM   H11T10427   4.880   0.135   9.748 -0.4731  2.5591 -0.5459
  103OSM   C12S10428   5.082   0.191   9.719  0.2310  0.4433  0.4656
  103OSM   H12S10429   5.136   0.104   9.676 -0.8803  0.2578 -0.6141
  103OSM   H12T10430   5.157   0.254   9.772 -0.2569  0.1361  1.5480
  103OSM   C13S10431   5.047   0.282   9.600  0.5126 -0.6800  0.2030
  103OSM   H13S10432   5.144   0.317   9.558  0.1818 -0.8782 -0.7480
  103OSM   H13T10433   4.996   0.378   9.620  2.5689  0.5233 -0.0860
  103OSM   C14S10434   4.959   0.210   9.489 -0.4571  0.4904  0.0318
  103OSM   H14S10435   4.868   0.182   9.547  0.1307  0.9594  1.2071
  103OSM   H14T10436   5.010   0.117   9.459 -2.0888 -0.9356  1.4699
  103OSM   C15S10437   4.913   0.310   9.383 -0.6597  0.2752 -0.4121
  103OSM   H15S10438   4.865   0.391   9.440  0.6713  1.0444 -0.3352
  103OSM   H15T10439   4.842   0.254   9.318  1.9901 -2.3723 -1.2874
  103OSM   C16S10440   5.028   0.377   9.299 -0.1272 -0.1834  0.2472
  103OSM   H16S10441   5.074   0.309   9.224  0.9388  1.4653 -0.6479
  103OSM   H16T10442   5.106   0.428   9.360  0.6796  0.9077 -1.5960
  103OSM   C17S10443   4.972   0.498   9.217  0.5737 -0.2319  0.2279
  103OSM   H17S10444   4.943   0.580   9.286  1.7492  0.1231  0.3145
  103OSM   H17T10445   4.885   0.464   9.157 -0.4608  0.2050  1.4270
  103OSM   C18S10446   5.076   0.550   9.127 -0.5927 -0.5519  0.9116
  103OSM   H18S10447   5.117   0.475   9.056  1.4000  2.8129 -1.8371
  103OSM   H18T10448   5.167   0.585   9.180  0.4845 -0.7601 -0.7156
  103OSM   H18U10449   5.040   0.637   9.067 -0.4283 -1.2243 -0.1823
  103OSM    C1F10450   4.560   0.320  10.545  0.8237  0.8465 -0.0277
  103OSM     OF10451   4.638   0.398  10.591  0.3305  0.8887 -0.3351
  103OSM    C2F10452   4.437   0.369  10.472 -0.3944  0.1824  0.4261
  103OSM    H2F10453   4.477   0.436  10.393  1.2373 -0.5714  0.5703
  103OSM    H2G10454   4.368   0.417  10.545 -1.1996 -0.6522  0.2386
  103OSM    C3F10455   4.359   0.264  10.392 -0.0469 -0.6037  0.1248
  103OSM    H3F10456   4.259   0.305  10.367  1.1892  1.3773 -1.9909
  103OSM    H3G10457   4.342   0.171  10.450  1.2132 -2.6327 -2.5168
  103OSM    C4F10458   4.423   0.232  10.250 -0.1346  0.3629 -0.0731
  103OSM    H4F10459   4.513   0.169  10.264  0.2808  1.1936  1.2351
  103OSM    H4G10460   4.441   0.336  10.216 -0.8592  0.8474  0.9847
  103OSM    C5F10461   4.328   0.162  10.152 -0.7101  0.2594 -0.9283
  103OSM    H5F10462   4.250   0.232  10.117 -2.7957 -1.8949 -0.7974
  103OSM    H5G10463   4.270   0.082  10.203  0.6289 -1.5537 -2.0996
  103OSM    C6F10464   4.386   0.112  10.026  0.3164  0.3620  0.1403
  103OSM    H6F10465   4.304   0.051   9.983  0.0929  1.5742 -1.2233
  103OSM    H6G10466   4.469   0.044  10.057 -1.1360 -0.4636  2.5396
  103OSM    C7F10467   4.429   0.226   9.929 -0.1271 -0.3079 -0.3358
  103OSM    H7F10468   4.497   0.289   9.991  2.6562 -2.7635 -0.6572
  103OSM    H7G10469   4.344   0.284   9.887  0.2511  0.0614 -0.6035
  103OSM    C8F10470   4.534   0.180   9.815  0.4297  0.7027 -0.9039
  103OSM    H8F10471   4.477   0.107   9.753 -1.7911  0.5088  1.2099
  103OSM    H8G10472   4.606   0.114   9.869 -1.1488  1.2319  2.0969
  103OSM    C9F10473   4.605   0.287   9.744 -0.3413  0.3484 -0.1790
  103OSM    H9F10474   4.657   0.354   9.814  0.6545  0.2815 -0.8443
  103OSM   C10F10475   4.614   0.316   9.612  0.1438 -1.1201  0.3421
  103OSM   H10F10476   4.685   0.393   9.577 -2.4760  1.9217  1.1785
  103OSM   C11F10477   4.559   0.236   9.501 -0.2492  0.1456  0.2741
  103OSM   H11F10478   4.523   0.133   9.524 -5.8817  1.1574 -2.1827
  103OSM   H11G10479   4.645   0.237   9.431 -0.7691 -1.1069 -0.4302
  103OSM   C12F10480   4.434   0.303   9.444  0.1143 -0.4994  0.3315
  103OSM   H12F10481   4.457   0.411   9.432 -1.4766 -0.2454 -0.6970
  103OSM   H12G10482   4.340   0.291   9.502 -0.1237  1.4939  0.4173
  103OSM   C13F10483   4.387   0.241   9.307 -0.9079  0.9344  0.2571
  103OSM   H13F10484   4.290   0.286   9.277  0.3370  3.2820 -0.4356
  103OSM   H13G10485   4.381   0.130   9.317  0.9859  1.0026  3.1439
  103OSM   C14F10486   4.491   0.278   9.194  0.3308  0.0290 -0.3735
  103OSM   H14F10487   4.581   0.214   9.202 -0.3865 -0.9128  0.4090
  103OSM   H14G10488   4.509   0.385   9.218 -1.7843 -0.1723  2.7754
  103OSM   C15F10489   4.427   0.279   9.053  0.0130  0.7554 -0.0720
  103OSM   H15F10490   4.335   0.340   9.047  0.3688  1.1824 -1.7470
  103OSM   H15G10491   4.379   0.180   9.033 -1.5630  1.2307  1.1444
  103OSM   C16F10492   4.531   0.305   8.935 -0.6487 -0.1870  0.7174
  103OSM   H16F10493   4.601   0.377   8.981  1.1330 -1.2725 -0.2032
  103OSM   H16G10494   4.474   0.344   8.848 -1.3217 -2.0800  0.2478
  103OSM   C17F10495   4.600   0.177   8.894  0.4747  0.1802  0.6994
  103OSM   H17F10496   4.521   0.114   8.848  0.3686  0.2189  0.8276
  103OSM   H17G10497   4.629   0.131   8.990  0.9486 -0.2168  0.3712
  103OSM   C18F10498   4.725   0.201   8.812 -0.2069 -0.9142 -0.6009
  103OSM   H18F10499   4.807   0.222   8.884  1.6994 -1.1828 -2.5601
  103OSM   H18G10500   4.714   0.286   8.741  1.5900 -1.7789 -2.0125
  103OSM   H18H10501   4.756   0.105   8.764  3.7424 -0.3006  0.3800
  104OSM      N10502   0.090   5.462  10.719 -0.7001  0.4360 -0.2045
  104OSM    C1510503   0.205   5.410  10.636  0.4566  0.3709 -0.7609
  104OSM   H15A10504   0.296   5.400  10.692  1.1059 -2.3580 -2.1362
  104OSM   H15B10505   0.222   5.488  10.563 -0.2780  0.0676 -1.2735
  104OSM   H15C10506   0.183   5.320  10.581 -1.8263  1.5036 -1.8622
  104OSM    C1410507   0.073   5.368  10.833 -0.0219 -0.3182 -0.2781
  104OSM   H14A10508  -0.011   5.388  10.899  2.9830  0.2327  3.8211
  104OSM   H14B10509   0.163   5.359  10.893 -0.9502  1.3691  1.5059
  104OSM   H14C10510   0.043   5.276  10.786  1.2551 -0.7242 -0.3325
  104OSM    C1310511   0.124   5.599  10.770 -0.1474  0.3369  0.8234
  104OSM   H13A10512   0.045   5.661  10.809 -2.4830 -0.1540 -2.7229
  104OSM   H13B10513   0.135   5.658  10.680 -1.3785  1.5788  1.4602
  104OSM   H13C10514   0.214   5.601  10.830  1.1964  0.6870 -1.0879
  104OSM    C1210515  -0.044   5.454  10.641  0.1690 -0.3296 -0.4155
  104OSM   H12A10516  -0.069   5.351  10.617  0.7897 -0.4541 -0.5569
  104OSM   H12B10517  -0.041   5.501  10.544  1.2694  2.7741  1.0109
  104OSM    C1110518  -0.169   5.508  10.715 -0.0643 -0.3685 -0.0189
  104OSM   H11A10519  -0.197   5.449  10.805  1.3379  1.2595  1.5816
  104OSM   H11B10520  -0.255   5.514  10.645  1.0616  0.1846 -1.4038
  104OSM      P10521  -0.196   5.769  10.716  0.3314 -0.4401 -0.1009
  104OSM    O1310522  -0.326   5.794  10.781 -0.3100 -0.2165 -0.2970
  104OSM    O1410523  -0.088   5.872  10.720  0.9574 -0.1286  0.4870
  104OSM    O1110524  -0.226   5.730  10.570  0.0815  0.2276  0.2652
  104OSM    O1210525  -0.140   5.640  10.774 -0.5124  0.3672 -0.2712
  104OSM    C1S10526  -0.239   5.839  10.478  0.0739 -0.4169 -0.2201
  104OSM    H1S10527  -0.140   5.889  10.471  0.4973 -0.9534  1.4155
  104OSM    H1T10528  -0.310   5.916  10.514  0.3785 -0.0941 -0.3028
  104OSM     NF10529  -0.261   5.882  10.230  0.1368 -0.2618 -0.0390
  104OSM    HNF10530  -0.342   5.926  10.193  0.6976 -0.1532 -1.1801
  104OSM    C2S10531  -0.274   5.782  10.336  0.4080  0.5883 -0.4820
  104OSM    H2S10532  -0.203   5.698  10.320 -0.0204 -0.3732  2.1573
  104OSM    C3S10533  -0.418   5.720  10.343 -0.1739  0.7312  0.1494
  104OSM    H3S10534  -0.496   5.799  10.329 -0.8348 -0.1092 -1.1572
  104OSM     O310535  -0.450   5.658  10.467 -0.3042 -0.2371 -0.6940
  104OSM    HO310536  -0.369   5.681  10.513 -0.9139 -0.4039  0.5218
  104OSM    C4S10537  -0.431   5.625  10.232 -0.2070  0.4956 -0.1863
  104OSM    H4S10538  -0.454   5.685  10.143  1.7978  0.3525 -0.8569
  104OSM    C5S10539  -0.425   5.491  10.225 -0.6212 -0.5545  0.2393
  104OSM    H5S10540  -0.414   5.442  10.323 -0.3376 -0.0753  0.4491
  104OSM    C6S10541  -0.443   5.408  10.105  0.4967 -0.2021  1.1422
  104OSM    H6S10542  -0.528   5.337  10.108  0.3174 -0.1368 -1.0285
  104OSM    H6T10543  -0.348   5.360  10.072 -0.8652 -0.7623 -2.3569
  104OSM    C7S10544  -0.486   5.495   9.979 -0.7099 -0.1498  0.3210
  104OSM    H7S10545  -0.428   5.589   9.977  1.0672 -1.1511  1.3701
  104OSM    H7T10546  -0.591   5.518  10.004 -1.4514 -2.4685 -0.3767
  104OSM    C8S10547  -0.463   5.428   9.843  0.3663 -0.8343  0.2941
  104OSM    H8S10548  -0.522   5.333   9.844  1.6218 -1.6347  1.7727
  104OSM    H8T10549  -0.361   5.392   9.821 -0.5206 -2.4353 -1.5432
  104OSM    C9S10550  -0.494   5.523   9.726 -0.4496 -0.4793  0.8950
  104OSM    H9S10551  -0.446   5.622   9.741 -1.8132  0.2645  0.5980
  104OSM    H9T10552  -0.604   5.539   9.726 -0.5993 -1.3677 -0.3053
  104OSM   C10S10553  -0.464   5.455   9.590  0.3188 -0.2392 -0.2377
  104OSM   H10S10554  -0.534   5.369   9.585  0.5587 -0.5697  1.4871
  104OSM   H10T10555  -0.359   5.419   9.588  0.0286 -1.2041  0.7670
  104OSM   C11S10556  -0.499   5.547   9.470  0.6838 -0.1809  0.4159
  104OSM   H11S10557  -0.437   5.638   9.481  1.9104 -0.9924  0.4334
  104OSM   H11T10558  -0.604   5.584   9.463  1.2569  1.2494 -1.9339
  104OSM   C12S10559  -0.495   5.480   9.336 -0.0867  0.0642 -0.5601
  104OSM   H12S10560  -0.549   5.385   9.351 -1.0783  0.9948  2.4404
  104OSM   H12T10561  -0.389   5.451   9.318 -0.4037 -1.1837 -0.5109
  104OSM   C13S10562  -0.557   5.556   9.218  1.1481 -0.2644  0.1415
  104OSM   H13S10563  -0.494   5.646   9.206 -1.3318  1.7321  1.1462
  104OSM   H13T10564  -0.661   5.589   9.240  1.3730  1.7726 -1.5752
  104OSM   C14S10565  -0.567   5.468   9.088 -0.4051 -0.3165  0.2437
  104OSM   H14S10566  -0.616   5.375   9.122  0.2345 -0.4952  0.6913
  104OSM   H14T10567  -0.468   5.437   9.046 -1.4932 -1.6810 -1.4651
  104OSM   C15S10568  -0.656   5.521   8.975 -0.0968  0.4094  0.8608
  104OSM   H15S10569  -0.624   5.625   8.954 -4.1685  1.4806 -0.9983
  104OSM   H15T10570  -0.762   5.526   9.008 -0.2485 -2.5268  1.0430
  104OSM   C16S10571  -0.632   5.433   8.849 -0.0233 -0.3831  0.6295
  104OSM   H16S10572  -0.624   5.323   8.866 -0.2537 -0.3766  0.7896
  104OSM   H16T10573  -0.529   5.459   8.817  0.5539 -1.6067  1.3962
  104OSM   C17S10574  -0.724   5.452   8.726 -0.7651 -0.3775 -0.2833
  104OSM   H17S10575  -0.830   5.440   8.754 -0.4961 -1.5749  0.2677
  104OSM   H17T10576  -0.688   5.386   8.644 -0.8347 -2.2521  1.1443
  104OSM   C18S10577  -0.721   5.599   8.679 -0.1001  0.8042  0.0714
  104OSM   H18S10578  -0.620   5.624   8.641 -1.1879  3.6432 -1.2872
  104OSM   H18T10579  -0.737   5.665   8.766 -2.2869  0.3322  0.1055
  104OSM   H18U10580  -0.786   5.634   8.596  2.4595  0.9714 -1.9964
  104OSM    C1F10581  -0.140   5.894  10.170  0.2187 -0.3064  0.6235
  104OSM     OF10582  -0.041   5.826  10.209  0.4082  0.4275 -0.0325
  104OSM    C2F10583  -0.115   5.992  10.066 -0.3117 -0.1232  0.0772
  104OSM    H2F10584  -0.020   6.047  10.084 -0.0652  0.4453 -2.5463
  104OSM    H2G10585  -0.200   6.062  10.050 -1.1811 -0.9058  1.0984
  104OSM    C3F10586  -0.111   5.934   9.920 -0.6766 -0.6356 -0.5695
  104OSM    H3F10587  -0.076   5.829   9.925  0.9736 -0.2163 -2.3902
  104OSM    H3G10588  -0.034   5.994   9.867 -0.3497  2.0950  2.6305
  104OSM    C4F10589  -0.251   5.931   9.857 -0.4292  0.2357 -0.0139
  104OSM    H4F10590  -0.297   6.031   9.844 -1.5841 -0.3025 -0.1374
  104OSM    H4G10591  -0.317   5.877   9.929 -1.8636  3.2940  1.1410
  104OSM    C5F10592  -0.259   5.857   9.729 -0.0865 -0.8480  0.3882
  104OSM    H5F10593  -0.350   5.798   9.705  1.1919 -2.4264 -0.8928
  104OSM    H5G10594  -0.182   5.777   9.718 -1.3836 -2.3678  1.9285
  104OSM    C6F10595  -0.246   5.946   9.605 -0.3982  0.0211 -0.2633
  104OSM    H6F10596  -0.142   5.986   9.605 -0.4096  0.1040  0.9960
  104OSM    H6G10597  -0.308   6.038   9.610 -0.5161  0.0115 -1.4495
  104OSM    C7F10598  -0.270   5.878   9.475 -0.4491 -0.2027  0.1689
  104OSM    H7F10599  -0.372   5.835   9.491 -0.5192 -0.0411  0.1512
  104OSM    H7G10600  -0.204   5.791   9.454  0.4259  0.3211  0.7158
  104OSM    C8F10601  -0.242   5.982   9.361 -0.4333  0.9523 -0.5763
  104OSM    H8F10602  -0.139   6.020   9.373  0.0643 -0.3067 -0.7410
  104OSM    H8G10603  -0.320   6.056   9.390 -2.3878 -1.4780  0.7617
  104OSM    C9F10604  -0.274   5.927   9.226  0.0241  0.4624  0.6030
  104OSM    H9F10605  -0.273   5.818   9.215  0.7512  0.3813  1.3805
  104OSM   C10F10606  -0.300   6.000   9.114 -0.2949 -0.7759  0.0124
  104OSM   H10F10607  -0.330   5.956   9.018 -0.5394  1.8684 -1.2302
  104OSM   C11F10608  -0.309   6.150   9.113  0.1961  0.5012  0.0603
  104OSM   H11F10609  -0.250   6.202   9.192  3.5975  0.8332 -2.5168
  104OSM   H11G10610  -0.416   6.177   9.124  0.2328  0.2355  1.2096
  104OSM   C12F10611  -0.238   6.218   8.992  0.9874  0.1271  1.0648
  104OSM   H12F10612  -0.133   6.181   8.989  0.9268 -0.0090  0.2009
  104OSM   H12G10613  -0.229   6.326   9.015  0.5108  1.0578 -2.4873
  104OSM   C13F10614  -0.298   6.177   8.851 -0.1046 -0.3356  0.1200
  104OSM   H13F10615  -0.270   6.072   8.826 -2.0564 -1.0678  0.8813
  104OSM   H13G10616  -0.228   6.241   8.792 -1.8383  0.4105 -1.2196
  104OSM   C14F10617  -0.441   6.227   8.832  0.7787  0.4787  0.2902
  104OSM   H14F10618  -0.450   6.329   8.875 -0.3508  0.6696 -0.3770
  104OSM   H14G10619  -0.514   6.165   8.888 -0.7400 -0.6558 -2.7076
  104OSM   C15F10620  -0.481   6.232   8.684 -0.0201  0.4170  0.6099
  104OSM   H15F10621  -0.396   6.271   8.624 -1.4163 -0.0024 -1.7264
  104OSM   H15G10622  -0.563   6.303   8.666 -0.3360 -0.0385  0.2482
  104OSM   C16F10623  -0.513   6.088   8.628 -0.7473  0.2104 -0.4037
  104OSM   H16F10624  -0.598   6.045   8.684 -0.8375 -0.1825 -0.8295
  104OSM   H16G10625  -0.426   6.023   8.652  0.6111  2.1786  0.2059
  104OSM   C17F10626  -0.541   6.077   8.477  0.2689 -0.6290 -0.5945
  104OSM   H17F10627  -0.448   6.119   8.435  0.9688  0.2674  1.7059
  104OSM   H17G10628  -0.623   6.150   8.460  0.4961  0.2420  1.6322
  104OSM   C18F10629  -0.579   5.938   8.425 -0.2028  0.3788 -0.4704
  104OSM   H18F10630  -0.589   5.936   8.314  0.5847  1.1039 -0.5674
  104OSM   H18G10631  -0.672   5.901   8.472 -0.4925  0.6658 -0.8054
  104OSM   H18H10632  -0.492   5.875   8.453 -1.1855 -0.0755  1.7648
  105OSM      N10633   4.210   3.756  11.053  0.7139 -0.0626  0.5004
  105OSM    C1510634   4.231   3.644  11.142  0.0881 -0.3512 -0.0222
  105OSM   H15A10635   4.310   3.652  11.215  1.0074  2.2476 -1.2151
  105OSM   H15B10636   4.250   3.557  11.080  2.0847 -0.2898  0.4495
  105OSM   H15C10637   4.141   3.612  11.193  0.6574  0.6118  1.6473
  105OSM    C1410638   4.142   3.861  11.129  0.5739  0.6560  0.1126
  105OSM   H14A10639   4.129   3.948  11.066  0.5640  2.1690  2.0939
  105OSM   H14B10640   4.203   3.898  11.210 -0.5608  1.9891  0.3953
  105OSM   H14C10641   4.047   3.829  11.170  1.3610 -2.2897 -0.1410
  105OSM    C1310642   4.332   3.811  11.003 -0.7543 -0.2791  0.1729
  105OSM   H13A10643   4.406   3.815  11.082 -1.3957  0.5200  0.7504
  105OSM   H13B10644   4.324   3.901  10.946  2.3218 -0.8248 -1.3158
  105OSM   H13C10645   4.373   3.733  10.940  0.1616 -0.0593  0.4850
  105OSM    C1210646   4.113   3.718  10.937 -0.0737 -0.2017  0.5551
  105OSM   H12A10647   4.101   3.803  10.872  0.1245 -1.4283 -1.1518
  105OSM   H12B10648   4.024   3.684  10.989 -1.0706 -0.2298 -1.0968
  105OSM    C1110649   4.146   3.599  10.847 -0.5077  0.0326  0.2241
  105OSM   H11A10650   4.250   3.612  10.810 -0.8888  3.7320 -0.0080
  105OSM   H11B10651   4.086   3.606  10.754 -2.6120  1.7912  1.5840
  105OSM      P10652   4.212   3.342  10.882 -0.0508 -0.3444  0.0087
  105OSM    O1310653   4.349   3.352  10.934  0.1879  0.1462 -0.7182
  105OSM    O1410654   4.146   3.215  10.917  0.1371 -0.3032 -0.2989
  105OSM    O1110655   4.215   3.362  10.725 -0.5360 -0.0690  0.0125
  105OSM    O1210656   4.134   3.477  10.923 -0.9140  0.1829  0.2039
  105OSM    C1S10657   4.289   3.265  10.649 -0.3376 -0.0760 -0.2058
  105OSM    H1S10658   4.256   3.165  10.685 -0.6814  0.4353  0.9227
  105OSM    H1T10659   4.400   3.274  10.659 -0.3498  0.2294 -0.3529
  105OSM     NF10660   4.301   3.151  10.424 -0.1250  0.2931  0.0899
  105OSM    HNF10661   4.392   3.146  10.385  0.4254 -1.8716  1.4226
  105OSM    C2S10662   4.260   3.271  10.497  0.6283 -0.1436  0.7002
  105OSM    H2S10663   4.149   3.269  10.491  0.6278  0.5274  0.3457
  105OSM    C3S10664   4.315   3.404  10.432 -0.2708  0.4560  0.1997
  105OSM    H3S10665   4.426   3.404  10.436 -0.2582  1.4289  0.1882
  105OSM     O310666   4.278   3.517  10.504  0.2183 -0.6474 -0.8685
  105OSM    HO310667   4.245   3.486  10.589 -2.0699  0.7655 -1.1504
  105OSM    C4S10668   4.288   3.413  10.287 -0.3127  0.5933 -0.0833
  105OSM    H4S10669   4.378   3.385  10.231  1.0737  2.1061  1.2967
  105OSM    C5S10670   4.182   3.479  10.232 -0.8725  0.4356  0.9223
  105OSM    H5S10671   4.105   3.522  10.299 -1.4918  1.4834 -0.4147
  105OSM    C6S10672   4.171   3.512  10.079 -0.3164  0.2533 -1.3236
  105OSM    H6S10673   4.156   3.622  10.077 -1.4045  0.1960  0.8159
  105OSM    H6T10674   4.081   3.463  10.036  0.4845 -0.9168 -1.7225
  105OSM    C7S10675   4.296   3.482   9.995  0.1177 -0.1588 -0.5190
  105OSM    H7S10676   4.305   3.371   9.993 -2.0420 -0.4329  0.8460
  105OSM    H7T10677   4.389   3.534  10.026  0.0939 -0.9473  1.0033
  105OSM    C8S10678   4.259   3.515   9.855  0.9676 -0.2811  0.5585
  105OSM    H8S10679   4.219   3.618   9.848  0.0422 -0.6751 -0.3635
  105OSM    H8T10680   4.178   3.451   9.813 -1.7785  0.7404  3.8540
  105OSM    C9S10681   4.384   3.518   9.766  0.0331 -0.4411 -0.2529
  105OSM    H9S10682   4.427   3.415   9.768 -1.3301 -1.1391 -2.6389
  105OSM    H9T10683   4.455   3.594   9.804  0.2323 -1.0792  0.6759
  105OSM   C10S10684   4.346   3.553   9.622 -0.7698 -0.1262  0.1034
  105OSM   H10S10685   4.314   3.659   9.612 -3.2387 -0.6372  1.6619
  105OSM   H10T10686   4.258   3.488   9.602 -0.1651 -0.7112 -0.7045
  105OSM   C11S10687   4.459   3.520   9.524 -0.1272  1.2402 -0.4404
  105OSM   H11S10688   4.491   3.418   9.554 -1.2476  0.0715 -2.9350
  105OSM   H11T10689   4.546   3.589   9.533  1.7082 -0.9545 -0.4190
  105OSM   C12S10690   4.405   3.509   9.383 -0.0318  0.0578 -0.1173
  105OSM   H12S10691   4.394   3.617   9.362  0.3367 -0.0861 -1.0806
  105OSM   H12T10692   4.307   3.459   9.371  0.0959  0.3177 -2.7667
  105OSM   C13S10693   4.511   3.456   9.287 -0.0774  0.0191  0.1236
  105OSM   H13S10694   4.605   3.514   9.303  0.8196 -1.0971 -0.9855
  105OSM   H13T10695   4.480   3.478   9.183  0.6020 -0.6195 -0.2175
  105OSM   C14S10696   4.565   3.309   9.303 -0.3608 -0.6235  0.5015
  105OSM   H14S10697   4.561   3.284   9.411 -0.7930 -3.5691 -0.1022
  105OSM   H14T10698   4.671   3.310   9.269  0.3630 -0.7773  2.6488
  105OSM   C15S10699   4.496   3.213   9.211 -0.0691 -0.2558 -0.3550
  105OSM   H15S10700   4.497   3.260   9.110  0.6963  2.7106  0.9238
  105OSM   H15T10701   4.387   3.207   9.233  0.0055  0.4280  0.2003
  105OSM   C16S10702   4.553   3.068   9.219 -0.0123 -0.5771 -0.1828
  105OSM   H16S10703   4.543   3.018   9.318  3.3327  1.0706  1.1355
  105OSM   H16T10704   4.663   3.064   9.212  0.1892 -1.1448  2.2041
  105OSM   C17S10705   4.492   2.972   9.114 -0.1642  0.0561 -0.0154
  105OSM   H17S10706   4.389   2.946   9.146  0.5317 -0.6139  1.8568
  105OSM   H17T10707   4.562   2.886   9.126  0.5442  0.7476  1.0024
  105OSM   C18S10708   4.474   3.034   8.975 -0.2359  0.2821 -0.1563
  105OSM   H18S10709   4.387   3.103   8.975  1.2461  2.2911 -2.3506
  105OSM   H18T10710   4.463   2.951   8.902 -1.6361  1.1528 -0.9620
  105OSM   H18U10711   4.561   3.095   8.942  0.7563 -1.2784 -0.5665
  105OSM    C1F10712   4.234   3.030  10.428 -0.7351  0.3180 -0.2205
  105OSM     OF10713   4.125   3.026  10.477  0.0921  0.1737  0.0802
  105OSM    C2F10714   4.309   2.907  10.390  0.0556  0.3385 -0.1022
  105OSM    H2F10715   4.419   2.917  10.405 -0.3185  3.3508  1.2757
  105OSM    H2G10716   4.290   2.903  10.281 -1.7028 -0.8310  0.2063
  105OSM    C3F10717   4.274   2.775  10.466  0.1698 -0.5511  0.0586
  105OSM    H3F10718   4.164   2.755  10.465 -0.0689  0.5496  1.5112
  105OSM    H3G10719   4.323   2.780  10.565  3.6515 -1.5559 -1.4709
  105OSM    C4F10720   4.329   2.647  10.398  0.0379 -0.1770 -0.2080
  105OSM    H4F10721   4.436   2.664  10.374  0.3423 -0.9505  0.5866
  105OSM    H4G10722   4.273   2.661  10.302 -3.4154 -0.3270  1.6081
  105OSM    C5F10723   4.292   2.513  10.461 -0.0732  0.0731 -0.2321
  105OSM    H5F10724   4.186   2.517  10.496  0.6972  2.6021  2.2452
  105OSM    H5G10725   4.349   2.509  10.557  4.7062 -1.9530 -2.8430
  105OSM    C6F10726   4.335   2.396  10.374  0.1909 -0.0193 -0.8896
  105OSM    H6F10727   4.436   2.429  10.341  0.1878  0.2775 -0.6130
  105OSM    H6G10728   4.270   2.377  10.286  1.2163 -2.9425 -1.1411
  105OSM    C7F10729   4.328   2.252  10.429 -0.0855  0.1717  0.0357
  105OSM    H7F10730   4.393   2.246  10.519  0.1925  0.2452 -0.1581
  105OSM    H7G10731   4.372   2.181  10.355  2.9329 -0.5462  2.2880
  105OSM    C8F10732   4.193   2.210  10.468  0.2273 -0.2370 -0.4032
  105OSM    H8F10733   4.120   2.235  10.388 -0.1225 -0.8438 -0.2712
  105OSM    H8G10734   4.160   2.272  10.554 -0.6568  0.1065 -0.9706
  105OSM    C9F10735   4.177   2.060  10.495 -0.2005 -0.0626 -0.4236
  105OSM    H9F10736   4.226   2.020  10.585 -0.0611 -0.3922 -0.6437
  105OSM   C10F10737   4.119   1.961  10.422  0.2057  0.1748 -0.0526
  105OSM   H10F10738   4.106   1.861  10.467 -1.2307  1.3182  2.2775
  105OSM   C11F10739   4.042   1.977  10.289  0.5329  0.3230 -0.2106
  105OSM   H11F10740   4.056   2.081  10.252 -0.4740  0.5988  0.1390
  105OSM   H11G10741   3.933   1.967  10.308  0.4788 -0.9504 -1.0474
  105OSM   C12F10742   4.079   1.872  10.178  0.1994 -0.5860 -0.3997
  105OSM   H12F10743   4.025   1.899  10.085 -1.1057 -1.7164  0.0047
  105OSM   H12G10744   4.031   1.779  10.215  3.8749 -1.8732  1.5892
  105OSM   C13F10745   4.227   1.858  10.150  0.5176 -0.3556 -0.5860
  105OSM   H13F10746   4.294   1.849  10.239  1.4555 -1.9924 -1.4089
  105OSM   H13G10747   4.259   1.951  10.097 -2.0627  0.7852 -0.2727
  105OSM   C14F10748   4.269   1.735  10.071 -0.7999  0.6364  0.2492
  105OSM   H14F10749   4.228   1.734   9.968  1.4031 -1.1628 -0.7152
  105OSM   H14G10750   4.226   1.641  10.112  0.0358  0.6730  1.2300
  105OSM   C15F10751   4.423   1.725  10.061 -0.0970 -0.1322 -0.1828
  105OSM   H15F10752   4.452   1.631  10.113 -0.3943  0.1143  0.4414
  105OSM   H15G10753   4.461   1.806  10.127 -3.4175  0.2491  1.4631
  105OSM   C16F10754   4.480   1.714   9.920 -0.2923  0.6724 -0.2328
  105OSM   H16F10755   4.446   1.805   9.866 -2.7602  0.0866  0.2452
  105OSM   H16G10756   4.440   1.624   9.869 -2.9817  1.3583  0.5056
  105OSM   C17F10757   4.627   1.699   9.930 -0.0150  0.0091 -0.0598
  105OSM   H17F10758   4.650   1.603   9.981 -0.3908 -1.2074 -2.0733
  105OSM   H17G10759   4.671   1.785   9.985  0.7305  0.1348 -0.8254
  105OSM   C18F10760   4.696   1.694   9.795 -0.7233 -0.3723  0.4125
  105OSM   H18F10761   4.691   1.785   9.732 -0.2926 -0.0151  0.8874
  105OSM   H18G10762   4.653   1.612   9.734 -0.1763 -3.0241  3.3397
  105OSM   H18H10763   4.801   1.664   9.811 -1.3870 -3.4810 -0.3678
  106OSM      N10764   3.084   2.193  10.738  0.2253 -1.0176  0.2233
  106OSM    C1510765   3.073   2.129  10.872  0.0139 -0.0354  0.5659
  106OSM   H15A10766   3.099   2.195  10.954  0.1873 -1.4983  1.7321
  106OSM   H15B10767   3.148   2.051  10.876 -0.0099 -0.0550  0.6322
  106OSM   H15C10768   2.975   2.087  10.887 -0.6401  1.6867  1.3871
  106OSM    C1410769   3.226   2.233  10.716 -0.6348 -0.6458  0.3647
  106OSM   H14A10770   3.297   2.153  10.704  0.5564  0.0843  2.1038
  106OSM   H14B10771   3.268   2.292  10.796  2.4213 -2.6698  0.4101
  106OSM   H14C10772   3.236   2.293  10.626 -0.2230 -1.3432 -0.0598
  106OSM    C1310773   3.042   2.103  10.625 -0.3536 -0.2968  0.8957
  106OSM   H13A10774   3.083   2.003  10.631  2.3446  0.4868 -1.8164
  106OSM   H13B10775   3.059   2.158  10.534 -1.2781  0.9223  1.4270
  106OSM   H13C10776   2.936   2.080  10.625 -1.0018  2.3769  0.5095
  106OSM    C1210777   2.991   2.309  10.727 -0.4414 -0.5220 -0.4558
  106OSM   H12A10778   3.014   2.385  10.800 -0.4497 -0.9292 -0.0337
  106OSM   H12B10779   2.890   2.275  10.741 -0.0807 -2.5692 -2.2563
  106OSM    C1110780   2.989   2.384  10.593  0.4825  0.0528  0.5099
  106OSM   H11A10781   2.918   2.468  10.610 -0.4906 -0.9981  1.9351
  106OSM   H11B10782   2.921   2.326  10.527  0.3050 -0.9798  1.5641
  106OSM      P10783   3.180   2.556  10.568  0.4921 -0.2804  0.0030
  106OSM    O1310784   3.101   2.673  10.522  0.0324  0.3661  0.8334
  106OSM    O1410785   3.204   2.549  10.714  0.1716 -0.2922 -0.5914
  106OSM    O1110786   3.318   2.544  10.493  0.1980  0.1894  0.0593
  106OSM    O1210787   3.106   2.421  10.522  0.2894 -0.3191 -0.0577
  106OSM    C1S10788   3.335   2.581  10.359 -0.0091  0.4233 -0.1609
  106OSM    H1S10789   3.304   2.687  10.345  3.3676  1.6611  0.6950
  106OSM    H1T10790   3.279   2.518  10.287  0.1974  1.1594 -0.9825
  106OSM     NF10791   3.490   2.626  10.176  0.3291 -0.0172 -0.6916
  106OSM    HNF10792   3.506   2.554  10.109  0.8405  1.5164 -2.2782
  106OSM    C2S10793   3.484   2.585  10.316  0.3675  0.5372 -0.3530
  106OSM    H2S10794   3.537   2.660  10.379  0.3275 -0.4058  0.8391
  106OSM    C3S10795   3.557   2.446  10.347  0.0738 -0.8549 -0.1301
  106OSM    H3S10796   3.491   2.368  10.301 -2.8724  1.8860 -0.9002
  106OSM     O310797   3.555   2.399  10.482  0.0668 -0.6038  0.1275
  106OSM    HO310798   3.483   2.450  10.519  0.2662 -0.8866  0.9215
  106OSM    C4S10799   3.700   2.447  10.294  1.0739 -0.3231  0.0843
  106OSM    H4S10800   3.703   2.408  10.191 -2.1803  0.1681 -0.3093
  106OSM    C5S10801   3.817   2.489  10.347  0.6141  0.8266  0.2515
  106OSM    H5S10802   3.817   2.534  10.447  0.8011  3.5816 -0.9033
  106OSM    C6S10803   3.950   2.498  10.278  0.4473 -0.2963  0.2600
  106OSM    H6S10804   4.026   2.434  10.326  1.3629 -1.0298 -2.0491
  106OSM    H6T10805   3.984   2.604  10.281  2.3930 -0.8884  0.1290
  106OSM    C7S10806   3.952   2.456  10.126 -0.1693 -0.0314 -0.4268
  106OSM    H7S10807   4.050   2.489  10.086  0.9703 -1.7966  0.7421
  106OSM    H7T10808   3.863   2.497  10.074  0.1914 -0.2268 -1.2081
  106OSM    C8S10809   3.954   2.308  10.091  0.3407  0.1534  0.1763
  106OSM    H8S10810   3.848   2.277  10.101  0.4894  0.2117  2.3074
  106OSM    H8T10811   4.027   2.248  10.150  0.2240 -0.1858 -0.0168
  106OSM    C9S10812   3.973   2.283   9.938 -0.1614  0.0532 -0.1795
  106OSM    H9S10813   4.058   2.345   9.904  0.1281 -1.1142 -1.6998
  106OSM    H9T10814   3.884   2.321   9.884 -1.1762 -0.7636  0.8532
  106OSM   C10S10815   3.994   2.131   9.900  0.4336  0.5400 -0.3806
  106OSM   H10S10816   3.896   2.079   9.904  0.1380  0.9733 -1.4843
  106OSM   H10T10817   4.077   2.094   9.964 -0.3734  1.5547  1.3119
  106OSM   C11S10818   4.045   2.096   9.758 -0.3162  0.2510  0.3707
  106OSM   H11S10819   4.146   2.142   9.751  0.1110 -0.7021  0.2209
  106OSM   H11T10820   3.965   2.131   9.689 -2.0908 -1.1113  1.6476
  106OSM   C12S10821   4.050   1.945   9.722 -0.4470  0.4638 -0.1032
  106OSM   H12S10822   3.950   1.899   9.736 -0.3598  0.6613  1.3425
  106OSM   H12T10823   4.125   1.892   9.785 -0.0158  0.9325 -0.2131
  106OSM   C13S10824   4.067   1.919   9.573 -0.4665  0.8149 -0.2906
  106OSM   H13S10825   3.971   1.946   9.524  1.1241  1.9104 -2.9700
  106OSM   H13T10826   4.073   1.809   9.561  0.1878  0.7862  0.2574
  106OSM   C14S10827   4.170   1.996   9.489 -0.5761 -0.0863 -0.5529
  106OSM   H14S10828   4.259   1.931   9.473 -0.0277  0.3712  0.5050
  106OSM   H14T10829   4.204   2.092   9.533  1.3813  0.2309 -2.5699
  106OSM   C15S10830   4.109   2.059   9.356  0.4020 -0.0181 -0.0284
  106OSM   H15S10831   4.048   2.150   9.375 -1.4402 -1.7609  3.0509
  106OSM   H15T10832   4.032   1.990   9.316 -3.2653  4.2078 -1.0539
  106OSM   C16S10833   4.210   2.087   9.246  0.0634 -0.3198 -0.2946
  106OSM   H16S10834   4.285   2.009   9.220  0.9842  0.4678 -0.0864
  106OSM   H16T10835   4.261   2.180   9.281 -0.1813  1.6615 -4.6248
  106OSM   C17S10836   4.141   2.130   9.115 -0.1681  0.3410 -0.3240
  106OSM   H17S10837   4.224   2.165   9.050  1.8440 -0.9773  1.3794
  106OSM   H17T10838   4.075   2.220   9.118  0.9607  1.2439  3.9277
  106OSM   C18S10839   4.067   2.011   9.047 -0.1829  0.1381 -0.1456
  106OSM   H18S10840   3.970   1.994   9.097  0.5558 -0.1218  1.2568
  106OSM   H18T10841   4.126   1.918   9.062 -0.6147  0.2493  2.7380
  106OSM   H18U10842   4.038   2.023   8.941 -1.1692  1.3674  0.2398
  106OSM    C1F10843   3.466   2.754  10.147 -0.2535 -0.3997 -0.7913
  106OSM     OF10844   3.460   2.843  10.230 -0.4742  0.6655  0.1491
  106OSM    C2F10845   3.458   2.775   9.997 -0.2260  0.2090 -0.2874
  106OSM    H2F10846   3.411   2.683   9.955 -3.0290  1.9677 -1.3155
  106OSM    H2G10847   3.564   2.783   9.966  1.2558 -2.1565  3.4264
  106OSM    C3F10848   3.376   2.906   9.973 -0.2159 -0.7307 -0.3784
  106OSM    H3F10849   3.431   2.990  10.019 -1.0894  0.1874 -0.9689
  106OSM    H3G10850   3.278   2.890  10.024  0.2106  0.8524  1.0071
  106OSM    C4F10851   3.352   2.934   9.823 -0.1664 -0.3593 -0.1204
  106OSM    H4F10852   3.293   3.028   9.814  1.0501  0.3704 -0.7772
  106OSM    H4G10853   3.289   2.860   9.770 -1.3630  0.1969  0.4959
  106OSM    C5F10854   3.486   2.963   9.751  0.2725 -0.6555 -0.1902
  106OSM    H5F10855   3.538   2.865   9.765  0.4379 -0.6581 -0.7918
  106OSM    H5G10856   3.547   3.031   9.814 -0.3402  1.0718 -1.3894
  106OSM    C6F10857   3.459   3.020   9.607 -0.2693 -0.1183  0.3348
  106OSM    H6F10858   3.380   3.098   9.615 -0.8173 -0.3499 -2.1357
  106OSM    H6G10859   3.412   2.930   9.560  0.0792  0.2006 -0.6418
  106OSM    C7F10860   3.583   3.056   9.531  0.2637  0.5841 -0.1701
  106OSM    H7F10861   3.652   2.970   9.524  0.0641  0.4042  0.0828
  106OSM    H7G10862   3.629   3.149   9.572 -1.7757  1.7740 -0.4078
  106OSM    C8F10863   3.541   3.104   9.388 -0.2395  0.0656 -0.4705
  106OSM    H8F10864   3.610   3.170   9.331 -2.4152  1.9455 -1.1199
  106OSM    H8G10865   3.455   3.174   9.398 -0.2077  0.2630 -1.4944
  106OSM    C9F10866   3.499   2.991   9.300  0.1593  0.7880 -0.1087
  106OSM    H9F10867   3.479   2.901   9.359 -2.1109  1.4961  0.3197
  106OSM   C10F10868   3.506   2.987   9.165  0.1006 -0.2861  0.0716
  106OSM   H10F10869   3.464   2.902   9.110 -0.9453  1.3688 -1.8194
  106OSM   C11F10870   3.552   3.103   9.076  0.0671 -0.3603 -0.1192
  106OSM   H11F10871   3.653   3.142   9.101 -0.2176 -0.5585  1.4564
  106OSM   H11G10872   3.477   3.185   9.083 -0.8046 -1.1090 -0.4471
  106OSM   C12F10873   3.534   3.059   8.935 -0.1779 -0.2915  0.1508
  106OSM   H12F10874   3.423   3.051   8.931 -0.3185 -0.5573  2.7389
  106OSM   H12G10875   3.586   2.965   8.908  0.2714  0.4210 -1.6423
  106OSM   C13F10876   3.571   3.179   8.839 -0.8404  0.4310 -0.7739
  106OSM   H13F10877   3.673   3.218   8.863 -2.1925  2.7296  1.8765
  106OSM   H13G10878   3.498   3.260   8.863 -1.4321  0.5966 -2.9538
  106OSM   C14F10879   3.560   3.163   8.689  0.1582  0.3413 -0.4385
  106OSM   H14F10880   3.475   3.093   8.672 -0.0326  0.3549  0.4072
  106OSM   H14G10881   3.654   3.120   8.647 -0.1147 -1.6496  0.8100
  106OSM   C15F10882   3.526   3.302   8.623  0.1708 -0.0679  0.0112
  106OSM   H15F10883   3.615   3.365   8.646  1.3602 -2.3358  2.0528
  106OSM   H15G10884   3.429   3.338   8.663 -0.0156 -0.4840 -0.0615
  106OSM   C16F10885   3.498   3.308   8.471 -0.1274 -0.1953 -0.4733
  106OSM   H16F10886   3.429   3.226   8.443  1.8227 -1.5147 -1.7428
  106OSM   H16G10887   3.598   3.292   8.424 -0.5063  1.5775 -1.9645
  106OSM   C17F10888   3.439   3.446   8.432 -0.6476 -0.3578  0.1940
  106OSM   H17F10889   3.486   3.526   8.494 -0.8136 -0.7613  0.8602
  106OSM   H17G10890   3.331   3.440   8.458 -0.7097 -1.0604 -0.1984
  106OSM   C18F10891   3.442   3.474   8.283  0.2822 -0.4953  0.8708
  106OSM   H18F10892   3.398   3.571   8.252 -2.0601 -1.9198 -0.5714
  106OSM   H18G10893   3.391   3.407   8.210  2.6183 -0.1429 -1.2358
  106OSM   H18H10894   3.548   3.476   8.249  0.7561  0.1665  2.2763
  107OSM      N10895   4.741   4.571  11.016 -0.0857  0.4690  0.1161
  107OSM    C1510896   4.850   4.467  10.977 -0.0607  0.9874  0.3358
  107OSM   H15A10897   4.932   4.518  10.930 -0.5436  1.4373 -0.0250
  107OSM   H15B10898   4.811   4.391  10.911  2.6453 -0.8088  0.6529
  107OSM   H15C10899   4.891   4.405  11.056  0.7815  0.8840 -0.1747
  107OSM    C1410900   4.629   4.487  11.077 -0.1022 -0.2158  0.3286
  107OSM   H14A10901   4.540   4.542  11.101 -0.4513  0.3578 -2.0268
  107OSM   H14B10902   4.661   4.446  11.172 -1.6911 -0.1632  0.9201
  107OSM   H14C10903   4.594   4.409  11.011  0.5811 -0.2382 -0.0167
  107OSM    C1310904   4.800   4.667  11.109 -0.6860 -0.7031  0.0809
  107OSM   H13A10905   4.886   4.712  11.062 -1.1973  1.0412  0.7428
  107OSM   H13B10906   4.830   4.606  11.193  1.1545 -1.3746 -1.0133
  107OSM   H13C10907   4.741   4.754  11.132 -0.5786 -0.2204 -1.3787
  107OSM    C1210908   4.693   4.640  10.888  0.0256 -0.0069  1.0139
  107OSM   H12A10909   4.595   4.681  10.907 -1.3283 -1.6226 -1.9332
  107OSM   H12B10910   4.659   4.560  10.824  0.2168 -0.1099  1.0392
  107OSM    C1110911   4.793   4.732  10.807 -0.3970  0.4493 -0.5182
  107OSM   H11A10912   4.759   4.759  10.705  1.8715  1.9250 -0.9388
  107OSM   H11B10913   4.883   4.671  10.783 -1.2705 -0.9840 -0.3135
  107OSM      P10914   4.954   4.938  10.874 -0.2831 -0.2281  0.0742
  107OSM    O1310915   4.921   5.066  10.941 -0.6056 -0.5385 -0.2478
  107OSM    O1410916   5.062   4.855  10.926 -0.3670 -0.0658  0.0997
  107OSM    O1110917   4.980   4.967  10.720 -0.0367 -0.4470 -0.2044
  107OSM    O1210918   4.820   4.853  10.879  0.2344  0.3099  0.1485
  107OSM    C1S10919   4.886   5.049  10.647  0.0424  0.3027 -0.1838
  107OSM    H1S10920   4.893   5.156  10.676 -3.1130  0.4089  0.5443
  107OSM    H1T10921   4.784   5.008  10.663  1.3375 -2.7324  1.0416
  107OSM     NF10922   4.797   5.136  10.435  0.6597 -0.2933 -0.1242
  107OSM    HNF10923   4.722   5.092  10.385 -0.1501  1.1113 -0.2060
  107OSM    C2S10924   4.903   5.055  10.489  0.1353 -0.9684 -0.0134
  107OSM    H2S10925   4.994   5.112  10.463  1.0831 -2.5450 -0.2773
  107OSM    C3S10926   4.897   4.915  10.429 -0.0242 -0.4970 -0.0423
  107OSM    H3S10927   4.795   4.874  10.446 -0.3135  0.0492 -0.4279
  107OSM     O310928   5.000   4.831  10.475  0.1952  0.0222 -0.3298
  107OSM    HO310929   5.020   4.870  10.561  0.8112 -1.6657  0.3469
  107OSM    C4S10930   4.916   4.935  10.281 -0.6416  0.1365  0.6657
  107OSM    H4S10931   5.022   4.957  10.262 -0.8477  1.1500  0.6094
  107OSM    C5S10932   4.819   4.951  10.188  0.3186 -0.5824  0.3433
  107OSM    H5S10933   4.714   4.933  10.215  0.1643 -0.5884 -0.2401
  107OSM    C6S10934   4.859   4.995  10.042 -0.1909 -0.0464 -0.1837
  107OSM    H6S10935   4.956   4.947  10.018 -0.5993 -0.5370 -0.9118
  107OSM    H6T10936   4.875   5.105  10.045 -0.5140 -0.0065  0.4723
  107OSM    C7S10937   4.747   4.963   9.940  0.1619  0.3255  0.1465
  107OSM    H7S10938   4.653   5.013   9.971 -0.1947  1.4856 -2.5646
  107OSM    H7T10939   4.729   4.853   9.931  0.6899  0.4042 -2.6671
  107OSM    C8S10940   4.784   4.994   9.796 -0.0806 -0.7259 -0.2694
  107OSM    H8S10941   4.885   4.960   9.766 -0.2377 -1.4896  0.0581
  107OSM    H8T10942   4.784   5.105   9.788 -1.6289 -0.2666  3.6393
  107OSM    C9S10943   4.676   4.946   9.693 -0.2887  0.4697  0.7715
  107OSM    H9S10944   4.573   4.974   9.724 -0.8258 -0.2151 -0.3232
  107OSM    H9T10945   4.688   4.836   9.689  0.5033  0.3422  4.2000
  107OSM   C10S10946   4.688   5.009   9.554 -0.4160 -0.3316 -0.2346
  107OSM   H10S10947   4.782   4.985   9.499 -0.0560 -0.7550  0.5602
  107OSM   H10T10948   4.679   5.118   9.571 -1.5866 -0.6476  1.3498
  107OSM   C11S10949   4.571   4.978   9.455 -1.1570  0.0897  0.1529
  107OSM   H11S10950   4.472   4.987   9.503 -0.8536 -3.6788  1.8232
  107OSM   H11T10951   4.575   4.869   9.436 -1.0546 -0.2759  2.0527
  107OSM   C12S10952   4.591   5.046   9.314  0.0889  0.4157 -0.6694
  107OSM   H12S10953   4.698   5.036   9.284 -0.0358 -1.5548 -0.5367
  107OSM   H12T10954   4.562   5.153   9.321  1.4503  0.8473 -1.1916
  107OSM   C13S10955   4.485   4.996   9.204  0.4282 -0.6795 -0.5665
  107OSM   H13S10956   4.380   5.021   9.233  1.1344  2.0247 -0.0662
  107OSM   H13T10957   4.480   4.885   9.204 -1.0347 -0.6769  1.7552
  107OSM   C14S10958   4.538   5.044   9.065 -0.0817 -0.1235 -0.3460
  107OSM   H14S10959   4.647   5.023   9.059  0.3484  1.7708  0.1110
  107OSM   H14T10960   4.531   5.155   9.068 -1.2106 -0.2175  1.5196
  107OSM   C15S10961   4.465   5.001   8.940  0.1042 -0.2713 -0.5665
  107OSM   H15S10962   4.468   4.891   8.955  1.8631 -0.4461 -1.8864
  107OSM   H15T10963   4.534   5.022   8.855 -0.6386 -0.7889 -1.3137
  107OSM   C16S10964   4.323   5.065   8.929  0.0506 -0.2611 -0.1058
  107OSM   H16S10965   4.319   5.176   8.932  0.7027 -0.1783 -1.5727
  107OSM   H16T10966   4.273   5.029   9.022 -0.8476 -0.8820 -0.8084
  107OSM   C17S10967   4.252   5.015   8.812  0.3140 -0.2180 -0.4905
  107OSM   H17S10968   4.239   4.905   8.811  1.2483 -0.3676  1.1673
  107OSM   H17T10969   4.304   5.035   8.716 -1.0263 -1.4896 -1.5237
  107OSM   C18S10970   4.112   5.080   8.805 -0.1833 -0.2417  0.2560
  107OSM   H18S10971   4.065   5.037   8.713 -3.1117 -0.2805  1.6420
  107OSM   H18T10972   4.120   5.191   8.808 -1.1990 -0.1157 -0.7781
  107OSM   H18U10973   4.044   5.062   8.891 -2.0005 -0.9771 -1.2444
  107OSM    C1F10974   4.780   5.272  10.432 -0.5412  0.7862  0.2790
  107OSM     OF10975   4.855   5.334  10.503 -0.1517  0.3133 -0.1910
  107OSM    C2F10976   4.678   5.335  10.343  0.2387 -0.1638  0.1223
  107OSM    H2F10977   4.699   5.444  10.341  0.3415 -0.1631  0.9406
  107OSM    H2G10978   4.576   5.304  10.374 -0.2924 -1.3071 -2.4751
  107OSM    C3F10979   4.688   5.282  10.196 -0.4160 -0.4267 -0.5712
  107OSM    H3F10980   4.640   5.184  10.176 -0.2732 -0.3873 -1.1331
  107OSM    H3G10981   4.795   5.273  10.170 -0.0162  0.9036  0.5230
  107OSM    C4F10982   4.626   5.374  10.089  0.3216 -0.7322 -0.2605
  107OSM    H4F10983   4.667   5.477  10.085 -0.4270 -0.4510 -0.9760
  107OSM    H4G10984   4.523   5.393  10.126 -0.8125 -1.3927 -2.8203
  107OSM    C5F10985   4.638   5.304   9.950 -0.3719 -0.3974  0.0838
  107OSM    H5F10986   4.592   5.203   9.962 -0.7017 -0.2955 -0.3198
  107OSM    H5G10987   4.743   5.292   9.915 -0.0440 -2.1254  1.4660
  107OSM    C6F10988   4.553   5.376   9.849 -0.6808  0.2126  0.2618
  107OSM    H6F10989   4.456   5.411   9.891 -0.4654  4.1543 -2.0025
  107OSM    H6G10990   4.527   5.305   9.768  4.1701 -0.2780 -1.1417
  107OSM    C7F10991   4.612   5.503   9.787 -0.1435 -0.0902 -0.0416
  107OSM    H7F10992   4.717   5.487   9.757  0.2806  0.0753  1.2789
  107OSM    H7G10993   4.622   5.584   9.863 -1.2981 -0.1191  0.1654
  107OSM    C8F10994   4.513   5.555   9.681 -0.2554  0.3055  0.5624
  107OSM    H8F10995   4.417   5.581   9.731 -1.2018  1.7661 -1.8189
  107OSM    H8G10996   4.488   5.464   9.622 -0.7726  0.4026  0.6287
  107OSM    C9F10997   4.547   5.672   9.588 -0.0471  0.2014 -0.5966
  107OSM    H9F10998   4.608   5.749   9.637 -2.0361  1.0945  0.6249
  107OSM   C10F10999   4.483   5.696   9.468 -0.3344 -0.5235  0.3091
  107OSM   H10F11000   4.520   5.777   9.402  0.4936 -1.9793 -1.0900
  107OSM   C11F11001   4.386   5.606   9.401  0.4688  0.0260 -0.7377
  107OSM   H11F11002   4.313   5.671   9.348  0.0477  0.9305  0.8831
  107OSM   H11G11003   4.335   5.547   9.481 -0.8528  2.6339  0.4930
  107OSM   C12F11004   4.460   5.518   9.307 -0.2650  0.2924 -0.0521
  107OSM   H12F11005   4.536   5.462   9.365  0.3627  1.8711  0.7055
  107OSM   H12G11006   4.513   5.585   9.236 -1.3439  1.6060  0.3446
  107OSM   C13F11007   4.371   5.412   9.227  0.0564  0.2278  0.6671
  107OSM   H13F11008   4.339   5.355   9.317 -3.1451 -1.0271 -1.1151
  107OSM   H13G11009   4.434   5.343   9.167  0.2624  0.9866 -0.0107
  107OSM   C14F11010   4.252   5.456   9.155  0.9929 -0.7680  0.5100
  107OSM   H14F11011   4.208   5.540   9.212 -0.2022 -1.9282  1.3628
  107OSM   H14G11012   4.180   5.372   9.169  2.9842 -2.4770  1.0836
  107OSM   C15F11013   4.255   5.478   9.001 -0.5485 -0.1906  0.5427
  107OSM   H15F11014   4.153   5.506   8.966 -0.5695 -2.0231 -1.0080
  107OSM   H15G11015   4.281   5.378   8.960 -1.4755  0.5179 -1.9474
  107OSM   C16F11016   4.357   5.588   8.959  0.6718 -0.0852 -0.2710
  107OSM   H16F11017   4.367   5.596   8.849  1.6469 -1.2831 -0.2991
  107OSM   H16G11018   4.454   5.541   8.986 -0.7543 -1.9808  1.9651
  107OSM   C17F11019   4.341   5.721   9.028 -0.2284 -0.5729 -0.5110
  107OSM   H17F11020   4.437   5.775   9.009  0.1378 -1.4927 -1.3701
  107OSM   H17G11021   4.331   5.714   9.139  2.1657  2.0420 -0.0032
  107OSM   C18F11022   4.214   5.791   8.986 -0.6366 -0.7468 -0.1259
  107OSM   H18F11023   4.218   5.898   9.014  1.0102 -1.4967  3.0233
  107OSM   H18G11024   4.129   5.758   9.050 -0.6988  2.0645  1.4242
  107OSM   H18H11025   4.187   5.776   8.880 -1.4669 -0.7263  0.0760
  108OSM      N11026   1.878   0.543  10.994 -0.3560 -0.1383  0.0374
  108OSM    C1511027   1.964   0.472  11.088  0.4140 -0.3517 -0.1270
  108OSM   H15A11028   1.962   0.365  11.069  0.7367  0.0730 -2.9000
  108OSM   H15B11029   1.935   0.493  11.190  0.5694  0.4857 -0.2494
  108OSM   H15C11030   2.068   0.497  11.076  0.1915 -0.0412 -1.5819
  108OSM    C1411031   1.738   0.475  11.009 -0.4851  0.0148 -1.0056
  108OSM   H14A11032   1.750   0.369  11.024 -1.7190  0.0548  0.5525
  108OSM   H14B11033   1.679   0.498  10.921  0.3777 -0.7152 -1.7974
  108OSM   H14C11034   1.688   0.492  11.103  0.6033 -2.8976  0.2363
  108OSM    C1311035   1.868   0.693  11.017  0.0923  0.4598 -0.2790
  108OSM   H13A11036   1.775   0.725  10.972  0.1261 -1.4606 -1.8358
  108OSM   H13B11037   1.952   0.742  10.970 -0.2685  0.6423 -0.7437
  108OSM   H13C11038   1.866   0.717  11.123  0.4774  2.2542 -0.6438
  108OSM    C1211039   1.931   0.526  10.854  0.0802  0.3219  0.0083
  108OSM   H12A11040   1.922   0.421  10.829 -0.1529  0.7194 -1.6787
  108OSM   H12B11041   2.037   0.539  10.867 -0.0209 -0.3513  1.8270
  108OSM    C1111042   1.867   0.608  10.739  0.8679  0.2115 -0.1218
  108OSM   H11A11043   1.890   0.563  10.640 -0.1281 -1.4718  0.3743
  108OSM   H11B11044   1.923   0.704  10.732 -0.4324  0.9176 -1.5385
  108OSM      P11045   1.656   0.766  10.737 -0.0096  0.4155 -0.3841
  108OSM    O1311046   1.510   0.740  10.748 -0.0683  0.0903  0.0247
  108OSM    O1411047   1.713   0.871  10.824 -0.4069  0.1761  0.7539
  108OSM    O1111048   1.693   0.808  10.588  0.1548 -0.3442  0.0762
  108OSM    O1211049   1.732   0.624  10.748 -0.3289 -0.0757 -0.2839
  108OSM    C1S11050   1.641   0.737  10.474  0.0127  0.3599 -0.2529
  108OSM    H1S11051   1.530   0.728  10.484  0.1307 -4.1179 -1.0126
  108OSM    H1T11052   1.684   0.638  10.452  1.9061  1.3577 -1.2449
  108OSM     NF11053   1.621   0.722  10.232 -0.2195 -0.6588 -0.4220
  108OSM    HNF11054   1.689   0.677  10.174 -0.2861 -1.1530 -0.1233
  108OSM    C2S11055   1.671   0.807  10.340  0.3550  0.0853 -0.5875
  108OSM    H2S11056   1.614   0.901  10.350 -0.7277 -0.7247  1.7914
  108OSM    C3S11057   1.816   0.848  10.328  0.0743 -0.0375  0.0936
  108OSM    H3S11058   1.872   0.752  10.326 -4.3501 -2.9010 -1.3218
  108OSM     O311059   1.872   0.918  10.443 -0.1193  0.4437  0.1609
  108OSM    HO311060   1.806   0.895  10.509 -1.4221  0.2365 -1.1689
  108OSM    C4S11061   1.838   0.923  10.200  0.0427  0.4678  0.4885
  108OSM    H4S11062   1.762   1.002  10.191  1.0408  1.3297 -0.5300
  108OSM    C5S11063   1.941   0.909  10.113  0.1131  0.0782 -0.5318
  108OSM    H5S11064   2.019   0.834  10.128  2.8006  2.3578 -2.1841
  108OSM    C6S11065   1.945   0.988   9.989 -0.6236 -0.1123 -0.2102
  108OSM    H6S11066   2.041   1.041   9.976 -0.3549 -0.2884  0.9928
  108OSM    H6T11067   1.863   1.061  10.002 -0.3387 -0.0997  1.9069
  108OSM    C7S11068   1.917   0.919   9.851  0.7526  0.0320 -0.6733
  108OSM    H7S11069   1.820   0.864   9.856 -0.1975  1.7411  1.1915
  108OSM    H7T11070   1.991   0.840   9.827  0.6579 -0.8575  1.6964
  108OSM    C8S11071   1.906   1.024   9.739  0.5995 -0.3345  0.1572
  108OSM    H8S11072   1.996   1.090   9.750 -0.4625  0.9938  1.2920
  108OSM    H8T11073   1.818   1.091   9.750  2.2378  1.7805  1.3774
  108OSM    C9S11074   1.919   0.972   9.595 -0.9004 -0.1587  0.2984
  108OSM    H9S11075   1.845   0.891   9.575 -1.1190  0.4198 -1.3487
  108OSM    H9T11076   2.025   0.937   9.594 -0.9518 -0.3424  1.0542
  108OSM   C10S11077   1.914   1.083   9.483  0.7642  0.3605  0.2261
  108OSM   H10S11078   1.960   1.034   9.395 -0.3259 -0.1326 -0.0885
  108OSM   H10T11079   1.970   1.176   9.504  1.6786 -0.3084  0.8285
  108OSM   C11S11080   1.767   1.112   9.446  0.3651  0.5459  0.3483
  108OSM   H11S11081   1.709   1.170   9.520 -0.9810 -0.2813 -0.0211
  108OSM   H11T11082   1.715   1.014   9.444 -0.4427  0.9769 -0.6801
  108OSM   C12S11083   1.753   1.168   9.299  0.1649  0.5944 -0.7497
  108OSM   H12S11084   1.825   1.113   9.234  1.0112  1.2494 -0.3834
  108OSM   H12T11085   1.783   1.275   9.301  1.1020  0.3394 -0.6143
  108OSM   C13S11086   1.613   1.164   9.258  0.5644 -1.0626  0.0891
  108OSM   H13S11087   1.544   1.207   9.334 -2.1505 -3.5698 -0.7262
  108OSM   H13T11088   1.577   1.058   9.256 -2.2616 -0.2153  0.7952
  108OSM   C14S11089   1.571   1.214   9.113  0.3405  0.3448 -0.5467
  108OSM   H14S11090   1.572   1.324   9.097 -0.8858  0.4935  0.1977
  108OSM   H14T11091   1.466   1.181   9.100  0.3024  0.5505 -0.7525
  108OSM   C15S11092   1.640   1.137   9.000  0.7974 -0.6780  0.0523
  108OSM   H15S11093   1.620   1.030   9.018  1.3693 -0.4203  2.5574
  108OSM   H15T11094   1.749   1.155   9.017  0.6126 -0.1991  0.7617
  108OSM   C16S11095   1.593   1.183   8.854 -0.3706  0.4216 -0.4271
  108OSM   H16S11096   1.613   1.292   8.850  0.1400  0.4503  1.5895
  108OSM   H16T11097   1.483   1.171   8.847 -0.5274  1.1914  0.5027
  108OSM   C17S11098   1.665   1.103   8.751  0.4909  0.0164  0.2908
  108OSM   H17S11099   1.615   1.121   8.653 -0.3658  0.3049  0.7722
  108OSM   H17T11100   1.648   0.996   8.774 -0.7301  0.3852  1.1410
  108OSM   C18S11101   1.815   1.118   8.729  0.6236 -0.1819  0.0012
  108OSM   H18S11102   1.829   1.225   8.703 -1.2125 -0.3439 -1.9522
  108OSM   H18T11103   1.851   1.047   8.651 -0.2929 -0.7710  0.1006
  108OSM   H18U11104   1.872   1.093   8.821 -0.1387 -0.5716  0.3814
  108OSM    C1F11105   1.491   0.692  10.210 -0.3650 -0.2250  0.9956
  108OSM     OF11106   1.394   0.730  10.278  0.2881 -0.2235 -1.0186
  108OSM    C2F11107   1.485   0.603  10.095  0.0929  1.1864 -0.5304
  108OSM    H2F11108   1.533   0.510  10.130 -0.6870  1.4954  1.4962
  108OSM    H2G11109   1.536   0.635  10.001  0.1105 -0.1864 -1.0079
  108OSM    C3F11110   1.344   0.588  10.049  0.0416  0.3739 -0.3475
  108OSM    H3F11111   1.297   0.687  10.029  0.2849  0.5720  0.0386
  108OSM    H3G11112   1.286   0.535  10.127  1.3655  1.0497  1.1513
  108OSM    C4F11113   1.339   0.503   9.929  0.2288 -0.2695 -0.1778
  108OSM    H4F11114   1.384   0.562   9.846 -1.8634  0.5583 -0.8099
  108OSM    H4G11115   1.232   0.495   9.900 -0.7027  1.6824  2.3320
  108OSM    C5F11116   1.395   0.359   9.948 -0.0299 -0.4068 -0.5427
  108OSM    H5F11117   1.337   0.318  10.034  3.8316 -0.6830  2.1865
  108OSM    H5G11118   1.502   0.347   9.976  0.7695 -0.3381 -3.3043
  108OSM    C6F11119   1.380   0.266   9.828 -0.0466 -0.8702  0.5817
  108OSM    H6F11120   1.272   0.265   9.802  0.0772 -1.0161  0.0500
  108OSM    H6G11121   1.399   0.159   9.849  0.9119 -1.1062 -1.2388
  108OSM    C7F11122   1.450   0.306   9.694 -0.0023 -0.6053 -0.9133
  108OSM    H7F11123   1.558   0.319   9.718 -0.4499  1.9553  0.0558
  108OSM    H7G11124   1.410   0.407   9.672  2.9197  1.0090  0.5864
  108OSM    C8F11125   1.427   0.215   9.575  0.5728 -0.1795  0.4064
  108OSM    H8F11126   1.317   0.214   9.560  0.4572  0.1176  1.1882
  108OSM    H8G11127   1.467   0.115   9.601  0.1157 -0.6801 -0.7357
  108OSM    C9F11128   1.494   0.280   9.459  0.8254  0.1626 -0.4297
  108OSM    H9F11129   1.599   0.311   9.472  0.3518  1.3250  0.9088
  108OSM   C10F11130   1.444   0.302   9.338 -0.3398 -0.0946 -0.5849
  108OSM   H10F11131   1.516   0.357   9.276  1.3760  0.1933  1.5422
  108OSM   C11F11132   1.307   0.269   9.281 -0.3960  0.2030 -0.5760
  108OSM   H11F11133   1.258   0.353   9.228 -1.7517 -0.1480  0.0634
  108OSM   H11G11134   1.236   0.250   9.365  0.5628 -0.2268  0.1511
  108OSM   C12F11135   1.324   0.151   9.187 -0.6159 -0.0100  0.5501
  108OSM   H12F11136   1.220   0.116   9.168 -0.8983  1.5386 -1.1064
  108OSM   H12G11137   1.377   0.072   9.244  0.0257  0.4771  0.6485
  108OSM   C13F11138   1.380   0.199   9.046  0.6009  0.0218 -0.0743
  108OSM   H13F11139   1.486   0.226   9.062  0.7812  2.6474 -4.0303
  108OSM   H13G11140   1.329   0.290   9.006 -1.7027 -1.1037  0.1643
  108OSM   C14F11141   1.389   0.083   8.947 -0.1021 -0.5055 -0.4028
  108OSM   H14F11142   1.435  -0.003   9.000 -0.3294 -1.4638 -1.7070
  108OSM   H14G11143   1.455   0.125   8.869 -1.7219  2.5334 -0.2921
  108OSM   C15F11144   1.242   0.064   8.897  0.0731 -0.3689  0.0597
  108OSM   H15F11145   1.202   0.165   8.871 -1.5779 -1.1303 -0.4807
  108OSM   H15G11146   1.190   0.018   8.983  0.2856  1.7710  1.4279
  108OSM   C16F11147   1.230  -0.032   8.781  0.0049  0.7400 -0.2083
  108OSM   H16F11148   1.211  -0.134   8.821 -0.1208  1.1475  0.8069
  108OSM   H16G11149   1.328  -0.036   8.729 -0.2854 -1.3306 -0.6505
  108OSM   C17F11150   1.119   0.006   8.684 -0.9351  0.4713  0.2371
  108OSM   H17F11151   1.115  -0.075   8.608 -0.6498  1.0795 -0.4368
  108OSM   H17G11152   1.148   0.102   8.635 -1.1461 -0.0522 -0.9453
  108OSM   C18F11153   0.986   0.023   8.751  0.1314  0.0568 -0.5916
  108OSM   H18F11154   0.964  -0.071   8.806 -2.3959  1.2840  0.6547
  108OSM   H18G11155   0.910   0.043   8.672  0.8364 -0.2683 -1.3620
  108OSM   H18H11156   0.995   0.107   8.823  0.3654 -0.5868  0.1392
  109OSM      N11157   6.719   0.094  10.992  0.2881 -0.5641  0.2085
  109OSM    C1511158   6.822   0.068  10.887  0.1505  0.2373 -0.7506
  109OSM   H15A11159   6.901  -0.000  10.917 -0.6977 -1.3998 -2.0812
  109OSM   H15B11160   6.867   0.165  10.873 -3.3369  1.8922 -1.4839
  109OSM   H15C11161   6.787   0.035  10.790  1.0833 -1.9479 -0.4155
  109OSM    C1411162   6.643  -0.025  11.038  0.2450  0.2164 -0.2081
  109OSM   H14A11163   6.716  -0.091  11.084 -0.0993  0.0029  0.0319
  109OSM   H14B11164   6.594  -0.071  10.954  0.0434  0.8960 -0.4682
  109OSM   H14C11165   6.569   0.006  11.110  0.4753 -1.6985  0.9177
  109OSM    C1311166   6.782   0.164  11.114 -0.5081  1.4414 -0.2676
  109OSM   H13A11167   6.815   0.261  11.079 -0.9527  2.1281  1.1542
  109OSM   H13B11168   6.870   0.112  11.149  0.5002  3.4199  0.2825
  109OSM   H13C11169   6.717   0.178  11.199 -2.1860 -1.6850 -0.9016
  109OSM    C1211170   6.605   0.186  10.935  0.0390  0.8068 -0.3271
  109OSM   H12A11171   6.550   0.217  11.023  1.7637  1.1647  0.6845
  109OSM   H12B11172   6.544   0.127  10.869  1.7844  0.2487 -1.5186
  109OSM    C1111173   6.651   0.320  10.866  0.2396  0.0304 -0.1806
  109OSM   H11A11174   6.554   0.358  10.828  0.7947  0.7682 -0.9037
  109OSM   H11B11175   6.725   0.298  10.786 -0.3494  0.1317 -0.7667
  109OSM      P11176   6.776   0.548  10.907 -0.7857  0.2900 -0.4325
  109OSM    O1311177   6.718   0.659  10.986  0.0122  0.2685  0.7323
  109OSM    O1411178   6.921   0.547  10.898  0.0445  0.1670  0.6203
  109OSM    O1111179   6.716   0.567  10.767 -0.1920  0.4116  0.5324
  109OSM    O1211180   6.720   0.408  10.961 -0.3969 -0.4436  0.7297
  109OSM    C1S11181   6.725   0.694  10.700 -0.3051  0.6004  0.9263
  109OSM    H1S11182   6.832   0.718  10.683 -0.4487  2.6034  2.4986
  109OSM    H1T11183   6.671   0.773  10.757 -3.6671  0.6329 -1.8926
  109OSM     NF11184   6.675   0.829  10.500 -0.7796  0.0646  0.0818
  109OSM    HNF11185   6.594   0.884  10.519 -0.1101  0.4914  1.8444
  109OSM    C2S11186   6.662   0.695  10.558  0.4112  0.3801 -0.8478
  109OSM    H2S11187   6.702   0.613  10.495 -0.3028 -0.1801 -0.5778
  109OSM    C3S11188   6.508   0.653  10.575 -0.2617  0.2192  0.0882
  109OSM    H3S11189   6.467   0.735  10.637  0.4464 -0.0792  0.9757
  109OSM     O311190   6.485   0.538  10.647 -0.7351 -0.1470 -0.2845
  109OSM    HO311191   6.574   0.529  10.682  0.0069  3.0459 -1.0493
  109OSM    C4S11192   6.444   0.645  10.439 -0.0121 -0.1477  0.2365
  109OSM    H4S11193   6.441   0.742  10.387  2.1659 -0.8893 -1.4144
  109OSM    C5S11194   6.394   0.526  10.383  0.0957 -0.0838  0.7439
  109OSM    H5S11195   6.396   0.433  10.441  1.7677  1.1925  2.9390
  109OSM    C6S11196   6.336   0.498  10.242 -0.0996 -0.1120 -0.0693
  109OSM    H6S11197   6.228   0.472  10.252  0.3426 -1.2220  2.5397
  109OSM    H6T11198   6.378   0.404  10.201 -1.2256 -1.3951  1.6240
  109OSM    C7S11199   6.353   0.622  10.149  0.0138  0.2697 -0.1352
  109OSM    H7S11200   6.459   0.641  10.121  0.3026  1.2118  1.4278
  109OSM    H7T11201   6.320   0.720  10.190  0.4950  0.3493  0.0685
  109OSM    C8S11202   6.270   0.608  10.021  0.0413  0.4226  0.2268
  109OSM    H8S11203   6.162   0.623  10.038 -0.2141 -1.0688  0.0806
  109OSM    H8T11204   6.291   0.505   9.984 -0.3499 -0.6055  2.6996
  109OSM    C9S11205   6.319   0.714   9.911 -0.4135 -0.3842 -0.0160
  109OSM    H9S11206   6.430   0.720   9.911 -0.4397  0.4398  1.6234
  109OSM    H9T11207   6.281   0.815   9.936 -2.4918 -1.3203  0.7433
  109OSM   C10S11208   6.289   0.678   9.770 -0.8569 -0.1942  0.8588
  109OSM   H10S11209   6.179   0.685   9.753 -0.6332 -0.6892 -0.9901
  109OSM   H10T11210   6.310   0.571   9.751  1.5877  0.4281 -0.3072
  109OSM   C11S11211   6.371   0.759   9.677  0.7101 -0.0452  0.5906
  109OSM   H11S11212   6.472   0.767   9.722  0.7641  2.4007  0.1845
  109OSM   H11T11213   6.340   0.866   9.673  1.1304  0.0787  0.6008
  109OSM   C12S11214   6.391   0.686   9.541  0.4777 -0.5111  0.0718
  109OSM   H12S11215   6.304   0.635   9.494  0.4232 -1.1473  0.8495
  109OSM   H12T11216   6.461   0.602   9.561  1.4048  0.3252  0.4092
  109OSM   C13S11217   6.465   0.776   9.438 -0.2667  0.8490 -0.0994
  109OSM   H13S11218   6.530   0.704   9.382  0.0778  0.5675  0.6541
  109OSM   H13T11219   6.537   0.838   9.495 -0.4338 -0.0431  1.1308
  109OSM   C14S11220   6.374   0.847   9.339 -0.0197 -0.2912  0.6805
  109OSM   H14S11221   6.274   0.876   9.378 -1.1142 -1.4309 -1.1319
  109OSM   H14T11222   6.354   0.778   9.255  1.1277  2.0166 -1.6279
  109OSM   C15S11223   6.444   0.969   9.257 -0.2252  0.3182 -0.1838
  109OSM   H15S11224   6.547   0.940   9.227  0.0605 -1.5924  2.3284
  109OSM   H15T11225   6.457   1.055   9.325  0.7717 -1.6052  2.2040
  109OSM   C16S11226   6.363   1.006   9.130 -0.2096  0.5016  0.0150
  109OSM   H16S11227   6.267   1.046   9.170  1.1025  1.2086  2.7226
  109OSM   H16T11228   6.352   0.916   9.066 -1.8214  0.3141  0.5041
  109OSM   C17S11229   6.426   1.117   9.040 -0.6732  1.6174  0.1740
  109OSM   H17S11230   6.409   1.210   9.098 -1.0229  1.6994 -0.0598
  109OSM   H17T11231   6.373   1.128   8.943  1.4575  1.9089 -1.0076
  109OSM   C18S11232   6.580   1.094   9.014  0.6207  0.8645  0.0776
  109OSM   H18S11233   6.613   0.995   8.976 -0.2556  1.4113 -2.2482
  109OSM   H18T11234   6.633   1.127   9.106 -0.0077  0.7119  0.5041
  109OSM   H18U11235   6.612   1.165   8.936 -0.2158  0.0705 -1.0171
  109OSM    C1F11236   6.792   0.867  10.453  0.7900 -0.2498 -0.4551
  109OSM     OF11237   6.886   0.790  10.448 -0.5884  0.3933 -0.0318
  109OSM    C2F11238   6.794   1.006  10.401  0.3738 -0.0553 -0.7794
  109OSM    H2F11239   6.890   1.057  10.419  0.4034  0.7590 -2.9336
  109OSM    H2G11240   6.712   1.062  10.451 -1.2928 -0.9670 -2.3518
  109OSM    C3F11241   6.788   1.007  10.245 -1.3590 -0.5154 -0.0362
  109OSM    H3F11242   6.881   0.957  10.212 -0.5719 -1.1380  2.8739
  109OSM    H3G11243   6.787   1.112  10.209 -0.1728 -0.6159 -0.3995
  109OSM    C4F11244   6.672   0.939  10.171 -0.0985  0.0383 -0.2727
  109OSM    H4F11245   6.571   0.964  10.210 -1.0968 -2.0312 -1.3563
  109OSM    H4G11246   6.691   0.831  10.189 -0.7667  0.3618  2.8436
  109OSM    C5F11247   6.674   0.941  10.019  0.6408  0.5708  0.4699
  109OSM    H5F11248   6.612   0.851   9.999  1.6253  0.1027 -0.5756
  109OSM    H5G11249   6.779   0.921   9.990  1.2324 -0.6745  3.1879
  109OSM    C6F11250   6.618   1.071   9.963 -0.2395  0.0534  1.1436
  109OSM    H6F11251   6.682   1.158   9.988 -0.4149  0.3625  0.5325
  109OSM    H6G11252   6.525   1.096  10.018 -1.4557  2.8461 -1.8609
  109OSM    C7F11253   6.625   1.060   9.802  0.0686  0.4876 -0.2503
  109OSM    H7F11254   6.571   0.973   9.758  0.1301  0.7446 -0.8349
  109OSM    H7G11255   6.732   1.043   9.780  0.1071 -0.0224  0.2799
  109OSM    C8F11256   6.572   1.185   9.740 -0.4248 -0.4306  0.1791
  109OSM    H8F11257   6.652   1.257   9.766  1.2083 -1.5310 -1.5065
  109OSM    H8G11258   6.485   1.215   9.802  0.4572 -0.3243  1.4148
  109OSM    C9F11259   6.541   1.186   9.596  0.6418 -0.4352  0.0527
  109OSM    H9F11260   6.433   1.204   9.587  0.3874 -2.1174 -0.6640
  109OSM   C10F11261   6.638   1.190   9.499 -0.3091 -0.0914  0.4010
  109OSM   H10F11262   6.600   1.209   9.397 -4.6789  0.8253  2.0010
  109OSM   C11F11263   6.792   1.185   9.510  0.0738 -0.3423  0.4382
  109OSM   H11F11264   6.829   1.098   9.452  0.5336  0.1039  0.0504
  109OSM   H11G11265   6.820   1.156   9.614 -1.9018 -0.9652  0.8324
  109OSM   C12F11266   6.870   1.314   9.470 -0.6642 -0.0412 -0.3472
  109OSM   H12F11267   6.977   1.285   9.474 -0.2984  0.8969 -2.2121
  109OSM   H12G11268   6.847   1.392   9.546  2.0949 -0.0353  0.5821
  109OSM   C13F11269   6.850   1.365   9.331 -0.2253  0.0511 -0.6357
  109OSM   H13F11270   6.743   1.389   9.312 -0.8430 -2.4832 -0.8168
  109OSM   H13G11271   6.888   1.294   9.255  2.1025  0.2888  0.2376
  109OSM   C14F11272   6.926   1.494   9.299 -0.1565  0.9797  0.1591
  109OSM   H14F11273   7.036   1.480   9.308 -0.4248 -1.5826  0.2497
  109OSM   H14G11274   6.892   1.567   9.375 -0.9653 -0.5419  1.2946
  109OSM   C15F11275   6.910   1.535   9.152  1.3907 -0.3887 -0.0862
  109OSM   H15F11276   6.802   1.544   9.128  1.5927  0.2247 -0.7821
  109OSM   H15G11277   6.946   1.456   9.081 -1.1132  0.6469 -2.6900
  109OSM   C16F11278   6.980   1.672   9.113  0.2550 -0.0051  0.7026
  109OSM   H16F11279   7.091   1.671   9.124  0.0945 -2.1341  2.9019
  109OSM   H16G11280   6.936   1.749   9.180  0.0753  2.7206 -2.2951
  109OSM   C17F11281   6.947   1.714   8.966  0.1182  0.4811 -0.1349
  109OSM   H17F11282   6.846   1.758   8.956 -0.4518 -1.0957 -2.1181
  109OSM   H17G11283   6.947   1.629   8.894 -2.1205  1.2843 -1.1920
  109OSM   C18F11284   7.044   1.823   8.927  0.5086 -0.1223  0.0812
  109OSM   H18F11285   7.147   1.781   8.928  0.4226 -0.5723 -2.7829
  109OSM   H18G11286   7.030   1.899   9.007 -1.1643 -0.6016  0.2707
  109OSM   H18H11287   7.022   1.873   8.831 -1.4734  0.7297  0.9170
  110OSM      N11288   1.603   5.045  10.848 -0.2660  0.2932  0.1907
  110OSM    C1511289   1.742   5.055  10.901 -0.3619 -0.5170 -0.4478
  110OSM   H15A11290   1.746   5.098  11.000 -3.4673  0.3000 -0.5794
  110OSM   H15B11291   1.800   5.124  10.842 -1.2866  0.4538 -0.2525
  110OSM   H15C11292   1.784   4.956  10.897  0.2055 -0.2477 -3.3540
  110OSM    C1411293   1.608   5.010  10.706  1.3129  0.6455  0.3529
  110OSM   H14A11294   1.510   5.002  10.661  0.0040 -1.2345  3.2274
  110OSM   H14B11295   1.656   4.916  10.684 -0.1442 -0.2173  0.7160
  110OSM   H14C11296   1.665   5.081  10.648  1.0550  0.4459 -0.1524
  110OSM    C1311297   1.527   4.946  10.925 -0.3402  0.4538 -0.2341
  110OSM   H13A11298   1.513   4.974  11.028  1.6130 -2.7149  1.0328
  110OSM   H13B11299   1.565   4.845  10.927  0.4795  0.7077 -1.6167
  110OSM   H13C11300   1.431   4.933  10.878  0.8675 -1.5125 -2.3991
  110OSM    C1211301   1.523   5.177  10.866  0.4350  0.2392 -0.1101
  110OSM   H12A11302   1.524   5.208  10.969 -1.4210 -0.6526  0.2123
  110OSM   H12B11303   1.419   5.164  10.841  0.4535  0.0167 -0.0763
  110OSM    C1111304   1.575   5.307  10.794 -0.3713 -0.0051 -0.5714
  110OSM   H11A11305   1.502   5.389  10.810 -0.2509 -0.4357  3.0237
  110OSM   H11B11306   1.588   5.291  10.685  0.4289 -0.1494 -0.4548
  110OSM      P11307   1.723   5.480  10.930 -0.1102 -0.4241 -0.0145
  110OSM    O1311308   1.608   5.496  11.030 -0.7278  0.8739  0.5834
  110OSM    O1411309   1.862   5.486  10.989 -0.5162 -0.4620  0.5677
  110OSM    O1111310   1.690   5.593  10.825  0.1152  0.2653  0.1468
  110OSM    O1211311   1.704   5.348  10.840  0.1101  0.6302  0.3207
  110OSM    C1S11312   1.792   5.629  10.726 -0.1380 -0.1580  0.2979
  110OSM    H1S11313   1.894   5.597  10.758  0.4314  0.9894 -0.3031
  110OSM    H1T11314   1.790   5.734  10.691  0.2511 -0.3061 -0.1842
  110OSM     NF11315   1.872   5.615  10.492  0.3126 -0.4963 -0.6019
  110OSM    HNF11316   1.857   5.701  10.444  1.0592 -0.1623 -0.2683
  110OSM    C2S11317   1.770   5.565  10.582 -0.7205  0.4552  0.3762
  110OSM    H2S11318   1.769   5.455  10.601 -1.3432  0.5440  0.8647
  110OSM    C3S11319   1.625   5.603  10.542 -0.1409 -0.4053 -0.0201
  110OSM    H3S11320   1.626   5.713  10.525  1.3596 -0.2914  0.6400
  110OSM     O311321   1.520   5.575  10.632 -0.0863 -0.1138  0.6881
  110OSM    HO311322   1.565   5.558  10.715  0.7237 -0.1282  0.2620
  110OSM    C4S11323   1.590   5.534  10.408 -0.4043 -0.1580 -1.1944
  110OSM    H4S11324   1.616   5.427  10.410  3.1097  0.5783 -0.5423
  110OSM    C5S11325   1.540   5.588  10.299  0.3300  0.0096 -0.8906
  110OSM    H5S11326   1.496   5.688  10.314 -2.4039 -1.3765  1.3931
  110OSM    C6S11327   1.516   5.515  10.175 -0.5161 -0.4250 -0.0309
  110OSM    H6S11328   1.410   5.529  10.145 -0.6146 -1.1845 -0.0460
  110OSM    H6T11329   1.550   5.411  10.197 -3.0148 -1.1694  0.6022
  110OSM    C7S11330   1.611   5.575  10.070  0.2379  0.3288 -0.4149
  110OSM    H7S11331   1.718   5.551  10.090  0.0199 -1.9837 -1.6695
  110OSM    H7T11332   1.585   5.683  10.059 -3.0789 -0.3397 -0.1911
  110OSM    C8S11333   1.598   5.504   9.937  0.7309  0.2037 -0.0867
  110OSM    H8S11334   1.544   5.575   9.870  1.3285  1.4446  0.7065
  110OSM    H8T11335   1.531   5.416   9.941  0.6547  0.2754  3.1526
  110OSM    C9S11336   1.731   5.481   9.866 -0.1818  0.1689  0.9685
  110OSM    H9S11337   1.766   5.376   9.871  2.7446  1.0419  0.9451
  110OSM    H9T11338   1.819   5.532   9.912 -0.8518 -0.5430  3.1802
  110OSM   C10S11339   1.722   5.531   9.717  0.1953 -0.3194 -0.4365
  110OSM   H10S11340   1.823   5.530   9.672  0.5807  1.7840  0.2965
  110OSM   H10T11341   1.688   5.636   9.710 -0.1524 -0.3201  1.0629
  110OSM   C11S11342   1.622   5.449   9.624  0.2048  0.3969 -0.0863
  110OSM   H11S11343   1.531   5.413   9.677  1.5051 -2.2696  0.5049
  110OSM   H11T11344   1.677   5.355   9.604  1.6479  0.4799  2.9025
  110OSM   C12S11345   1.593   5.529   9.493 -0.8170 -0.0296 -0.1790
  110OSM   H12S11346   1.679   5.595   9.468  0.8164 -2.2552 -0.6876
  110OSM   H12T11347   1.510   5.600   9.516 -0.6829  0.2944 -0.6815
  110OSM   C13S11348   1.579   5.436   9.376  0.0022  0.1561 -0.2888
  110OSM   H13S11349   1.568   5.333   9.415  0.6395  0.0674 -0.3324
  110OSM   H13T11350   1.667   5.440   9.308 -0.1429 -1.4600 -0.6067
  110OSM   C14S11351   1.457   5.475   9.294  0.0812 -0.2341  0.5542
  110OSM   H14S11352   1.470   5.584   9.277 -0.9393  0.1515  2.0254
  110OSM   H14T11353   1.369   5.447   9.355  0.9152  0.1163  1.9622
  110OSM   C15S11354   1.456   5.390   9.163  0.9895  0.0107  0.3680
  110OSM   H15S11355   1.425   5.285   9.179  1.3125 -0.1374  0.0298
  110OSM   H15T11356   1.551   5.386   9.106  0.3804  1.8119 -0.8602
  110OSM   C16S11357   1.342   5.432   9.062  0.3612  0.2453 -0.3694
  110OSM   H16S11358   1.340   5.544   9.060 -2.0369  0.2655  0.1892
  110OSM   H16T11359   1.245   5.398   9.104  1.2269 -3.5818 -1.1551
  110OSM   C17S11360   1.348   5.366   8.929 -0.6467  0.2034 -0.3122
  110OSM   H17S11361   1.367   5.257   8.940  1.4945  0.7670  3.5016
  110OSM   H17T11362   1.441   5.404   8.882 -0.4569  0.8673  0.5685
  110OSM   C18S11363   1.236   5.393   8.833 -0.9668 -0.4796 -0.2570
  110OSM   H18S11364   1.225   5.503   8.827 -0.1333 -0.2683  1.4862
  110OSM   H18T11365   1.137   5.360   8.870 -1.8983  1.0944 -1.2831
  110OSM   H18U11366   1.253   5.349   8.732 -4.4584  1.5288 -1.8657
  110OSM    C1F11367   1.990   5.559  10.494  0.4755  0.4873  0.3461
  110OSM     OF11368   2.014   5.451  10.548  0.1953  0.2785  0.3806
  110OSM    C2F11369   2.103   5.632  10.428 -0.0639  0.5641  0.4183
  110OSM    H2F11370   2.167   5.660  10.514  0.5308 -1.3440  0.6535
  110OSM    H2G11371   2.062   5.720  10.375  1.3205  1.5339  0.9057
  110OSM    C3F11372   2.187   5.549  10.325 -0.3856  0.3925 -0.2181
  110OSM    H3F11373   2.235   5.457  10.366  3.7817  1.1133 -2.9204
  110OSM    H3G11374   2.274   5.614  10.304  0.6230 -1.3609 -1.8002
  110OSM    C4F11375   2.118   5.505  10.201 -0.0867  0.1483  0.2349
  110OSM    H4F11376   2.074   5.593  10.149  0.8885  0.7034  0.3288
  110OSM    H4G11377   2.040   5.428  10.222 -1.2808  0.9968 -0.9073
  110OSM    C5F11378   2.210   5.443  10.096  0.4524 -0.3540 -0.3100
  110OSM    H5F11379   2.280   5.372  10.145 -0.4962 -0.6575  0.6552
  110OSM    H5G11380   2.270   5.521  10.046  0.4450 -0.0285  0.1823
  110OSM    C6F11381   2.135   5.346  10.002 -0.7730  0.0896 -0.4661
  110OSM    H6F11382   2.049   5.409   9.972 -0.9520  0.1309  0.1103
  110OSM    H6G11383   2.098   5.260  10.062 -1.8511  0.4501 -0.6107
  110OSM    C7F11384   2.210   5.295   9.876 -0.0071  0.1788  0.0429
  110OSM    H7F11385   2.162   5.198   9.849 -2.1436  0.7872  1.4153
  110OSM    H7G11386   2.311   5.262   9.910 -1.1556 -2.9126  0.8627
  110OSM    C8F11387   2.213   5.398   9.759  0.3359  0.2836 -0.1551
  110OSM    H8F11388   2.263   5.492   9.791 -1.6556  1.4198 -0.2140
  110OSM    H8G11389   2.114   5.432   9.723  0.1807  0.4564  0.4281
  110OSM    C9F11390   2.300   5.358   9.650 -0.5557  0.0012  0.9549
  110OSM    H9F11391   2.405   5.336   9.674 -0.6939 -1.8279  0.1153
  110OSM   C10F11392   2.270   5.344   9.520  0.4210 -0.0671  0.1721
  110OSM   H10F11393   2.349   5.339   9.444 -0.8493  0.1472 -1.2085
  110OSM   C11F11394   2.134   5.365   9.463 -0.5112  1.0207 -0.3170
  110OSM   H11F11395   2.117   5.473   9.446 -0.5819  0.8758 -1.2188
  110OSM   H11G11396   2.058   5.327   9.534 -2.0546  2.7949 -0.9613
  110OSM   C12F11397   2.111   5.304   9.323 -0.5252  0.6108 -0.5866
  110OSM   H12F11398   2.127   5.194   9.328 -0.7350  0.5788  4.4389
  110OSM   H12G11399   2.188   5.343   9.254 -1.9467  2.9527 -0.9490
  110OSM   C13F11400   1.984   5.341   9.246  0.3480  0.0017  0.0112
  110OSM   H13F11401   1.971   5.451   9.237  0.8307  0.0372 -0.2682
  110OSM   H13G11402   1.895   5.309   9.305  1.0565 -0.7184  0.7156
  110OSM   C14F11403   1.972   5.277   9.109 -0.6502 -0.1785  0.5292
  110OSM   H14F11404   1.967   5.166   9.119  4.0645 -0.4961  1.3791
  110OSM   H14G11405   2.072   5.307   9.072  0.1228 -0.9356  1.9389
  110OSM   C15F11406   1.858   5.342   9.028 -0.0948  0.7256 -0.3299
  110OSM   H15F11407   1.859   5.451   9.051  0.7051  0.8814 -1.0911
  110OSM   H15G11408   1.766   5.305   9.079 -0.5393  0.5715 -1.2291
  110OSM   C16F11409   1.878   5.304   8.882 -0.3583 -0.3696 -0.0989
  110OSM   H16F11410   1.920   5.201   8.878  1.3367  0.2901 -0.0319
  110OSM   H16G11411   1.959   5.377   8.861 -1.5173  0.4392 -2.0169
  110OSM   C17F11412   1.754   5.324   8.797  0.8749  0.6797  0.1955
  110OSM   H17F11413   1.707   5.421   8.826 -0.8895 -0.7520  2.4786
  110OSM   H17G11414   1.686   5.238   8.812  1.0482  0.2504 -1.3625
  110OSM   C18F11415   1.775   5.327   8.650 -0.4627 -0.0407 -0.7596
  110OSM   H18F11416   1.673   5.314   8.607 -0.6093  1.6099 -0.9948
  110OSM   H18G11417   1.829   5.248   8.595  1.3042  0.2011  0.5680
  110OSM   H18H11418   1.816   5.425   8.616 -2.4694  0.4830 -1.8723
  111OSM      N11419   2.243   2.966  10.788  0.0221 -0.1253 -0.3877
  111OSM    C1511420   2.351   2.974  10.894  0.0324 -0.5091  0.4289
  111OSM   H15A11421   2.444   2.963  10.840 -1.1066  1.0527 -2.0403
  111OSM   H15B11422   2.345   2.903  10.975  2.8262 -1.9990 -0.5327
  111OSM   H15C11423   2.358   3.073  10.937  0.4640 -0.9865  1.4960
  111OSM    C1411424   2.235   2.834  10.712 -0.0929 -0.7194 -0.1382
  111OSM   H14A11425   2.328   2.799  10.671 -0.2051 -1.7214  0.4428
  111OSM   H14B11426   2.165   2.829  10.630  0.5101  0.4757 -0.7673
  111OSM   H14C11427   2.197   2.761  10.781 -3.4002  0.7543 -0.1840
  111OSM    C1311428   2.113   2.987  10.866 -0.8491 -0.0884  0.4259
  111OSM   H13A11429   2.031   3.004  10.797  0.1538  0.0832 -0.7637
  111OSM   H13B11430   2.111   3.074  10.931 -2.6522 -0.6875  1.2352
  111OSM   H13C11431   2.085   2.901  10.924  0.2745 -0.3531  0.5829
  111OSM    C1211432   2.269   3.076  10.689 -0.0449 -0.4222  0.5012
  111OSM   H12A11433   2.298   3.162  10.746  1.7642 -1.4925  1.2827
  111OSM   H12B11434   2.184   3.105  10.628  1.5309 -0.5534 -1.9174
  111OSM    C1111435   2.395   3.056  10.599  0.0397 -0.2978  0.1179
  111OSM   H11A11436   2.398   3.138  10.525  3.9253 -0.1210  0.2639
  111OSM   H11B11437   2.385   2.958  10.547  5.1742 -0.4765 -1.1009
  111OSM      P11438   2.636   3.149  10.657 -0.2865  0.1834 -0.0988
  111OSM    O1311439   2.576   3.282  10.677  0.0144 -0.2830 -0.4969
  111OSM    O1411440   2.752   3.124  10.748 -0.1129 -0.6693 -0.3879
  111OSM    O1111441   2.677   3.134  10.503  0.2584 -0.1511 -0.4592
  111OSM    O1211442   2.514   3.049  10.676  0.1156  0.3347  0.8192
  111OSM    C1S11443   2.756   3.023  10.461 -0.2656  0.2189  0.5204
  111OSM    H1S11444   2.693   2.932  10.448 -0.4715  0.3750  0.4265
  111OSM    H1T11445   2.832   2.984  10.532  1.0618 -0.9843 -1.4633
  111OSM     NF11446   2.898   2.932  10.271  0.1816 -0.3950 -1.1563
  111OSM    HNF11447   2.997   2.931  10.282  0.1964 -1.0608 -1.3064
  111OSM    C2S11448   2.818   3.044  10.317 -0.1148 -0.0383 -0.1705
  111OSM    H2S11449   2.740   3.067  10.242  1.8338 -0.8481 -2.5703
  111OSM    C3S11450   2.911   3.171  10.333 -0.0289  0.1059 -0.0823
  111OSM    H3S11451   2.982   3.155  10.416  0.1033 -0.1905 -0.2514
  111OSM     O311452   2.852   3.299  10.372  0.3537  0.2722  0.1377
  111OSM    HO311453   2.765   3.276  10.404  0.0623  0.4126 -0.5200
  111OSM    C4S11454   2.993   3.189  10.205  0.3952  0.0992  0.3842
  111OSM    H4S11455   3.080   3.122  10.196 -0.2484 -0.8814  1.1509
  111OSM    C5S11456   2.967   3.262  10.095  0.8094 -0.0523 -0.0108
  111OSM    H5S11457   2.876   3.324  10.099  2.3359  2.5043 -1.7574
  111OSM    C6S11458   3.059   3.258   9.977 -0.2447 -0.0670  0.2082
  111OSM    H6S11459   3.135   3.179   9.996 -0.3304 -0.0384  0.6742
  111OSM    H6T11460   3.107   3.355   9.951  1.8166 -1.0349  0.2184
  111OSM    C7S11461   2.966   3.212   9.861 -0.6170  0.2150 -0.2512
  111OSM    H7S11462   2.866   3.259   9.858  0.0772  1.6734 -2.0405
  111OSM    H7T11463   2.954   3.101   9.862  1.1988 -0.1032 -3.2307
  111OSM    C8S11464   3.037   3.232   9.732 -0.3460  1.0041  1.0399
  111OSM    H8S11465   3.137   3.184   9.739 -0.8120  0.0948  1.7205
  111OSM    H8T11466   3.054   3.341   9.719 -1.3371  1.0732  0.1959
  111OSM    C9S11467   2.958   3.170   9.615 -0.0099  0.4211  0.5549
  111OSM    H9S11468   2.882   3.229   9.560 -1.0866  1.2175  2.7703
  111OSM    H9T11469   2.909   3.073   9.637 -1.4975  1.2985  1.2391
  111OSM   C10S11470   3.052   3.131   9.494 -0.0862  0.2420 -0.1767
  111OSM   H10S11471   2.990   3.088   9.413  1.6808 -4.2324  0.5512
  111OSM   H10T11472   3.120   3.051   9.533  0.2592  0.1535 -0.9528
  111OSM   C11S11473   3.131   3.231   9.429  0.1897 -0.3217  0.5256
  111OSM   H11S11474   3.217   3.248   9.497  0.7636  0.6911 -0.4201
  111OSM   H11T11475   3.085   3.331   9.418  2.1927  0.9311  2.5672
  111OSM   C12S11476   3.190   3.193   9.297 -0.3525  0.3987 -0.6207
  111OSM   H12S11477   3.209   3.085   9.315  0.2614  0.7366  0.9019
  111OSM   H12T11478   3.280   3.254   9.274 -2.9176  4.3632 -1.0635
  111OSM   C13S11479   3.099   3.212   9.175  0.1195 -0.9443  0.2398
  111OSM   H13S11480   3.092   3.322   9.162 -0.0628 -0.8578  1.0437
  111OSM   H13T11481   2.997   3.169   9.190  0.1186 -0.3060  2.3251
  111OSM   C14S11482   3.160   3.151   9.050  0.3536  0.6198 -0.2481
  111OSM   H14S11483   3.225   3.064   9.071  2.0310  1.8504 -0.1366
  111OSM   H14T11484   3.220   3.230   9.001 -0.1798  1.9647  1.1995
  111OSM   C15S11485   3.051   3.112   8.948  0.1899 -0.4176 -0.3847
  111OSM   H15S11486   2.968   3.186   8.943  2.5497  2.3474 -2.3400
  111OSM   H15T11487   3.010   3.016   8.986 -0.6576  0.2760  0.4970
  111OSM   C16S11488   3.086   3.090   8.797 -0.2880 -0.0410 -0.0013
  111OSM   H16S11489   3.010   3.013   8.769  1.5058 -1.5591 -0.8709
  111OSM   H16T11490   3.173   3.023   8.786 -0.3640 -0.2722  0.7411
  111OSM   C17S11491   3.098   3.220   8.721 -0.3477 -0.3398  1.2586
  111OSM   H17S11492   3.165   3.297   8.765 -1.0125  1.2239 -0.3281
  111OSM   H17T11493   2.999   3.272   8.717 -0.0843  0.1743  1.3202
  111OSM   C18S11494   3.136   3.189   8.571 -0.1086 -0.0318 -0.0955
  111OSM   H18S11495   3.188   3.092   8.559 -1.9123 -0.8697 -1.6869
  111OSM   H18T11496   3.187   3.274   8.521 -0.4223  0.4327  0.3588
  111OSM   H18U11497   3.039   3.178   8.518  1.1284 -0.2875 -2.4084
  111OSM    C1F11498   2.832   2.825  10.240 -0.1558  0.0172  0.3674
  111OSM     OF11499   2.714   2.828  10.210  0.1072 -0.4988 -0.6430
  111OSM    C2F11500   2.906   2.694  10.238  0.1483  0.1802 -0.2951
  111OSM    H2F11501   2.829   2.614  10.230 -0.0273  0.3432 -0.2508
  111OSM    H2G11502   2.968   2.674  10.328  1.5365  0.0264 -1.2558
  111OSM    C3F11503   2.998   2.670  10.117  0.0568 -0.2633 -1.1163
  111OSM    H3F11504   3.042   2.569  10.134 -1.0326 -0.3449  1.8000
  111OSM    H3G11505   3.077   2.749  10.122  1.1250 -1.3702  0.6551
  111OSM    C4F11506   2.940   2.671   9.966 -0.0337  0.1663 -0.2600
  111OSM    H4F11507   2.900   2.771   9.940 -1.5495 -0.3173  0.1245
  111OSM    H4G11508   2.855   2.601   9.958  0.3558 -0.2919 -0.4443
  111OSM    C5F11509   3.059   2.636   9.869 -0.0638  0.1961  0.2140
  111OSM    H5F11510   3.113   2.548   9.909  3.0537  1.0796 -1.6355
  111OSM    H5G11511   3.142   2.711   9.868  1.6852 -1.6078 -2.3159
  111OSM    C6F11512   3.014   2.635   9.724  0.5073 -0.4392 -0.1943
  111OSM    H6F11513   2.976   2.735   9.694  0.1218 -0.3421  0.5949
  111OSM    H6G11514   2.918   2.579   9.718 -0.3605  0.8754  0.8431
  111OSM    C7F11515   3.122   2.575   9.628 -0.9075 -0.3033 -0.4019
  111OSM    H7F11516   3.127   2.465   9.647 -1.7037 -0.2565  0.1763
  111OSM    H7G11517   3.220   2.617   9.657 -1.2926 -0.1284  0.7115
  111OSM    C8F11518   3.082   2.583   9.478  0.9326  0.4732 -0.0394
  111OSM    H8F11519   2.979   2.542   9.469  1.9024 -1.8481 -1.4819
  111OSM    H8G11520   3.152   2.521   9.419  1.3692 -0.7948  1.7453
  111OSM    C9F11521   3.090   2.721   9.422  0.6460 -0.1204  1.0503
  111OSM    H9F11522   3.040   2.805   9.473 -0.7530  0.8452 -1.7207
  111OSM   C10F11523   3.141   2.754   9.300  0.8558 -0.7470  0.7293
  111OSM   H10F11524   3.150   2.861   9.277  1.1910 -0.6101  1.4748
  111OSM   C11F11525   3.199   2.655   9.199  0.3335  0.5098 -0.3147
  111OSM   H11F11526   3.240   2.563   9.248 -1.7061  0.3329  1.1957
  111OSM   H11G11527   3.281   2.702   9.140  0.7659  2.5187  1.7309
  111OSM   C12F11528   3.094   2.585   9.107 -0.0953  0.1928 -0.5714
  111OSM   H12F11529   3.015   2.548   9.176 -0.2421  0.0959 -0.7911
  111OSM   H12G11530   3.125   2.503   9.039 -0.0214 -0.0937 -0.1958
  111OSM   C13F11531   3.019   2.683   9.023 -0.4121 -0.6084  0.5826
  111OSM   H13F11532   3.003   2.778   9.080 -0.6264 -0.3705  0.1292
  111OSM   H13G11533   2.924   2.639   8.989 -0.0003 -0.6818 -0.5102
  111OSM   C14F11534   3.077   2.730   8.887  0.0888 -0.0804 -0.4119
  111OSM   H14F11535   3.129   2.823   8.918 -0.8007  0.1163  0.5178
  111OSM   H14G11536   3.000   2.775   8.821  0.8601  0.5840 -0.8954
  111OSM   C15F11537   3.182   2.636   8.819 -0.5411  0.0980  0.4019
  111OSM   H15F11538   3.122   2.552   8.777 -0.7210 -1.2259  3.0711
  111OSM   H15G11539   3.253   2.588   8.889  1.8694  0.2819 -1.7708
  111OSM   C16F11540   3.262   2.696   8.703  0.1688  0.5473 -0.5452
  111OSM   H16F11541   3.193   2.761   8.645  1.0715  1.1342 -0.9784
  111OSM   H16G11542   3.285   2.613   8.634  1.7865  2.5498 -2.5566
  111OSM   C17F11543   3.388   2.773   8.759 -0.3833  0.7228 -0.3010
  111OSM   H17F11544   3.443   2.712   8.832  0.3651 -2.2649 -3.1224
  111OSM   H17G11545   3.361   2.863   8.819  0.8122  0.4089  0.7399
  111OSM   C18F11546   3.485   2.833   8.648  0.4719  0.3491  0.0475
  111OSM   H18F11547   3.555   2.902   8.698  1.4167 -0.4008 -0.2046
  111OSM   H18G11548   3.443   2.907   8.577  2.1511  3.4811  2.0900
  111OSM   H18H11549   3.540   2.761   8.583  0.0061 -1.1833  1.2675
  112OSM      N11550   0.391   0.936  10.836  0.6627 -0.5072  0.3276
  112OSM    C1511551   0.263   0.860  10.803  0.2076 -0.0371 -0.4070
  112OSM   H15A11552   0.181   0.931  10.801 -0.3803 -0.7229 -0.9343
  112OSM   H15B11553   0.240   0.791  10.882  1.6597  1.3434  1.3376
  112OSM   H15C11554   0.272   0.806  10.710 -0.8448  1.0430 -1.1641
  112OSM    C1411555   0.357   1.012  10.962  0.4389  0.1655  0.2396
  112OSM   H14A11556   0.284   1.086  10.935 -0.0075 -0.4822 -0.3576
  112OSM   H14B11557   0.439   1.073  10.997  1.3589 -0.5177 -0.6491
  112OSM   H14C11558   0.314   0.947  11.036  1.4846 -0.0735  0.6608
  112OSM    C1311559   0.496   0.831  10.859 -0.3192 -0.0596 -0.4017
  112OSM   H13A11560   0.465   0.751  10.923 -1.1734  0.1532 -0.5389
  112OSM   H13B11561   0.588   0.876  10.895  0.0733 -1.1985  0.0490
  112OSM   H13C11562   0.506   0.774  10.768  0.7667 -0.2738 -0.1666
  112OSM    C1211563   0.437   1.035  10.727 -0.2665  0.3179 -0.0656
  112OSM   H12A11564   0.476   0.980  10.642  0.3072  0.2108  0.2572
  112OSM   H12B11565   0.517   1.093  10.771  0.0529 -0.2542  0.1262
  112OSM    C1111566   0.339   1.122  10.653  0.0715 -0.1378  0.5944
  112OSM   H11A11567   0.274   1.055  10.593  1.9515  0.6386 -2.5317
  112OSM   H11B11568   0.392   1.188  10.582  0.2941 -0.8006  0.1306
  112OSM      P11569   0.111   1.244  10.706  0.3059  0.0859 -0.1868
  112OSM    O1311570   0.032   1.121  10.716 -0.1686  0.2503  0.3494
  112OSM    O1411571   0.050   1.351  10.788  0.5058  0.4568 -0.0296
  112OSM    O1111572   0.117   1.286  10.554  0.5090  0.4022 -0.0171
  112OSM    O1211573   0.268   1.209  10.745  0.1455  0.0947  0.2308
  112OSM    C1S11574   0.201   1.397  10.520  0.1589 -0.0542 -0.6755
  112OSM    H1S11575   0.301   1.386  10.566 -0.1168  0.8144  0.1883
  112OSM    H1T11576   0.166   1.486  10.577  0.6807 -0.4828  0.3520
  112OSM     NF11577   0.330   1.499  10.336  0.3212 -0.5932 -0.2274
  112OSM    HNF11578   0.316   1.597  10.329  0.5851 -0.6256 -1.2658
  112OSM    C2S11579   0.211   1.417  10.372 -0.7460 -0.8929  0.7221
  112OSM    H2S11580   0.216   1.309  10.343 -4.1077 -0.7568 -0.8556
  112OSM    C3S11581   0.078   1.471  10.308 -0.1547 -0.0245  0.2325
  112OSM    H3S11582   0.061   1.573  10.350  0.0698 -0.8941  2.5694
  112OSM     O311583  -0.037   1.390  10.347 -0.3485  0.2775  0.3949
  112OSM    HO311584   0.005   1.335  10.413 -0.4027  1.8782  1.8192
  112OSM    C4S11585   0.092   1.506  10.158 -0.2726  0.4935  0.2953
  112OSM    H4S11586   0.161   1.587  10.133 -1.0610  0.3508 -2.7257
  112OSM    C5S11587   0.034   1.443  10.060 -0.6106 -0.2256 -0.2828
  112OSM    H5S11588  -0.043   1.367  10.081  0.6871 -0.5880  4.0340
  112OSM    C6S11589   0.064   1.482   9.916  0.5154 -0.4080  0.3568
  112OSM    H6S11590  -0.033   1.502   9.864 -0.8659 -2.5295  1.9166
  112OSM    H6T11591   0.095   1.387   9.867 -1.5514 -1.9988  1.9227
  112OSM    C7S11592   0.161   1.594   9.877  0.7797 -0.6788  0.4393
  112OSM    H7S11593   0.258   1.559   9.916  1.4986  0.6924 -0.0547
  112OSM    H7T11594   0.149   1.693   9.926 -3.2125 -1.2268  0.9035
  112OSM    C8S11595   0.172   1.603   9.721 -0.1037  0.8217 -0.4755
  112OSM    H8S11596   0.084   1.656   9.679 -1.5757 -1.8414 -0.9292
  112OSM    H8T11597   0.183   1.503   9.675  2.1439  1.0490 -0.5822
  112OSM    C9S11598   0.300   1.681   9.667 -0.4784  0.6049  0.1880
  112OSM    H9S11599   0.392   1.640   9.715 -1.3575 -1.5535  0.1634
  112OSM    H9T11600   0.283   1.788   9.692 -0.4604  0.1817  2.2085
  112OSM   C10S11601   0.321   1.673   9.518 -0.5436  0.2551  0.0870
  112OSM   H10S11602   0.247   1.734   9.461  0.3378  0.7832 -0.5133
  112OSM   H10T11603   0.312   1.571   9.475 -0.6701  1.0992 -2.0486
  112OSM   C11S11604   0.463   1.725   9.483  0.2091 -0.6435  0.2173
  112OSM   H11S11605   0.531   1.666   9.548  1.4193 -0.0069 -0.4288
  112OSM   H11T11606   0.474   1.831   9.513  2.9102 -0.4469 -1.1891
  112OSM   C12S11607   0.499   1.692   9.340 -0.1082 -0.4132 -0.0349
  112OSM   H12S11608   0.444   1.763   9.275 -1.5149 -1.6305 -0.2383
  112OSM   H12T11609   0.462   1.591   9.312 -2.0917  0.1211  0.4887
  112OSM   C13S11610   0.655   1.701   9.327  0.2568 -0.5503 -0.5703
  112OSM   H13S11611   0.698   1.654   9.418  0.8261  0.9115 -0.0545
  112OSM   H13T11612   0.676   1.809   9.340 -0.6599 -0.1534 -2.1755
  112OSM   C14S11613   0.713   1.637   9.202 -0.3735 -0.4022 -0.6055
  112OSM   H14S11614   0.674   1.534   9.196  1.5185 -1.3388  1.4920
  112OSM   H14T11615   0.823   1.634   9.213 -0.5363  0.2165  2.1084
  112OSM   C15S11616   0.677   1.713   9.077 -0.1810 -0.7977 -0.2305
  112OSM   H15S11617   0.714   1.817   9.082 -1.2585 -0.3822 -0.5551
  112OSM   H15T11618   0.566   1.715   9.080 -0.1823 -0.5858  2.8844
  112OSM   C16S11619   0.711   1.640   8.941  0.1670  0.1969 -0.0295
  112OSM   H16S11620   0.820   1.652   8.924  0.4965 -2.2079  0.0946
  112OSM   H16T11621   0.665   1.697   8.857 -0.6188  0.2436  0.4260
  112OSM   C17S11622   0.662   1.491   8.933 -1.0890 -0.1704 -0.3932
  112OSM   H17S11623   0.570   1.468   8.992 -0.4275  0.4088  0.8879
  112OSM   H17T11624   0.749   1.434   8.971 -0.4193  0.8522 -0.3677
  112OSM   C18S11625   0.637   1.450   8.791 -0.5595  0.6546  0.0302
  112OSM   H18S11626   0.564   1.522   8.749  3.0419  3.2040 -2.5979
  112OSM   H18T11627   0.592   1.349   8.793 -0.0779  0.4521  1.3237
  112OSM   H18U11628   0.732   1.438   8.735 -1.1910 -2.1505 -0.5753
  112OSM    C1F11629   0.450   1.445  10.345  0.0872 -0.2256 -0.3296
  112OSM     OF11630   0.462   1.326  10.379 -0.0724  0.1051 -0.0639
  112OSM    C2F11631   0.574   1.529  10.307  0.5257 -0.2799 -0.3212
  112OSM    H2F11632   0.591   1.606  10.386  0.3994 -1.3869  0.8160
  112OSM    H2G11633   0.535   1.591  10.224  0.4719  0.9302  0.5864
  112OSM    C3F11634   0.700   1.458  10.266  0.4247  0.4338  0.8551
  112OSM    H3F11635   0.676   1.392  10.180 -2.3547  1.3327  0.8290
  112OSM    H3G11636   0.739   1.400  10.352 -2.2883 -1.4144  0.9732
  112OSM    C4F11637   0.811   1.565  10.226 -0.1382  0.1864 -0.6679
  112OSM    H4F11638   0.841   1.621  10.317 -1.5282  1.8124 -1.1448
  112OSM    H4G11639   0.770   1.640  10.155  0.3884  1.0436 -0.0874
  112OSM    C5F11640   0.932   1.497  10.179 -0.7679  0.4667 -0.1163
  112OSM    H5F11641   0.914   1.456  10.078  0.3817  1.0540 -0.5839
  112OSM    H5G11642   0.976   1.424  10.250  0.0209  1.0563  0.0265
  112OSM    C6F11643   1.040   1.611  10.162  0.3579  0.3001 -0.1716
  112OSM    H6F11644   1.033   1.669  10.256  1.6870 -0.3047  0.3397
  112OSM    H6G11645   1.010   1.676  10.077  1.1363 -0.1166 -0.7792
  112OSM    C7F11646   1.183   1.564  10.158 -0.0670  0.0841  0.3479
  112OSM    H7F11647   1.217   1.513  10.250  2.1024  3.5138  1.6230
  112OSM    H7G11648   1.241   1.658  10.167  0.7272 -0.4430  0.8272
  112OSM    C8F11649   1.216   1.486  10.023  0.0871  0.5563 -0.2948
  112OSM    H8F11650   1.207   1.562   9.942  0.5105  0.0986 -0.7796
  112OSM    H8G11651   1.143   1.404  10.005 -1.1788  1.5125  0.3040
  112OSM    C9F11652   1.364   1.446  10.025  0.2641  0.0830  0.3062
  112OSM    H9F11653   1.402   1.406  10.120  2.7370  0.2574 -0.5367
  112OSM   C10F11654   1.446   1.450   9.918  0.1299  0.9203 -0.6169
  112OSM   H10F11655   1.547   1.407   9.926 -0.5983 -0.7004  0.3078
  112OSM   C11F11656   1.414   1.500   9.781 -0.3144  1.2260 -0.3889
  112OSM   H11F11657   1.460   1.600   9.773  0.2923  1.1979  2.0891
  112OSM   H11G11658   1.304   1.507   9.767 -0.0750  0.8069 -3.1290
  112OSM   C12F11659   1.469   1.404   9.665 -0.1638 -1.0117 -0.0588
  112OSM   H12F11660   1.425   1.307   9.697  0.2068 -0.9157  0.7832
  112OSM   H12G11661   1.580   1.400   9.676  0.5444  2.5921 -3.6130
  112OSM   C13F11662   1.434   1.457   9.527 -0.2669  0.2452  0.0020
  112OSM   H13F11663   1.324   1.449   9.513 -0.7534  0.7519  2.9134
  112OSM   H13G11664   1.483   1.393   9.451  2.5146  4.4711 -2.2167
  112OSM   C14F11665   1.472   1.602   9.494  0.4904  0.4403  0.2525
  112OSM   H14F11666   1.582   1.620   9.493  0.2291  2.1873 -0.4616
  112OSM   H14G11667   1.431   1.673   9.569  0.4533  2.6835 -1.7387
  112OSM   C15F11668   1.412   1.651   9.364 -0.5673  0.4110  0.5572
  112OSM   H15F11669   1.435   1.758   9.344 -0.8886  0.4402  0.3178
  112OSM   H15G11670   1.301   1.642   9.366 -0.6816  1.6935  0.7784
  112OSM   C16F11671   1.456   1.574   9.241  0.0605 -0.9508 -0.2776
  112OSM   H16F11672   1.407   1.474   9.239 -1.5728 -0.1811 -0.2020
  112OSM   H16G11673   1.567   1.565   9.234  0.0813 -2.2303  1.1825
  112OSM   C17F11674   1.414   1.648   9.114  0.0534  0.1624 -0.0812
  112OSM   H17F11675   1.304   1.659   9.117  0.0655  0.2032  2.2977
  112OSM   H17G11676   1.436   1.588   9.023 -0.8876 -1.3113  0.6226
  112OSM   C18F11677   1.496   1.781   9.091  0.7096  0.3458  0.3968
  112OSM   H18F11678   1.479   1.815   8.986  3.4410 -0.1006 -0.2720
  112OSM   H18G11679   1.603   1.753   9.093  0.7847  0.2866 -2.0055
  112OSM   H18H11680   1.462   1.864   9.156 -0.9644  0.4982 -0.5998
  113OSM      N11681   1.234   1.035  10.746  0.1266 -0.6938  0.1913
  113OSM    C1511682   1.159   0.932  10.830 -0.9804 -0.1174 -0.4698
  113OSM   H15A11683   1.135   0.837  10.785  1.4876 -1.7008  1.3123
  113OSM   H15B11684   1.068   0.975  10.870  0.6491  1.1182  2.1655
  113OSM   H15C11685   1.224   0.913  10.914  0.5679 -2.2679 -2.0666
  113OSM    C1411686   1.297   1.137  10.832  0.7074  0.2380 -0.0385
  113OSM   H14A11687   1.275   1.236  10.798 -1.1119 -0.1823 -0.1663
  113OSM   H14B11688   1.404   1.121  10.839  0.3906 -1.6198  2.2427
  113OSM   H14C11689   1.260   1.127  10.933  0.6873 -0.7822 -0.1369
  113OSM    C1311690   1.344   0.972  10.667  0.0672  0.2924 -0.1692
  113OSM   H13A11691   1.401   0.908  10.733 -1.3820 -1.5885 -0.6487
  113OSM   H13B11692   1.422   1.030  10.620 -0.0510  0.5238 -0.0790
  113OSM   H13C11693   1.304   0.903  10.593  0.7438  0.5461 -0.7889
  113OSM    C1211694   1.136   1.115  10.659 -0.4565 -0.5996 -0.8723
  113OSM   H12A11695   1.089   1.042  10.594 -0.0309 -2.1303  0.4824
  113OSM   H12B11696   1.188   1.195  10.608 -0.5275 -0.3597 -0.5679
  113OSM    C1111697   1.028   1.194  10.735  0.2126  0.5967 -0.4269
  113OSM   H11A11698   0.978   1.264  10.664  3.5400  1.4517 -2.1379
  113OSM   H11B11699   1.072   1.276  10.795 -0.4646  0.6620 -0.0129
  113OSM      P11700   0.809   1.059  10.763  0.1224  0.1382 -0.3072
  113OSM    O1311701   0.789   0.919  10.807 -0.8680  0.2670  0.0621
  113OSM    O1411702   0.701   1.151  10.801 -0.2024  0.1524  0.0202
  113OSM    O1111703   0.818   1.073  10.601 -0.0125  0.0344  0.0523
  113OSM    O1211704   0.944   1.120  10.816  0.1535 -0.8262 -0.5831
  113OSM    C1S11705   0.847   0.952  10.534 -0.4203 -0.1012  0.2973
  113OSM    H1S11706   0.763   0.883  10.560 -0.2197  0.1090  1.5457
  113OSM    H1T11707   0.940   0.915  10.582 -0.5628  0.7672  1.2668
  113OSM     NF11708   0.894   0.834  10.329 -0.0661  0.0180  0.0035
  113OSM    HNF11709   0.981   0.814  10.283  1.2443  1.2498  1.8076
  113OSM    C2S11710   0.869   0.965  10.378 -0.0999  0.0095  0.4883
  113OSM    H2S11711   0.770   0.998  10.339  0.2382  2.0116  1.1931
  113OSM    C3S11712   0.968   1.078  10.343  0.2881  0.1680 -0.3468
  113OSM    H3S11713   1.064   1.045  10.388  1.3180  2.5668 -0.6181
  113OSM     O311714   0.927   1.207  10.399  0.3106 -0.5510  0.4598
  113OSM    HO311715   0.850   1.193  10.455 -1.6426  1.0306 -1.6493
  113OSM    C4S11716   0.993   1.092  10.201 -0.2487  0.2604 -1.0857
  113OSM    H4S11717   1.076   1.033  10.158  0.6305 -0.1077  0.9754
  113OSM    C5S11718   0.905   1.152  10.122  0.5997  0.0293  0.2112
  113OSM    H5S11719   0.811   1.181  10.171 -0.3903 -0.5362 -1.3147
  113OSM    C6S11720   0.914   1.166   9.977  0.5921 -0.4751  0.2282
  113OSM    H6S11721   0.890   1.270   9.945 -3.1153 -0.9471  1.0195
  113OSM    H6T11722   0.835   1.111   9.920  0.0453  1.1878 -0.6726
  113OSM    C7S11723   1.046   1.111   9.916 -0.1494  0.0989 -0.1163
  113OSM    H7S11724   1.061   1.004   9.944 -2.8198 -0.1175  0.8146
  113OSM    H7T11725   1.134   1.160   9.964 -0.4685 -0.2030  0.8089
  113OSM    C8S11726   1.049   1.136   9.764  0.0466  1.0802 -0.3102
  113OSM    H8S11727   1.037   1.246   9.757 -0.5767  1.0611  0.3586
  113OSM    H8T11728   0.962   1.087   9.715  0.7473 -0.5189  0.0022
  113OSM    C9S11729   1.187   1.092   9.703  0.2777 -0.6613 -0.2212
  113OSM    H9S11730   1.211   0.989   9.738 -1.9441 -0.7378  1.2614
  113OSM    H9T11731   1.264   1.163   9.740 -1.2141  1.6582 -1.3658
  113OSM   C10S11732   1.191   1.099   9.552 -0.2221  0.0711  0.5223
  113OSM   H10S11733   1.290   1.121   9.508 -2.0044  1.2562 -3.3218
  113OSM   H10T11734   1.129   1.179   9.505 -0.1927 -1.0392 -1.5039
  113OSM   C11S11735   1.153   0.972   9.481  0.4182  0.0913 -0.6836
  113OSM   H11S11736   1.052   0.946   9.519  0.0275  0.5762 -1.3838
  113OSM   H11T11737   1.225   0.892   9.507  0.0341 -0.7647 -2.1336
  113OSM   C12S11738   1.138   0.986   9.327 -0.2062 -0.5093  0.0523
  113OSM   H12S11739   1.131   1.092   9.294 -0.8954  0.2183  2.3146
  113OSM   H12T11740   1.043   0.938   9.298 -0.8368  0.4238  0.5142
  113OSM   C13S11741   1.250   0.912   9.251  0.4185 -0.1892 -0.1605
  113OSM   H13S11742   1.247   0.805   9.278 -1.2976 -0.5010 -1.4322
  113OSM   H13T11743   1.345   0.959   9.285 -0.9966  2.1964  0.7706
  113OSM   C14S11744   1.232   0.914   9.100  0.8412  0.0137  0.7647
  113OSM   H14S11745   1.229   1.015   9.054 -1.4184 -0.3477 -0.0461
  113OSM   H14T11746   1.136   0.864   9.074  1.3735 -0.7962  0.3087
  113OSM   C15S11747   1.348   0.840   9.034 -0.3855 -0.6557  0.0885
  113OSM   H15S11748   1.346   0.737   9.077  1.1529 -0.1063  1.5875
  113OSM   H15T11749   1.441   0.884   9.074 -0.7869 -0.9696  1.4388
  113OSM   C16S11750   1.356   0.855   8.884 -0.3095  0.0518  0.3094
  113OSM   H16S11751   1.383   0.958   8.851  1.5911 -0.9217 -1.4110
  113OSM   H16T11752   1.253   0.838   8.845 -0.0990 -0.3205 -0.0919
  113OSM   C17S11753   1.457   0.747   8.822 -0.2522 -0.3016  0.4072
  113OSM   H17S11754   1.424   0.644   8.845  0.2037 -0.9347 -1.5506
  113OSM   H17T11755   1.557   0.765   8.866 -1.1200  1.9946  1.6231
  113OSM   C18S11756   1.458   0.752   8.664  0.6461 -0.1739 -0.0722
  113OSM   H18S11757   1.489   0.652   8.625  0.1379  1.0908 -4.2342
  113OSM   H18T11758   1.525   0.833   8.628  0.1211 -0.0210 -0.7257
  113OSM   H18U11759   1.357   0.774   8.623  0.3976  0.2126  0.7373
  113OSM    C1F11760   0.810   0.736  10.330 -0.9974  0.1663 -0.3936
  113OSM     OF11761   0.693   0.753  10.363  0.1002 -0.0816 -0.3177
  113OSM    C2F11762   0.867   0.603  10.278  0.0977 -0.3435  0.1643
  113OSM    H2F11763   0.810   0.529  10.338 -2.4279  2.3542  1.3378
  113OSM    H2G11764   0.976   0.598  10.297  0.0983  1.2033  0.6798
  113OSM    C3F11765   0.834   0.594  10.121 -0.2996 -0.3237 -0.7466
  113OSM    H3F11766   0.724   0.614  10.117  0.1142  2.2589 -0.6515
  113OSM    H3G11767   0.841   0.490  10.081  1.7741 -0.0533 -1.1854
  113OSM    C4F11768   0.911   0.681  10.024 -0.0689  0.0179  0.3709
  113OSM    H4F11769   1.013   0.640  10.041 -0.2612 -0.2481  0.8973
  113OSM    H4G11770   0.902   0.790  10.043 -1.1918 -0.3632  2.2979
  113OSM    C5F11771   0.880   0.648   9.875  0.0205  0.3993  0.0298
  113OSM    H5F11772   0.782   0.691   9.845 -0.1485 -0.2281 -0.3571
  113OSM    H5G11773   0.861   0.538   9.879  1.7512  0.0840  0.0376
  113OSM    C6F11774   0.983   0.682   9.775 -0.8707  0.1166  0.8671
  113OSM    H6F11775   1.087   0.678   9.814 -0.4686 -0.1931 -0.1841
  113OSM    H6G11776   0.966   0.786   9.740 -0.8179  0.0959  0.7770
  113OSM    C7F11777   0.974   0.598   9.649 -0.0054  0.2326 -0.1227
  113OSM    H7F11778   0.869   0.596   9.614  0.1418  2.2728 -0.7995
  113OSM    H7G11779   0.986   0.494   9.687 -1.1309 -0.0664 -0.5491
  113OSM    C8F11780   1.075   0.620   9.535 -0.2712  0.6479  0.3619
  113OSM    H8F11781   1.175   0.634   9.580 -1.1955  1.7679  2.1735
  113OSM    H8G11782   1.037   0.713   9.487  1.1427  2.6542  2.9011
  113OSM    C9F11783   1.071   0.493   9.447 -0.2077 -0.3076 -0.1728
  113OSM    H9F11784   1.155   0.424   9.458  0.1505 -0.0797 -1.3431
  113OSM   C10F11785   1.002   0.484   9.332 -0.5349  0.1711  0.4876
  113OSM   H10F11786   1.013   0.398   9.264 -0.4876  0.5321  0.0311
  113OSM   C11F11787   0.896   0.579   9.278  0.0497  0.1123 -0.1280
  113OSM   H11F11788   0.869   0.652   9.357 -0.3855 -0.6391  0.4265
  113OSM   H11G11789   0.809   0.517   9.249  0.4580 -0.1827 -0.7423
  113OSM   C12F11790   0.938   0.650   9.152  0.1972 -0.0926  0.8076
  113OSM   H12F11791   1.032   0.707   9.167 -0.7448  1.1100  2.4690
  113OSM   H12G11792   0.863   0.730   9.134  1.4242  0.7799 -0.6721
  113OSM   C13F11793   0.944   0.560   9.026 -0.8939 -0.1880 -0.1161
  113OSM   H13F11794   0.847   0.520   8.991 -1.4052  0.1716  0.8513
  113OSM   H13G11795   1.000   0.465   9.039 -0.1769  0.1614 -0.5961
  113OSM   C14F11796   1.017   0.638   8.911  0.2716 -0.2596  0.0263
  113OSM   H14F11797   1.127   0.628   8.923  0.0152 -2.1616  1.2598
  113OSM   H14G11798   0.995   0.747   8.911 -1.0114 -0.4389 -2.4477
  113OSM   C15F11799   0.964   0.588   8.778  0.0986  0.6566  0.5545
  113OSM   H15F11800   0.996   0.650   8.692  2.5007 -0.2671  0.7229
  113OSM   H15G11801   0.853   0.590   8.774 -0.0339 -2.6858 -1.6033
  113OSM   C16F11802   1.012   0.448   8.743 -0.1331 -0.4993  0.1448
  113OSM   H16F11803   0.975   0.370   8.812  0.8377 -1.0725  0.0315
  113OSM   H16G11804   1.120   0.454   8.766 -0.2634  2.4888  0.4491
  113OSM   C17F11805   0.988   0.426   8.593  0.2738  0.6590 -0.7100
  113OSM   H17F11806   1.036   0.331   8.562 -1.7550 -0.4156 -0.6971
  113OSM   H17G11807   1.046   0.504   8.539 -0.2516  2.3286  0.9904
  113OSM   C18F11808   0.846   0.413   8.544  0.3803  0.0494 -0.2227
  113OSM   H18F11809   0.835   0.404   8.434 -0.2032  0.0291 -0.1639
  113OSM   H18G11810   0.785   0.501   8.574 -2.5139 -1.7265 -0.6066
  113OSM   H18H11811   0.784   0.327   8.576  0.6169  0.4073  1.3127
  114OSM      N11812   3.962   3.223  11.257  0.1508 -0.1313 -0.4921
  114OSM    C1511813   3.881   3.290  11.357  0.4538  0.7085  0.0125
  114OSM   H15A11814   3.860   3.392  11.329 -1.8906 -0.0549 -1.2676
  114OSM   H15B11815   3.930   3.295  11.453  2.6989 -0.6151 -0.9779
  114OSM   H15C11816   3.780   3.254  11.367  0.3626  0.9601 -0.0098
  114OSM    C1411817   4.103   3.264  11.284  0.1066  0.3110  0.3797
  114OSM   H14A11818   4.130   3.258  11.388  0.2077  1.2003  0.4142
  114OSM   H14B11819   4.118   3.367  11.255  2.0037 -0.2082 -0.5973
  114OSM   H14C11820   4.167   3.198  11.228 -0.1392  0.3575  0.0393
  114OSM    C1311821   3.954   3.074  11.268  0.6705  0.4185 -0.3623
  114OSM   H13A11822   3.859   3.041  11.228 -0.3062 -2.3559  3.6479
  114OSM   H13B11823   3.949   3.056  11.374  2.8753 -1.3064 -0.4766
  114OSM   H13C11824   4.032   3.016  11.220 -0.3150 -0.7343 -0.6183
  114OSM    C1211825   3.920   3.273  11.121 -0.3547 -0.2926  0.2532
  114OSM   H12A11826   3.821   3.239  11.097 -0.7116 -0.2490  1.6106
  114OSM   H12B11827   3.987   3.232  11.046 -0.4317 -2.4072  1.2698
  114OSM    C1111828   3.912   3.435  11.099  0.0186 -0.4603  0.0361
  114OSM   H11A11829   3.900   3.454  10.990  0.6119  0.3968  0.1070
  114OSM   H11B11830   4.006   3.486  11.130 -0.9336  1.7955 -0.5600
  114OSM      P11831   3.760   3.632  11.181  0.3830  0.1949 -0.1408
  114OSM    O1311832   3.621   3.654  11.238 -0.3453  0.0752  0.3165
  114OSM    O1411833   3.866   3.712  11.237 -0.5302  0.3945  0.1730
  114OSM    O1111834   3.754   3.653  11.025  0.0334 -0.4579 -0.1630
  114OSM    O1211835   3.788   3.472  11.169 -0.3923 -0.7743 -0.2832
  114OSM    C1S11836   3.736   3.781  10.958 -0.2543  0.0552 -0.2219
  114OSM    H1S11837   3.827   3.844  10.966 -1.5779  2.0881 -0.4052
  114OSM    H1T11838   3.658   3.839  11.013 -1.1513 -1.7637  0.5259
  114OSM     NF11839   3.704   3.899  10.747  0.0235 -0.1982 -0.6341
  114OSM    HNF11840   3.620   3.948  10.723  0.9223  0.8282 -1.7588
  114OSM    C2S11841   3.688   3.769  10.812 -0.0102 -0.2221 -0.0495
  114OSM    H2S11842   3.760   3.695  10.770 -0.8004 -0.4477 -1.0140
  114OSM    C3S11843   3.547   3.698  10.802  0.8623  0.0707 -1.1715
  114OSM    H3S11844   3.471   3.772  10.834  0.2041 -0.3763 -1.6795
  114OSM     O311845   3.531   3.587  10.883 -0.5909  0.5797 -0.0878
  114OSM    HO311846   3.598   3.595  10.950 -0.4634 -1.3411  0.0748
  114OSM    C4S11847   3.522   3.663  10.662 -0.3718 -0.2633  0.3248
  114OSM    H4S11848   3.614   3.630  10.612  0.9702  3.1191  0.3000
  114OSM    C5S11849   3.404   3.667  10.593  0.4680  0.5682  0.8624
  114OSM    H5S11850   3.311   3.695  10.643 -0.4600  1.7006 -1.3617
  114OSM    C6S11851   3.386   3.627  10.447 -0.3435  1.1535 -0.3293
  114OSM    H6S11852   3.310   3.546  10.448  0.1329  0.6674  1.7049
  114OSM    H6T11853   3.477   3.575  10.411 -0.5453  0.1050  0.5997
  114OSM    C7S11854   3.339   3.746  10.362  0.0025  0.0297 -0.3266
  114OSM    H7S11855   3.329   3.714  10.256 -0.7355  1.7271 -0.7971
  114OSM    H7T11856   3.412   3.830  10.357  1.3516 -1.0481  0.4977
  114OSM    C8S11857   3.196   3.800  10.395 -1.2505  0.1515 -0.1720
  114OSM    H8S11858   3.184   3.896  10.340  0.8411  0.5001 -0.1098
  114OSM    H8T11859   3.193   3.831  10.501 -0.3949 -1.1753  0.2665
  114OSM    C9S11860   3.092   3.698  10.348  0.1728  1.5885 -0.1659
  114OSM    H9S11861   2.999   3.724  10.401  0.0102 -0.2999  0.5558
  114OSM    H9T11862   3.109   3.596  10.389 -0.6326  0.3305 -2.7362
  114OSM   C10S11863   3.070   3.683  10.193 -0.7620  0.9546  0.1664
  114OSM   H10S11864   2.995   3.602  10.181  1.3046 -1.3473  1.7128
  114OSM   H10T11865   3.161   3.652  10.137 -2.2179 -2.6479 -0.4421
  114OSM   C11S11866   3.017   3.812  10.128  0.0184 -0.4902  0.1828
  114OSM   H11S11867   3.101   3.884  10.120  0.1262 -0.3891  1.8700
  114OSM   H11T11868   2.961   3.855  10.214  0.3096 -1.5544  0.9316
  114OSM   C12S11869   2.954   3.797   9.991  0.2301 -0.0196  0.5834
  114OSM   H12S11870   2.901   3.891   9.965  0.0614 -0.1638  0.3951
  114OSM   H12T11871   2.878   3.715   9.995  0.9353 -0.8341 -1.3808
  114OSM   C13S11872   3.059   3.750   9.885 -1.1871  0.2088 -0.3063
  114OSM   H13S11873   3.091   3.648   9.917  1.7046  1.5390  1.5825
  114OSM   H13T11874   3.150   3.814   9.884 -1.6549  0.9163  0.4540
  114OSM   C14S11875   3.012   3.737   9.741  0.6931 -0.0797  0.0083
  114OSM   H14S11876   3.092   3.735   9.663  0.9216 -0.2718  0.2453
  114OSM   H14T11877   2.951   3.826   9.716 -0.2149 -0.7176 -0.0765
  114OSM   C15S11878   2.923   3.607   9.720  0.1584 -0.3476  0.0264
  114OSM   H15S11879   2.843   3.608   9.796  0.3282 -0.1850  0.2038
  114OSM   H15T11880   2.998   3.531   9.751  1.6540  0.0232 -2.3801
  114OSM   C16S11881   2.869   3.579   9.575 -0.5298  0.3662  0.4167
  114OSM   H16S11882   2.774   3.636   9.567 -0.6984  0.2761  1.5198
  114OSM   H16T11883   2.831   3.475   9.567 -3.2372  1.3437 -0.4413
  114OSM   C17S11884   2.959   3.605   9.466 -0.5498  0.3054 -0.2983
  114OSM   H17S11885   3.053   3.555   9.495 -0.0453  1.8001  0.7501
  114OSM   H17T11886   2.987   3.713   9.467  0.1919  0.1110  0.4009
  114OSM   C18S11887   2.907   3.547   9.336  0.9493 -0.5180 -0.6781
  114OSM   H18S11888   2.981   3.562   9.254  0.6759 -2.1670 -1.2783
  114OSM   H18T11889   2.811   3.592   9.303  0.2254 -1.2141  0.4064
  114OSM   H18U11890   2.897   3.436   9.343 -3.3533 -0.3813 -2.0493
  114OSM    C1F11891   3.822   3.957  10.720 -0.5584  1.2081  0.8235
  114OSM     OF11892   3.928   3.913  10.769 -0.8368  0.1263  0.5474
  114OSM    C2F11893   3.813   4.073  10.635 -0.0290  0.1535  0.3523
  114OSM    H2F11894   3.858   4.165  10.678  1.4046  0.3987 -1.5500
  114OSM    H2G11895   3.709   4.088  10.599 -0.0405 -2.3649 -0.8982
  114OSM    C3F11896   3.895   4.066  10.501  0.4175  0.2319 -0.1804
  114OSM    H3F11897   3.856   3.995  10.426  1.3848  2.3606 -2.8858
  114OSM    H3G11898   4.002   4.047  10.525  0.4929  1.8251  0.9545
  114OSM    C4F11899   3.899   4.197  10.418  0.1676 -0.3104 -0.2289
  114OSM    H4F11900   3.973   4.268  10.461 -1.0512  2.7722 -2.7945
  114OSM    H4G11901   3.797   4.242  10.414 -0.7581 -2.0272  1.8405
  114OSM    C5F11902   3.945   4.178  10.268 -0.4729  0.2222  0.2119
  114OSM    H5F11903   3.874   4.099  10.237 -1.2313 -0.3393  3.0322
  114OSM    H5G11904   4.049   4.139  10.268 -0.4663  0.1661 -1.8694
  114OSM    C6F11905   3.932   4.305  10.178  0.0274  0.5103  0.5684
  114OSM    H6F11906   4.018   4.371  10.201  0.6495 -0.1672  0.2280
  114OSM    H6G11907   3.837   4.362  10.184 -0.1773  0.0944  1.6319
  114OSM    C7F11908   3.952   4.265  10.024  0.6448 -0.3430 -0.1186
  114OSM    H7F11909   4.023   4.181  10.029  0.9170 -0.2524 -1.9052
  114OSM    H7G11910   3.999   4.358   9.984  0.4931  0.3464  1.2424
  114OSM    C8F11911   3.826   4.245   9.946  0.0002  0.3421 -0.0663
  114OSM    H8F11912   3.746   4.321   9.963 -0.0555  0.1724  0.4505
  114OSM    H8G11913   3.778   4.155   9.989  1.9880 -0.0671  1.4196
  114OSM    C9F11914   3.863   4.222   9.803  0.1248 -0.6275 -0.3150
  114OSM    H9F11915   3.896   4.118   9.789 -0.0870 -1.0701  2.0837
  114OSM   C10F11916   3.862   4.316   9.708 -0.3410  0.4325  0.7725
  114OSM   H10F11917   3.871   4.285   9.603 -0.8475 -0.5978  1.0215
  114OSM   C11F11918   3.844   4.459   9.735 -0.0607  0.4193  0.1271
  114OSM   H11F11919   3.884   4.483   9.836  1.5642 -0.4672 -0.2803
  114OSM   H11G11920   3.737   4.480   9.715  0.1075  1.1835 -0.0350
  114OSM   C12F11921   3.923   4.545   9.634  0.0685 -0.4504  0.0990
  114OSM   H12F11922   3.890   4.523   9.530  0.5151  1.0556 -0.3871
  114OSM   H12G11923   4.032   4.523   9.640  0.3471  0.7197 -0.4107
  114OSM   C13F11924   3.910   4.697   9.662 -0.3397  0.8259  0.6454
  114OSM   H13F11925   3.957   4.719   9.761  2.1210  2.4021 -0.7778
  114OSM   H13G11926   3.800   4.714   9.665 -0.4648  0.1789 -0.1269
  114OSM   C14F11927   3.998   4.776   9.562  0.1744 -0.2924 -0.5889
  114OSM   H14F11928   3.956   4.748   9.463 -0.8947  2.3335 -0.9539
  114OSM   H14G11929   4.102   4.739   9.573  0.1581  0.0856  1.2627
  114OSM   C15F11930   4.003   4.926   9.589  1.2530  0.3448  0.4652
  114OSM   H15F11931   4.046   4.942   9.690  2.1935  0.6126  0.0349
  114OSM   H15G11932   3.896   4.954   9.585  1.0200 -0.6527 -0.9085
  114OSM   C16F11933   4.075   5.014   9.486 -0.1789 -0.6476  0.2479
  114OSM   H16F11934   4.185   5.011   9.500 -0.2276 -1.2910  0.5507
  114OSM   H16G11935   4.036   5.118   9.494 -0.8885 -0.8996  0.1536
  114OSM   C17F11936   4.035   4.983   9.340 -0.4927 -0.0333 -0.3425
  114OSM   H17F11937   3.926   4.963   9.334 -0.5672  0.6629 -1.8022
  114OSM   H17G11938   4.087   4.887   9.316  0.4517  0.5688 -0.7661
  114OSM   C18F11939   4.058   5.087   9.238 -0.8359 -0.4598  0.1476
  114OSM   H18F11940   4.007   5.073   9.141 -2.7651  1.6842  0.7811
  114OSM   H18G11941   4.167   5.096   9.221 -0.8064  1.0470  0.9486
  114OSM   H18H11942   4.034   5.188   9.277 -1.2057 -0.4327 -0.1435
  115OSM      N11943   2.790   3.491   5.757 -0.5268  0.9587 -0.4965
  115OSM    C1511944   2.795   3.634   5.715 -0.2801  0.1288 -0.2599
  115OSM   H15A11945   2.897   3.669   5.711  0.2446 -1.0684  1.2452
  115OSM   H15B11946   2.736   3.696   5.780 -0.9247  0.4835 -1.1661
  115OSM   H15C11947   2.772   3.637   5.609  0.0557  0.4797 -0.3245
  115OSM    C1411948   2.648   3.444   5.722 -0.4121 -0.3403  0.6283
  115OSM   H14A11949   2.581   3.525   5.745 -1.5892 -0.1813 -2.7556
  115OSM   H14B11950   2.631   3.348   5.769  0.7131 -0.3218  1.0955
  115OSM   H14C11951   2.639   3.420   5.617 -0.8650 -0.8101  0.7673
  115OSM    C1311952   2.884   3.407   5.685 -0.1278 -0.1843  0.7276
  115OSM   H13A11953   2.870   3.411   5.578  1.1633  0.4882  0.5618
  115OSM   H13B11954   2.874   3.305   5.717 -2.1704 -0.3999 -0.4383
  115OSM   H13C11955   2.984   3.444   5.701  0.2100 -0.1135 -1.2245
  115OSM    C1211956   2.816   3.487   5.906 -0.1831 -0.3237 -0.4768
  115OSM   H12A11957   2.769   3.570   5.956 -1.3556 -0.0304 -2.0104
  115OSM   H12B11958   2.920   3.506   5.928 -0.3012  1.7341 -1.5581
  115OSM    C1111959   2.788   3.351   5.970 -0.3270 -0.4578 -0.2191
  115OSM   H11A11960   2.832   3.267   5.911 -3.2242 -0.8753 -2.0037
  115OSM   H11B11961   2.679   3.332   5.978 -0.1597 -0.6022  4.2666
  115OSM      P11962   2.948   3.278   6.166 -0.5748  0.3532  0.7656
  115OSM    O1311963   2.962   3.151   6.090  0.1332  0.4334 -0.7787
  115OSM    O1411964   3.073   3.361   6.172  0.1352  0.0038 -0.1556
  115OSM    O1111965   2.893   3.248   6.312 -0.2504 -0.3207 -0.4063
  115OSM    O1211966   2.840   3.365   6.098 -0.2366 -0.2968  0.0609
  115OSM    C1S11967   2.912   3.342   6.418  0.1644  0.0466 -0.1463
  115OSM    H1S11968   2.840   3.425   6.402 -0.5283 -0.7953 -1.6221
  115OSM    H1T11969   3.014   3.386   6.416  1.6156 -3.0304  1.0641
  115OSM     NF11970   2.910   3.373   6.673 -0.3150  0.3984  0.4283
  115OSM    HNF11971   2.990   3.374   6.732 -0.3090  0.4912  0.4193
  115OSM    C2S11972   2.900   3.273   6.560 -0.1054  0.5297  0.2856
  115OSM    H2S11973   2.809   3.209   6.553 -1.0609  2.0012 -1.8889
  115OSM    C3S11974   3.009   3.160   6.571 -0.3718  0.0053 -0.1239
  115OSM    H3S11975   3.109   3.199   6.543 -0.8601 -0.1554 -2.2228
  115OSM     O311976   2.990   3.049   6.482  0.2039  0.3947  0.9570
  115OSM    HO311977   2.908   3.065   6.435  0.5162 -2.0508 -0.5753
  115OSM    C4S11978   3.011   3.099   6.707  0.1677  0.3557  0.3640
  115OSM    H4S11979   2.939   3.018   6.727 -1.7509  1.4654 -1.6494
  115OSM    C5S11980   3.102   3.133   6.798 -0.0710 -0.7737  0.2567
  115OSM    H5S11981   3.174   3.212   6.778 -0.2127 -0.3974  1.1623
  115OSM    C6S11982   3.101   3.067   6.933 -0.8483  0.0002 -0.2699
  115OSM    H6S11983   3.126   2.959   6.924 -0.3212 -0.0460  1.4500
  115OSM    H6T11984   3.004   3.100   6.977 -1.0926 -0.2323 -0.6338
  115OSM    C7S11985   3.195   3.137   7.032 -0.3140  0.3378  0.5161
  115OSM    H7S11986   3.200   3.248   7.023 -1.5246  0.6456  2.7924
  115OSM    H7T11987   3.299   3.102   7.011 -0.0580  1.1193  0.4450
  115OSM    C8S11988   3.151   3.104   7.173  0.1091  0.0362 -0.0509
  115OSM    H8S11989   3.156   2.993   7.186  1.0602  0.0530 -0.2066
  115OSM    H8T11990   3.049   3.139   7.198  0.5226  0.6487  0.7963
  115OSM    C9S11991   3.240   3.174   7.279 -0.2784  0.2267 -0.4692
  115OSM    H9S11992   3.219   3.283   7.288  1.0441  0.4084  0.8009
  115OSM    H9T11993   3.346   3.172   7.247 -0.2649  2.7701 -0.8531
  115OSM   C10S11994   3.231   3.106   7.407 -0.1232  0.6960  0.8832
  115OSM   H10S11995   3.296   3.016   7.399 -1.7377 -0.4344 -0.3571
  115OSM   H10T11996   3.127   3.070   7.425  0.5006 -1.0431  1.1937
  115OSM   C11S11997   3.278   3.190   7.529 -0.2135  0.5069  0.0245
  115OSM   H11S11998   3.209   3.278   7.532 -2.4198 -1.1611  2.0986
  115OSM   H11T11999   3.383   3.212   7.501 -1.0135  1.4023 -2.4797
  115OSM   C12S12000   3.257   3.123   7.667 -0.0531  0.2506 -0.2566
  115OSM   H12S12001   3.303   3.022   7.677 -0.4652 -0.0649 -1.3269
  115OSM   H12T12002   3.149   3.116   7.694  0.5010 -0.8644  1.8581
  115OSM   C13S12003   3.332   3.201   7.777 -0.1073 -0.6657  0.8007
  115OSM   H13S12004   3.281   3.299   7.792  0.5985 -0.1290 -0.1832
  115OSM   H13T12005   3.434   3.219   7.739 -0.5853 -0.0234 -0.2165
  115OSM   C14S12006   3.345   3.129   7.903  0.0376  0.2140  0.5018
  115OSM   H14S12007   3.398   3.208   7.961  1.5115 -0.1186 -0.3186
  115OSM   H14T12008   3.404   3.036   7.918 -1.5215 -0.4901  2.8661
  115OSM   C15S12009   3.208   3.089   7.964  0.2569 -1.0497 -0.2178
  115OSM   H15S12010   3.147   3.029   7.893 -1.1420 -1.7430  1.5038
  115OSM   H15T12011   3.151   3.183   7.976 -0.0543 -1.4044  1.2767
  115OSM   C16S12012   3.215   3.038   8.111  0.2590 -0.1882 -0.3416
  115OSM   H16S12013   3.111   3.017   8.144  1.3788 -1.8390  2.4759
  115OSM   H16T12014   3.256   3.121   8.171 -0.7255  0.3109 -0.3369
  115OSM   C17S12015   3.295   2.909   8.135 -0.4448 -0.3226 -0.2287
  115OSM   H17S12016   3.403   2.920   8.112 -0.3261  0.2317  0.5514
  115OSM   H17T12017   3.251   2.831   8.069 -0.9869 -0.2702  0.0655
  115OSM   C18S12018   3.289   2.854   8.283 -1.2140 -0.5215  0.3763
  115OSM   H18S12019   3.358   2.916   8.345 -0.3356 -1.0472 -0.0538
  115OSM   H18T12020   3.322   2.748   8.293  0.7889  0.0641  0.4554
  115OSM   H18U12021   3.189   2.877   8.325 -1.1969 -1.2625  0.8381
  115OSM    C1F12022   2.825   3.468   6.679 -0.2511  0.3108  0.4257
  115OSM     OF12023   2.716   3.444   6.628 -0.3990 -0.1670  0.4474
  115OSM    C2F12024   2.854   3.598   6.752  0.5147  0.4390  0.1137
  115OSM    H2F12025   2.783   3.678   6.721 -0.3920  0.6205  2.3987
  115OSM    H2G12026   2.959   3.632   6.738  1.4652 -1.0841  2.7726
  115OSM    C3F12027   2.839   3.576   6.901  0.4231  0.1869  0.2064
  115OSM    H3F12028   2.920   3.508   6.935 -2.4254 -2.9143  1.1850
  115OSM    H3G12029   2.753   3.515   6.933  1.4255 -1.2758  0.1912
  115OSM    C4F12030   2.852   3.714   6.978  0.3034  0.3020 -0.8537
  115OSM    H4F12031   2.757   3.772   6.979 -0.0175 -0.2212 -0.5960
  115OSM    H4G12032   2.929   3.774   6.927  0.3207 -1.1511 -2.6615
  115OSM    C5F12033   2.902   3.688   7.117 -0.0594 -0.6663  0.2114
  115OSM    H5F12034   3.009   3.658   7.118 -0.1068 -1.0287 -1.6139
  115OSM    H5G12035   2.842   3.602   7.153  1.9752 -2.8480 -1.2742
  115OSM    C6F12036   2.879   3.808   7.203 -1.4024  0.8598  0.5393
  115OSM    H6F12037   2.771   3.835   7.199 -1.2118  1.4883 -2.1127
  115OSM    H6G12038   2.931   3.891   7.151  0.1566 -1.1532 -1.2908
  115OSM    C7F12039   2.941   3.792   7.338 -0.4864 -0.2592 -0.1183
  115OSM    H7F12040   3.046   3.763   7.317 -0.0744  1.8907 -1.2755
  115OSM    H7G12041   2.888   3.711   7.393 -1.1389  1.0950  1.3265
  115OSM    C8F12042   2.946   3.928   7.414  0.7077  0.0063  0.7238
  115OSM    H8F12043   2.856   3.990   7.396  0.7576  0.7969  2.9248
  115OSM    H8G12044   3.026   3.982   7.359  0.2766 -0.9846 -0.9637
  115OSM    C9F12045   2.968   3.918   7.557  0.0767  0.4434  0.0742
  115OSM    H9F12046   3.073   3.940   7.580  0.8104  0.7247 -3.0867
  115OSM   C10F12047   2.877   3.882   7.650  0.0991  0.6534  0.2160
  115OSM   H10F12048   2.912   3.885   7.754 -0.4761  1.1508  0.4008
  115OSM   C11F12049   2.730   3.846   7.614 -0.7369  0.2131 -0.2861
  115OSM   H11F12050   2.743   3.744   7.572  0.0899  0.3682 -0.4316
  115OSM   H11G12051   2.700   3.911   7.529  1.9951 -0.2394 -1.7134
  115OSM   C12F12052   2.633   3.852   7.736 -0.0922  0.0127  0.4757
  115OSM   H12F12053   2.540   3.889   7.688 -1.0637 -0.9554  1.5517
  115OSM   H12G12054   2.675   3.918   7.815 -0.2163  1.4065 -0.5748
  115OSM   C13F12055   2.601   3.719   7.797  0.2075  0.5438  0.2122
  115OSM   H13F12056   2.697   3.685   7.839 -0.0920  0.3451  0.7480
  115OSM   H13G12057   2.579   3.653   7.711 -0.2937  1.2720 -0.2340
  115OSM   C14F12058   2.480   3.729   7.896 -0.4441  0.1745  0.0111
  115OSM   H14F12059   2.393   3.784   7.853  0.4518  0.8455 -0.9867
  115OSM   H14G12060   2.510   3.790   7.984 -1.1654  0.3748  0.1314
  115OSM   C15F12061   2.427   3.597   7.940  0.0608 -0.1812 -0.1785
  115OSM   H15F12062   2.489   3.556   8.022 -1.9141 -0.2624  1.3412
  115OSM   H15G12063   2.450   3.526   7.857  2.6498  0.3003  0.0280
  115OSM   C16F12064   2.278   3.596   7.974 -0.3076 -1.2603 -0.1740
  115OSM   H16F12065   2.241   3.495   8.003 -0.6444 -0.5401  2.1374
  115OSM   H16G12066   2.217   3.634   7.889 -0.5200 -1.8234 -0.2773
  115OSM   C17F12067   2.264   3.695   8.095  0.1624  0.7069 -0.8559
  115OSM   H17F12068   2.266   3.800   8.058  0.9501  0.2533 -2.1483
  115OSM   H17G12069   2.342   3.677   8.172 -0.4030  0.3507 -0.3453
  115OSM   C18F12070   2.132   3.679   8.167 -0.2091 -0.3563  0.2450
  115OSM   H18F12071   2.126   3.579   8.215 -2.6931 -1.7251 -2.5734
  115OSM   H18G12072   2.053   3.679   8.089  0.0548 -2.5516 -0.0833
  115OSM   H18H12073   2.096   3.760   8.234  0.4112 -1.7058  2.3195
  116OSM      N12074   2.793   0.777   6.164  0.3456 -0.0416 -0.4804
  116OSM    C1512075   2.659   0.791   6.092 -0.4606 -0.2833 -0.1557
  116OSM   H15A12076   2.614   0.694   6.074 -2.5787 -0.0588  3.1054
  116OSM   H15B12077   2.669   0.845   6.000 -1.4695 -1.4785 -1.0007
  116OSM   H15C12078   2.590   0.840   6.159 -0.7653 -3.7347  2.3531
  116OSM    C1412079   2.883   0.697   6.076  0.3146  0.1905  0.0589
  116OSM   H14A12080   2.894   0.738   5.976 -0.5258 -0.9728 -0.5276
  116OSM   H14B12081   2.843   0.598   6.060 -0.4619  0.3976  0.6865
  116OSM   H14C12082   2.973   0.674   6.131 -0.7351 -0.9836  1.3470
  116OSM    C1312083   2.855   0.916   6.196 -0.4755 -0.2598 -0.2754
  116OSM   H13A12084   2.943   0.897   6.256 -1.9254 -0.8943  1.7704
  116OSM   H13B12085   2.793   0.984   6.251  3.9033  2.6414  1.5737
  116OSM   H13C12086   2.875   0.968   6.103 -0.6610  1.2704  0.5196
  116OSM    C1212087   2.762   0.706   6.294  0.1790 -0.3147 -0.8271
  116OSM   H12A12088   2.858   0.685   6.339  0.9351 -0.6875 -2.5144
  116OSM   H12B12089   2.715   0.612   6.268  1.2706 -1.1519  0.1222
  116OSM    C1112090   2.668   0.771   6.397  0.1954  0.2357  0.2471
  116OSM   H11A12091   2.731   0.853   6.438  1.6121  0.1049 -1.5332
  116OSM   H11B12092   2.664   0.697   6.481  0.3049  1.2128  1.1337
  116OSM      P12093   2.407   0.748   6.397  0.5412 -0.0165  0.2192
  116OSM    O1312094   2.291   0.840   6.367 -0.6480  0.4368  0.3956
  116OSM    O1412095   2.405   0.602   6.360 -0.3181  0.2589  0.0938
  116OSM    O1112096   2.419   0.755   6.553 -0.3411  0.2738 -0.2004
  116OSM    O1212097   2.538   0.809   6.347 -0.3298 -0.5144 -0.2327
  116OSM    C1S12098   2.457   0.867   6.626 -0.5452 -0.1374  0.2588
  116OSM    H1S12099   2.400   0.959   6.602 -1.6205 -0.7981  0.2376
  116OSM    H1T12100   2.564   0.890   6.606 -0.3506 -1.1953 -0.0295
  116OSM     NF12101   2.510   0.944   6.853  0.2287  0.8033 -0.0368
  116OSM    HNF12102   2.605   0.965   6.875  0.3308  1.2185 -0.8438
  116OSM    C2S12103   2.471   0.829   6.778 -0.8147 -0.1075  0.2591
  116OSM    H2S12104   2.371   0.792   6.809 -1.4835  0.4378 -1.1344
  116OSM    C3S12105   2.564   0.701   6.789  0.1319  0.2770 -0.2617
  116OSM    H3S12106   2.663   0.730   6.749 -0.0906 -0.1584 -1.1552
  116OSM     O312107   2.515   0.586   6.716 -0.3079  0.0625  0.6081
  116OSM    HO312108   2.453   0.618   6.651 -1.0236 -2.3172  0.0217
  116OSM    C4S12109   2.570   0.658   6.931  0.2613 -0.1724 -0.5130
  116OSM    H4S12110   2.664   0.684   6.981 -0.1354  0.4728 -0.0940
  116OSM    C5S12111   2.470   0.600   7.008  0.2007 -0.3128 -0.4067
  116OSM    H5S12112   2.370   0.584   6.966 -0.5594  0.5886  0.9726
  116OSM    C6S12113   2.483   0.549   7.148 -0.3246 -0.4794 -0.1571
  116OSM    H6S12114   2.430   0.451   7.157  0.0973 -0.5944  1.2321
  116OSM    H6T12115   2.424   0.618   7.212  0.2755  0.9905 -1.1551
  116OSM    C7S12116   2.631   0.551   7.202  0.8479 -0.4078  0.1117
  116OSM    H7S12117   2.662   0.657   7.191 -0.5387  0.5134  3.5861
  116OSM    H7T12118   2.702   0.490   7.143  0.9168 -0.3575  0.1431
  116OSM    C8S12119   2.636   0.496   7.342 -0.2121  0.1230 -0.5520
  116OSM    H8S12120   2.575   0.404   7.352 -0.7690  0.6775  1.7952
  116OSM    H8T12121   2.588   0.569   7.410 -2.2385 -0.9428 -0.7767
  116OSM    C9S12122   2.779   0.468   7.389  0.4672 -0.2016  0.7942
  116OSM    H9S12123   2.832   0.565   7.372  0.0693  0.0310  0.8825
  116OSM    H9T12124   2.833   0.396   7.323 -1.6250  0.3774 -1.7212
  116OSM   C10S12125   2.798   0.432   7.539  0.4623  0.1643 -0.7549
  116OSM   H10S12126   2.734   0.341   7.550 -1.3968  1.2772 -1.7545
  116OSM   H10T12127   2.747   0.510   7.600  0.0530 -0.3337 -0.4516
  116OSM   C11S12128   2.942   0.422   7.581 -0.0698  0.3221  0.2144
  116OSM   H11S12129   2.993   0.516   7.551 -1.2679  0.5741 -1.1179
  116OSM   H11T12130   3.004   0.345   7.531  1.1253  0.4101  1.4937
  116OSM   C12S12131   2.967   0.386   7.728  0.1726  0.6336 -0.3041
  116OSM   H12S12132   2.922   0.290   7.761  0.5881  0.5243 -0.0550
  116OSM   H12T12133   2.914   0.466   7.784 -0.3462  0.1626 -0.1110
  116OSM   C13S12134   3.114   0.398   7.765 -0.7371  0.5100 -0.2712
  116OSM   H13S12135   3.163   0.477   7.706  0.6661 -1.0208 -1.2376
  116OSM   H13T12136   3.162   0.304   7.730 -1.4808  0.3126 -0.8047
  116OSM   C14S12137   3.130   0.424   7.923  0.4026 -0.0836  0.0743
  116OSM   H14S12138   3.084   0.522   7.947  2.4425  0.9736 -0.0958
  116OSM   H14T12139   3.239   0.439   7.943  0.8847 -1.6646 -1.1092
  116OSM   C15S12140   3.081   0.313   8.014  1.0766  0.6937 -0.1482
  116OSM   H15S12141   3.120   0.220   7.967  0.1539  0.1925  0.0571
  116OSM   H15T12142   2.972   0.298   7.997  0.9833  0.4868  0.5954
  116OSM   C16S12143   3.093   0.325   8.169 -0.5057 -0.2553  1.2453
  116OSM   H16S12144   3.192   0.369   8.191 -1.2072  1.9330  0.2729
  116OSM   H16T12145   3.074   0.225   8.215  0.5593 -0.3574  1.5005
  116OSM   C17S12146   3.003   0.426   8.241 -0.2057  0.5374  0.0742
  116OSM   H17S12147   2.952   0.374   8.326 -0.2670 -1.8051 -1.3161
  116OSM   H17T12148   2.913   0.448   8.180 -0.7399 -1.5406  0.0523
  116OSM   C18S12149   3.065   0.555   8.295 -0.3839  0.3435 -0.2237
  116OSM   H18S12150   3.127   0.546   8.386 -0.9864  0.5061  0.2125
  116OSM   H18T12151   2.972   0.612   8.314 -0.2602  0.4051  0.1898
  116OSM   H18U12152   3.129   0.613   8.225  0.0464 -2.3532 -2.2521
  116OSM    C1F12153   2.423   1.039   6.884  0.6289  0.0771  0.2423
  116OSM     OF12154   2.303   1.024   6.849 -0.5481 -0.2294 -0.1401
  116OSM    C2F12155   2.463   1.159   6.971  1.2010  0.1612  0.1502
  116OSM    H2F12156   2.371   1.216   6.999 -0.4529 -2.2523 -0.0092
  116OSM    H2G12157   2.529   1.226   6.914  0.1305  0.7122 -0.4798
  116OSM    C3F12158   2.533   1.122   7.109 -0.1912  0.7513  1.1414
  116OSM    H3F12159   2.569   1.219   7.148 -0.3310  2.3518 -2.3669
  116OSM    H3G12160   2.625   1.062   7.095 -0.0163  1.2369  0.1302
  116OSM    C4F12161   2.458   1.051   7.221 -0.3313 -0.2065 -0.1560
  116OSM    H4F12162   2.433   0.950   7.182  0.6195 -0.7067  0.4951
  116OSM    H4G12163   2.367   1.103   7.260  1.1465 -0.1378  3.5805
  116OSM    C5F12164   2.530   1.047   7.360 -0.4289  0.1166 -0.6672
  116OSM    H5F12165   2.544   1.153   7.388 -0.7503  0.5036 -1.8970
  116OSM    H5G12166   2.629   0.998   7.345 -1.2202 -1.6900 -0.2447
  116OSM    C6F12167   2.446   0.969   7.459 -0.2449 -0.1234 -0.1510
  116OSM    H6F12168   2.451   0.869   7.411  0.5015 -0.6536  0.9853
  116OSM    H6G12169   2.345   1.015   7.469  0.1248  0.6759 -0.0042
  116OSM    C7F12170   2.511   0.966   7.605  0.3273  0.7118  0.4291
  116OSM    H7F12171   2.513   1.068   7.649  2.0276  0.2007  1.6322
  116OSM    H7G12172   2.618   0.939   7.596  0.4511  0.9166  1.2258
  116OSM    C8F12173   2.441   0.871   7.706 -0.5521  0.2579 -0.3342
  116OSM    H8F12174   2.434   0.768   7.665  3.0571 -1.4066  2.6379
  116OSM    H8G12175   2.334   0.899   7.714 -0.5432 -0.1609  2.0294
  116OSM    C9F12176   2.506   0.865   7.841 -0.3015  0.5068  0.5684
  116OSM    H9F12177   2.518   0.959   7.897 -1.6097  1.4839 -0.7403
  116OSM   C10F12178   2.560   0.751   7.892 -1.3810  0.0858 -0.2073
  116OSM   H10F12179   2.608   0.754   7.990 -0.0432  2.6644 -0.8578
  116OSM   C11F12180   2.568   0.619   7.824  0.5945  0.6677  0.3081
  116OSM   H11F12181   2.614   0.629   7.724  1.8344  1.9090  0.9667
  116OSM   H11G12182   2.460   0.599   7.813  0.7054 -0.0447  0.4572
  116OSM   C12F12183   2.630   0.500   7.910 -0.2584  0.1487 -0.4792
  116OSM   H12F12184   2.723   0.523   7.966  0.2991  1.3093 -1.8187
  116OSM   H12G12185   2.670   0.419   7.845 -0.7160  0.6711 -1.4449
  116OSM   C13F12186   2.522   0.457   8.013  0.0878  0.5880  0.6268
  116OSM   H13F12187   2.452   0.408   7.943 -0.6692  2.0468  0.3263
  116OSM   H13G12188   2.478   0.553   8.045 -3.3569 -0.2708 -1.0733
  116OSM   C14F12189   2.587   0.372   8.120  0.1503 -0.8709 -0.2051
  116OSM   H14F12190   2.645   0.435   8.191  0.2482  0.1553 -1.1693
  116OSM   H14G12191   2.661   0.299   8.081  0.7194 -0.6512  0.4280
  116OSM   C15F12192   2.489   0.292   8.201 -0.5631 -0.0216  0.2302
  116OSM   H15F12193   2.415   0.263   8.123  0.1582  1.5091 -1.1021
  116OSM   H15G12194   2.427   0.345   8.276  0.0806 -0.2848  0.9589
  116OSM   C16F12195   2.545   0.166   8.266 -0.1976  0.5646 -0.4576
  116OSM   H16F12196   2.597   0.109   8.186  1.6071  0.7247  0.5517
  116OSM   H16G12197   2.473   0.097   8.316  1.8867 -0.2354  1.6175
  116OSM   C17F12198   2.653   0.202   8.371  0.7396 -0.5066 -0.4669
  116OSM   H17F12199   2.609   0.279   8.439  2.2480 -0.0672  0.0453
  116OSM   H17G12200   2.740   0.252   8.324  1.0449  0.3436  0.9346
  116OSM   C18F12201   2.689   0.090   8.459  0.2663  0.2150 -0.4552
  116OSM   H18F12202   2.761   0.119   8.538  1.7421 -1.3460 -1.1591
  116OSM   H18G12203   2.745   0.017   8.397  3.1591 -0.0328  2.2608
  116OSM   H18H12204   2.594   0.046   8.496 -2.4939  4.6914 -1.3467
  117OSM      N12205   1.370   6.444   6.384  0.2140  0.8159 -0.4214
  117OSM    C1512206   1.391   6.579   6.330  0.1120 -0.0184 -0.2179
  117OSM   H15A12207   1.303   6.638   6.310 -0.0778 -0.5829 -1.0949
  117OSM   H15B12208   1.438   6.578   6.232 -0.0523 -0.0970 -0.2959
  117OSM   H15C12209   1.444   6.640   6.402 -2.2746  2.5892 -0.5010
  117OSM    C1412210   1.278   6.447   6.496 -0.5141 -0.2533  0.0965
  117OSM   H14A12211   1.196   6.516   6.486 -0.1211  0.1907 -0.0933
  117OSM   H14B12212   1.330   6.482   6.584  0.2013 -0.0422 -0.3967
  117OSM   H14C12213   1.233   6.351   6.516 -2.7543  0.4634 -1.2098
  117OSM    C1312214   1.306   6.366   6.269 -0.0528  0.1242  0.0161
  117OSM   H13A12215   1.259   6.273   6.299  1.0009 -0.4897 -0.1873
  117OSM   H13B12216   1.378   6.357   6.189  1.3900  0.0525  1.2814
  117OSM   H13C12217   1.230   6.433   6.232  0.1316  0.9486  1.0593
  117OSM    C1212218   1.501   6.370   6.424  0.2776 -0.4249 -0.4566
  117OSM   H12A12219   1.566   6.363   6.339  1.2564  0.7174  0.1794
  117OSM   H12B12220   1.482   6.266   6.449 -0.2592 -0.8576 -2.4992
  117OSM    C1112221   1.573   6.426   6.544  0.2277 -0.3076 -0.2784
  117OSM   H11A12222   1.668   6.370   6.555  1.2294  0.9928 -1.9196
  117OSM   H11B12223   1.512   6.404   6.635  0.0199 -0.4545 -0.4540
  117OSM      P12224   1.722   6.616   6.466 -0.0954 -0.7018 -0.4178
  117OSM    O1312225   1.758   6.522   6.359 -0.2823  0.1913  0.3614
  117OSM    O1412226   1.710   6.755   6.421  0.0199 -0.6182 -0.5653
  117OSM    O1112227   1.825   6.608   6.579 -0.0849  0.2088 -0.0975
  117OSM    O1212228   1.591   6.565   6.526 -0.4402 -0.3806  0.5788
  117OSM    C1S12229   1.821   6.687   6.700  0.0895  0.4106 -0.2208
  117OSM    H1S12230   1.759   6.778   6.686 -0.4340 -0.0322 -0.8085
  117OSM    H1T12231   1.924   6.725   6.715 -0.3059  1.7267 -0.7083
  117OSM     NF12232   1.759   6.709   6.924  0.5330 -0.6721 -0.1862
  117OSM    HNF12233   1.832   6.702   6.992 -0.0976 -0.1552  0.5571
  117OSM    C2S12234   1.753   6.610   6.815 -0.2190 -0.6808 -0.9067
  117OSM    H2S12235   1.646   6.591   6.791 -0.1834 -0.0354 -1.6194
  117OSM    C3S12236   1.838   6.478   6.844  0.1987  0.4441  0.3985
  117OSM    H3S12237   1.936   6.514   6.883 -0.9716  2.3386  1.7454
  117OSM     O312238   1.873   6.389   6.741 -0.3151  0.5139  0.7538
  117OSM    HO312239   1.845   6.430   6.659 -1.5121 -1.4839  0.0736
  117OSM    C4S12240   1.766   6.409   6.961  0.0759 -0.1817 -0.4451
  117OSM    H4S12241   1.807   6.447   7.055  1.6115 -0.3814 -1.0022
  117OSM    C5S12242   1.672   6.310   6.957 -0.7179  0.0021  0.2488
  117OSM    H5S12243   1.625   6.280   6.862 -1.7931  1.0788  0.4192
  117OSM    C6S12244   1.613   6.244   7.076  0.2576  0.3526  0.0625
  117OSM    H6S12245   1.623   6.133   7.075  0.7814  0.4024 -0.8455
  117OSM    H6T12246   1.504   6.266   7.072  0.3895  0.9094 -0.7269
  117OSM    C7S12247   1.656   6.281   7.222  0.1068 -0.5865  0.2732
  117OSM    H7S12248   1.623   6.384   7.247 -2.4832 -0.5525 -2.6481
  117OSM    H7T12249   1.767   6.273   7.226  0.1760 -0.2814 -0.6704
  117OSM    C8S12250   1.598   6.189   7.334  0.0163  0.4287 -0.2455
  117OSM    H8S12251   1.624   6.087   7.299 -0.4820  0.2655 -0.1448
  117OSM    H8T12252   1.488   6.200   7.339  0.0191 -0.1759  2.2878
  117OSM    C9S12253   1.672   6.221   7.465 -0.2958  0.4580 -0.6814
  117OSM    H9S12254   1.682   6.331   7.466  0.8139  0.3741  0.0506
  117OSM    H9T12255   1.774   6.178   7.452 -0.1930  0.6723 -0.5769
  117OSM   C10S12256   1.611   6.156   7.597  0.0946 -0.6105  0.2793
  117OSM   H10S12257   1.618   6.046   7.589 -0.1806 -0.7134  1.2586
  117OSM   H10T12258   1.503   6.179   7.612 -0.6905 -1.8040 -2.8530
  117OSM   C11S12259   1.682   6.207   7.728 -0.5554 -0.1195 -0.3695
  117OSM   H11S12260   1.692   6.317   7.714  1.4543 -0.4665 -2.1191
  117OSM   H11T12261   1.785   6.165   7.735  0.8782  2.8543 -1.7487
  117OSM   C12S12262   1.617   6.154   7.853  0.1888 -0.4322  0.4499
  117OSM   H12S12263   1.667   6.058   7.877  1.1788  0.6109  2.9606
  117OSM   H12T12264   1.512   6.126   7.833  0.5641 -0.1861 -2.1991
  117OSM   C13S12265   1.635   6.244   7.971  0.0845 -0.0560  0.0589
  117OSM   H13S12266   1.561   6.327   7.967 -1.2110 -1.1893 -0.5868
  117OSM   H13T12267   1.739   6.282   7.978  0.5468 -1.2804  0.1919
  117OSM   C14S12268   1.611   6.170   8.106  0.8521 -0.0947  0.1401
  117OSM   H14S12269   1.660   6.070   8.110  1.7499  0.3539  0.6809
  117OSM   H14T12270   1.505   6.140   8.125  1.2820 -1.0786  1.1403
  117OSM   C15S12271   1.659   6.257   8.223 -0.4709  1.2017 -0.5460
  117OSM   H15S12272   1.594   6.346   8.210 -1.6289  0.0851 -2.8909
  117OSM   H15T12273   1.767   6.284   8.219 -0.5441  1.4959 -0.5622
  117OSM   C16S12274   1.623   6.204   8.361 -0.7718 -0.3312  0.1209
  117OSM   H16S12275   1.520   6.163   8.370 -0.5790 -0.4478  2.3254
  117OSM   H16T12276   1.614   6.282   8.439 -0.1841 -0.7726  0.6376
  117OSM   C17S12277   1.720   6.095   8.406  0.1974 -0.0375  0.0080
  117OSM   H17S12278   1.804   6.146   8.459 -0.6470  1.0893  0.2798
  117OSM   H17T12279   1.762   6.042   8.318  0.2006 -0.5347  0.2980
  117OSM   C18S12280   1.659   5.989   8.493  0.4791  0.1869 -0.0089
  117OSM   H18S12281   1.566   5.945   8.452  0.6249  0.3984 -0.5772
  117OSM   H18T12282   1.631   6.040   8.588  0.0857 -0.7281  0.3717
  117OSM   H18U12283   1.735   5.908   8.502  1.1221  0.5113 -1.9811
  117OSM    C1F12284   1.674   6.812   6.927  0.4381 -0.2772 -0.5467
  117OSM     OF12285   1.587   6.816   6.845  0.3644 -0.7477 -0.0145
  117OSM    C2F12286   1.699   6.922   7.024  0.3956 -0.1423  0.3658
  117OSM    H2F12287   1.705   7.020   6.971  0.8163  1.0789  2.5732
  117OSM    H2G12288   1.782   6.910   7.097  0.0466 -0.0083  0.7821
  117OSM    C3F12289   1.571   6.944   7.114 -0.3407 -0.3122 -0.1006
  117OSM    H3F12290   1.481   6.950   7.049 -0.3522 -2.2077 -0.3060
  117OSM    H3G12291   1.576   7.039   7.171  0.3499  0.8373 -1.9898
  117OSM    C4F12292   1.542   6.826   7.204 -0.5047 -0.7839 -0.0641
  117OSM    H4F12293   1.639   6.786   7.240  1.0753 -0.4630 -3.5861
  117OSM    H4G12294   1.507   6.744   7.138 -1.8271 -0.0460 -0.3165
  117OSM    C5F12295   1.454   6.863   7.325 -0.2951  0.3980  0.1227
  117OSM    H5F12296   1.357   6.882   7.274 -0.4288 -0.9176 -0.1546
  117OSM    H5G12297   1.499   6.954   7.371  2.2757 -0.6765 -0.0821
  117OSM    C6F12298   1.444   6.739   7.419 -0.3515 -0.1425  0.4151
  117OSM    H6F12299   1.541   6.697   7.452 -0.8084 -0.0498  1.9428
  117OSM    H6G12300   1.402   6.661   7.352  0.1177 -0.0574  0.0142
  117OSM    C7F12301   1.353   6.753   7.541  0.4199 -0.4484 -0.2845
  117OSM    H7F12302   1.257   6.785   7.496 -0.1481 -0.2095  1.0277
  117OSM    H7G12303   1.395   6.831   7.608  1.4383  0.7359 -2.2105
  117OSM    C8F12304   1.324   6.630   7.641 -0.0161 -0.7037 -0.0994
  117OSM    H8F12305   1.254   6.555   7.599  0.2804 -2.1962  1.9090
  117OSM    H8G12306   1.281   6.664   7.738  2.0485 -0.1878  0.6852
  117OSM    C9F12307   1.448   6.550   7.667  0.4008 -0.5224 -0.0282
  117OSM    H9F12308   1.449   6.455   7.612 -1.1136 -0.4453 -0.2330
  117OSM   C10F12309   1.553   6.574   7.751 -0.1125 -0.5046  0.0120
  117OSM   H10F12310   1.629   6.494   7.760 -1.3598 -2.1325 -2.5966
  117OSM   C11F12311   1.569   6.701   7.835  0.3070 -0.2378 -0.6228
  117OSM   H11F12312   1.483   6.769   7.819  0.7180  0.5350  0.3542
  117OSM   H11G12313   1.660   6.755   7.801  0.0161  1.2306  0.7823
  117OSM   C12F12314   1.568   6.661   7.986  0.1883  0.3183  0.1827
  117OSM   H12F12315   1.648   6.586   8.005  1.0755  1.7045  2.2549
  117OSM   H12G12316   1.466   6.630   8.020  0.2340  0.4649  0.4558
  117OSM   C13F12317   1.609   6.780   8.078  0.5342  0.4948 -0.1107
  117OSM   H13F12318   1.566   6.876   8.042 -0.1541 -0.1802 -1.1530
  117OSM   H13G12319   1.719   6.780   8.062  0.7840 -1.3650  1.2869
  117OSM   C14F12320   1.568   6.757   8.225 -0.2764  0.5710 -0.3534
  117OSM   H14F12321   1.629   6.675   8.270  0.2252 -0.2431 -2.4058
  117OSM   H14G12322   1.461   6.727   8.224 -0.2600  0.0921  2.3892
  117OSM   C15F12323   1.581   6.882   8.308  0.2484  0.3358 -0.0068
  117OSM   H15F12324   1.520   6.960   8.257 -1.6722 -1.9160 -1.3734
  117OSM   H15G12325   1.688   6.911   8.310  0.4320 -0.3792  0.8935
  117OSM   C16F12326   1.542   6.856   8.458  0.2294  0.6111  0.3393
  117OSM   H16F12327   1.620   6.790   8.502 -0.5594 -0.1232  0.6596
  117OSM   H16G12328   1.449   6.797   8.468  0.1301  0.8645  0.9162
  117OSM   C17F12329   1.539   6.983   8.538 -0.3217  0.2876 -0.1115
  117OSM   H17F12330   1.530   6.963   8.647  0.2569  0.4663 -0.0243
  117OSM   H17G12331   1.638   7.022   8.505 -2.1094  2.4768 -3.4464
  117OSM   C18F12332   1.426   7.075   8.498 -0.1857 -0.0097 -0.9318
  117OSM   H18F12333   1.419   7.096   8.389 -4.2781  0.6045 -0.7119
  117OSM   H18G12334   1.432   7.177   8.541 -2.2217 -1.1994  2.5472
  117OSM   H18H12335   1.332   7.034   8.540 -0.7206  3.3144  1.5436
  118OSM      N12336   5.166   1.476   6.239  0.5618 -0.4554  0.2293
  118OSM    C1512337   5.232   1.501   6.102 -0.6884 -0.6938 -0.2392
  118OSM   H15A12338   5.326   1.552   6.121 -0.5041 -0.9686 -0.3989
  118OSM   H15B12339   5.177   1.563   6.033 -1.2226 -1.0338 -0.1218
  118OSM   H15C12340   5.251   1.407   6.053 -0.5253 -0.9393  0.2764
  118OSM    C1412341   5.046   1.390   6.201 -0.5273 -0.5183 -0.1628
  118OSM   H14A12342   4.990   1.348   6.283  0.6350 -0.9852  0.4108
  118OSM   H14B12343   5.069   1.314   6.128 -1.5218 -1.5463  0.5454
  118OSM   H14C12344   4.975   1.446   6.142 -0.5181 -0.5149 -0.1706
  118OSM    C1312345   5.258   1.392   6.318  0.4748  0.1890  0.3851
  118OSM   H13A12346   5.220   1.365   6.415 -0.7572  0.3565 -0.0394
  118OSM   H13B12347   5.348   1.447   6.343 -0.5419  0.7691  3.1413
  118OSM   H13C12348   5.284   1.304   6.262 -2.1568 -0.1589 -0.3916
  118OSM    C1212349   5.128   1.593   6.314  0.1806 -0.1235 -0.2535
  118OSM   H12A12350   5.064   1.648   6.246  0.1026 -0.4910 -0.4768
  118OSM   H12B12351   5.212   1.658   6.335 -0.3172  0.5384 -0.2588
  118OSM    C1112352   5.044   1.573   6.445 -0.3911  0.5969 -0.6149
  118OSM   H11A12353   5.046   1.668   6.502  3.0945 -1.0399  2.3229
  118OSM   H11B12354   5.109   1.507   6.506  0.4049  1.1394 -0.8684
  118OSM      P12355   4.797   1.603   6.363  0.0639 -0.2905  0.1922
  118OSM    O1312356   4.824   1.672   6.234  0.3234 -0.0656  0.4873
  118OSM    O1412357   4.668   1.529   6.372  0.5480 -0.0335  0.3447
  118OSM    O1112358   4.808   1.711   6.479  0.7238 -0.4621 -0.2944
  118OSM    O1212359   4.919   1.520   6.410  0.5976  0.4705  0.1087
  118OSM    C1S12360   4.764   1.664   6.608  0.0357 -0.5843 -0.1351
  118OSM    H1S12361   4.781   1.555   6.618  2.2217 -0.1774  1.2449
  118OSM    H1T12362   4.655   1.680   6.617  0.5565  3.4761  1.0553
  118OSM     NF12363   4.791   1.677   6.850  0.3140  0.0114  0.4239
  118OSM    HNF12364   4.771   1.740   6.924 -0.2612 -0.0449  0.3157
  118OSM    C2S12365   4.850   1.719   6.727 -0.4009 -0.5878  0.1655
  118OSM    H2S12366   4.953   1.680   6.720  1.1340  2.7536  1.5266
  118OSM    C3S12367   4.860   1.869   6.723  0.4192 -0.4291 -0.2408
  118OSM    H3S12368   4.760   1.910   6.750 -0.8315 -2.0586 -2.0851
  118OSM     O312369   4.884   1.932   6.598 -0.3948 -0.1683 -0.5551
  118OSM    HO312370   4.884   1.858   6.537 -0.0171 -0.5140 -0.1327
  118OSM    C4S12371   4.951   1.914   6.835  0.2196 -0.4279 -0.0808
  118OSM    H4S12372   4.901   1.934   6.932  1.3292 -0.8975  0.6089
  118OSM    C5S12373   5.084   1.930   6.828  0.5066 -0.4806 -0.6550
  118OSM    H5S12374   5.134   1.906   6.732  2.4968 -0.6333  0.3635
  118OSM    C6S12375   5.174   1.970   6.940 -0.1692  0.1094 -0.3541
  118OSM    H6S12376   5.209   2.074   6.926 -1.4683  0.7816  1.0745
  118OSM    H6T12377   5.260   1.899   6.943  0.6873  1.1196 -0.3973
  118OSM    C7S12378   5.129   1.981   7.084  0.5651 -0.1156  0.2703
  118OSM    H7S12379   5.124   1.878   7.127 -0.4436 -0.1560  0.0784
  118OSM    H7T12380   5.026   2.023   7.084  1.4677  2.2127  0.7701
  118OSM    C8S12381   5.206   2.079   7.156  0.2622 -0.5099 -0.0400
  118OSM    H8S12382   5.161   2.178   7.131  0.5848 -0.5483 -0.7909
  118OSM    H8T12383   5.312   2.061   7.130  1.1219 -0.9102  3.2154
  118OSM    C9S12384   5.184   2.067   7.309 -0.1540  0.5094 -0.3217
  118OSM    H9S12385   5.216   1.967   7.345 -0.2710  0.4355 -0.4207
  118OSM    H9T12386   5.077   2.067   7.341 -0.6834  0.1873 -1.9842
  118OSM   C10S12387   5.259   2.182   7.381 -0.4322  0.2682  0.2130
  118OSM   H10S12388   5.222   2.281   7.346  0.0443 -0.2725 -2.0159
  118OSM   H10T12389   5.366   2.188   7.350 -0.1042 -1.5581  0.8428
  118OSM   C11S12390   5.267   2.166   7.527  0.4535  0.7449 -0.3101
  118OSM   H11S12391   5.282   2.057   7.541  1.4762  0.6151 -2.1015
  118OSM   H11T12392   5.172   2.202   7.572  1.3218  3.0468 -0.1884
  118OSM   C12S12393   5.385   2.247   7.576  0.5087 -0.3813 -0.8403
  118OSM   H12S12394   5.391   2.346   7.527 -1.1377 -1.3170 -3.0783
  118OSM   H12T12395   5.473   2.186   7.546  1.2466  0.5937 -0.7165
  118OSM   C13S12396   5.387   2.280   7.727  0.2432  1.0929  0.4815
  118OSM   H13S12397   5.288   2.325   7.750  0.0383  1.8592 -1.6219
  118OSM   H13T12398   5.468   2.354   7.743  0.2716  0.6932  2.3958
  118OSM   C14S12399   5.399   2.139   7.802  0.3189 -0.2559  0.1295
  118OSM   H14S12400   5.502   2.115   7.768  1.4274  2.2350  1.4437
  118OSM   H14T12401   5.328   2.068   7.754 -1.4509  1.3896  0.1458
  118OSM   C15S12402   5.396   2.144   7.953  0.7221  0.2830 -0.4964
  118OSM   H15S12403   5.384   2.038   7.984 -2.1828  0.7814  0.3950
  118OSM   H15T12404   5.309   2.210   7.973  0.0688 -0.1994 -1.6841
  118OSM   C16S12405   5.518   2.217   8.015  0.1273  0.9882 -0.4491
  118OSM   H16S12406   5.511   2.325   7.992  1.6416  0.8726 -1.5771
  118OSM   H16T12407   5.618   2.194   7.973  1.0387  5.5583 -1.2990
  118OSM   C17S12408   5.505   2.208   8.170  0.3702  0.2693 -0.0061
  118OSM   H17S12409   5.510   2.100   8.199 -2.3320  0.4329  1.4585
  118OSM   H17T12410   5.405   2.247   8.200  0.3596 -1.2910  2.2574
  118OSM   C18S12411   5.611   2.288   8.245 -0.3852  0.9615  0.7655
  118OSM   H18S12412   5.618   2.391   8.206  1.1612  0.9996  1.0871
  118OSM   H18T12413   5.708   2.241   8.217 -0.7941  0.5605 -0.0214
  118OSM   H18U12414   5.593   2.285   8.354 -1.5920 -1.3916  0.5804
  118OSM    C1F12415   4.752   1.547   6.882 -0.8306  0.0264  0.5243
  118OSM     OF12416   4.788   1.446   6.815  0.3696  0.7807  0.3112
  118OSM    C2F12417   4.659   1.535   6.997 -0.8111 -0.5620 -0.7992
  118OSM    H2F12418   4.561   1.500   6.959 -1.2485 -0.4656  0.2275
  118OSM    H2G12419   4.648   1.635   7.044  0.0802 -0.8206  0.0024
  118OSM    C3F12420   4.703   1.421   7.097 -0.2590  0.0201  0.2333
  118OSM    H3F12421   4.719   1.325   7.043  0.4425  0.4958 -0.4185
  118OSM    H3G12422   4.617   1.404   7.165  0.5398 -0.1684  1.2150
  118OSM    C4F12423   4.833   1.463   7.165  0.1048  0.2355  0.3426
  118OSM    H4F12424   4.920   1.467   7.095  1.7655 -1.2686  2.2271
  118OSM    H4G12425   4.856   1.380   7.234 -0.6963 -1.1416 -0.9736
  118OSM    C5F12426   4.844   1.594   7.244  0.4332  0.4824  0.3837
  118OSM    H5F12427   4.770   1.605   7.326 -0.2139 -0.2729 -0.0834
  118OSM    H5G12428   4.827   1.681   7.177  0.7809  0.8240  0.7297
  118OSM    C6F12429   4.982   1.613   7.313  1.1771 -0.5462 -0.2159
  118OSM    H6F12430   4.994   1.719   7.346  2.7195 -1.3369  1.9240
  118OSM    H6G12431   5.057   1.584   7.237  2.0942 -0.3444  0.6002
  118OSM    C7F12432   5.014   1.524   7.435  0.5011  0.2816  0.1422
  118OSM    H7F12433   5.016   1.425   7.383 -0.9732  0.5221 -0.4497
  118OSM    H7G12434   4.934   1.510   7.511 -0.0577 -0.6140 -0.5889
  118OSM    C8F12435   5.147   1.562   7.507  0.0304 -0.1240 -0.6794
  118OSM    H8F12436   5.239   1.544   7.447 -0.1765 -1.8059 -0.5300
  118OSM    H8G12437   5.159   1.497   7.595 -0.3820  0.6011 -0.0703
  118OSM    C9F12438   5.140   1.705   7.560 -0.3584  0.2810 -0.3747
  118OSM    H9F12439   5.132   1.782   7.482 -1.2406  0.0287 -0.5479
  118OSM   C10F12440   5.128   1.748   7.689  0.0004  0.5472 -1.3228
  118OSM   H10F12441   5.128   1.855   7.714  2.2220  0.2564  0.2099
  118OSM   C11F12442   5.131   1.660   7.803 -0.4371 -0.6009 -0.8607
  118OSM   H11F12443   5.093   1.559   7.774  1.8344 -1.3667 -1.4254
  118OSM   H11G12444   5.063   1.699   7.881  0.7693 -0.1842  0.0113
  118OSM   C12F12445   5.272   1.613   7.860  0.1240  0.5911  0.2448
  118OSM   H12F12446   5.340   1.585   7.778 -0.6482  1.6502 -0.7986
  118OSM   H12G12447   5.261   1.527   7.930 -1.2847  1.2386  0.8780
  118OSM   C13F12448   5.342   1.721   7.944 -0.2458 -0.1307  0.4561
  118OSM   H13F12449   5.279   1.737   8.034 -0.2448  2.2031  0.0926
  118OSM   H13G12450   5.341   1.808   7.875 -3.3869  0.0382  0.5876
  118OSM   C14F12451   5.490   1.686   7.971  0.2337  0.4019  0.3965
  118OSM   H14F12452   5.533   1.630   7.885  0.0826  0.2544  0.4162
  118OSM   H14G12453   5.490   1.622   8.062 -0.9561 -1.1904 -0.6605
  118OSM   C15F12454   5.577   1.810   8.007 -0.2419 -0.1052 -0.1131
  118OSM   H15F12455   5.514   1.871   8.076  2.3590  1.9003  0.6460
  118OSM   H15G12456   5.609   1.873   7.921 -2.8952  0.1270 -1.0277
  118OSM   C16F12457   5.702   1.779   8.097 -0.4239  0.1274 -0.7620
  118OSM   H16F12458   5.758   1.709   8.033  0.0852  0.1034 -0.2977
  118OSM   H16G12459   5.669   1.732   8.193  1.3718 -1.0999 -0.6969
  118OSM   C17F12460   5.782   1.907   8.123  0.0267 -0.9055  0.0554
  118OSM   H17F12461   5.720   1.966   8.194 -0.8915 -1.3396 -0.3692
  118OSM   H17G12462   5.776   1.966   8.029 -0.3758  0.1905  0.7489
  118OSM   C18F12463   5.930   1.894   8.150 -0.2698  0.0714  0.3801
  118OSM   H18F12464   5.977   1.855   8.057 -1.7157  0.8918 -0.7185
  118OSM   H18G12465   5.939   1.819   8.231 -3.8617  0.3283  1.1669
  118OSM   H18H12466   5.973   1.993   8.177  1.6883 -0.8840  0.9378
  119OSM      N12467   0.589   2.196   5.962  0.1843  0.2531 -0.4277
  119OSM    C1512468   0.654   2.312   5.897  0.0355  0.0407 -0.4017
  119OSM   H15A12469   0.649   2.406   5.952 -0.2103  0.3108 -0.8815
  119OSM   H15B12470   0.617   2.325   5.797  0.7797  0.3484 -0.6407
  119OSM   H15C12471   0.761   2.302   5.891 -0.0475 -0.9368 -0.3889
  119OSM    C1412472   0.612   2.065   5.892  0.3526  0.6320 -0.3246
  119OSM   H14A12473   0.572   1.982   5.947  0.8583 -0.5577 -1.6915
  119OSM   H14B12474   0.720   2.056   5.889  0.5854  2.3084  1.1280
  119OSM   H14C12475   0.564   2.068   5.796  0.7019 -0.5220 -0.5488
  119OSM    C1312476   0.670   2.185   6.086 -0.0033  0.0371 -0.5217
  119OSM   H13A12477   0.624   2.121   6.160  0.7173 -1.3629 -1.2483
  119OSM   H13B12478   0.701   2.276   6.136 -0.6208 -0.3104  0.5275
  119OSM   H13C12479   0.766   2.142   6.060 -1.4579 -3.1593 -0.9984
  119OSM    C1212480   0.447   2.227   5.996 -0.2027  0.4905 -0.1982
  119OSM   H12A12481   0.388   2.248   5.908 -0.7085  2.0222  0.4782
  119OSM   H12B12482   0.449   2.326   6.038  0.5393  0.8266 -1.0037
  119OSM    C1112483   0.378   2.132   6.088 -0.3589 -0.5447  0.5724
  119OSM   H11A12484   0.286   2.187   6.116  0.5641  0.6635  1.3090
  119OSM   H11B12485   0.435   2.103   6.179  0.7475  1.0083  0.4042
  119OSM      P12486   0.212   1.924   6.046 -0.2355 -0.5669 -0.1270
  119OSM    O1312487   0.096   1.979   5.972 -0.2522 -0.7164 -0.1660
  119OSM    O1412488   0.236   1.777   6.027  0.4033 -0.7600 -0.3334
  119OSM    O1112489   0.173   1.948   6.198 -0.9384 -0.5541 -0.5740
  119OSM    O1212490   0.345   2.005   6.023 -0.3261  0.6189  0.4296
  119OSM    C1S12491   0.194   1.854   6.306  0.1863  0.0822  0.5964
  119OSM    H1S12492   0.298   1.815   6.302 -0.6415 -2.1595 -1.1334
  119OSM    H1T12493   0.121   1.771   6.298 -0.5655  0.9090 -1.9001
  119OSM     NF12494   0.219   1.824   6.543 -0.2622  0.0086  0.0353
  119OSM    HNF12495   0.159   1.758   6.588  3.3419 -1.5194  3.1623
  119OSM    C2S12496   0.176   1.920   6.445 -0.1810  0.0959  0.3750
  119OSM    H2S12497   0.244   2.008   6.450  0.2464 -0.2395  0.6082
  119OSM    C3S12498   0.028   1.979   6.454 -0.3531 -0.3882 -0.6542
  119OSM    H3S12499  -0.044   1.898   6.430  0.1131 -1.4155  1.2111
  119OSM     O312500  -0.007   2.089   6.369  0.0786 -0.4801  0.6758
  119OSM    HO312501   0.065   2.076   6.307  0.7663  3.5581  0.3430
  119OSM    C4S12502  -0.001   2.029   6.598 -0.6261  0.3465  0.2338
  119OSM    H4S12503  -0.058   1.959   6.662 -0.3388 -1.1208 -1.0526
  119OSM    C5S12504   0.065   2.135   6.652  0.3012 -0.6321  0.4646
  119OSM    H5S12505   0.151   2.177   6.598 -2.1410  0.7866 -2.6226
  119OSM    C6S12506   0.057   2.178   6.794 -0.0932 -0.4797 -0.1358
  119OSM    H6S12507   0.039   2.288   6.797  0.0609 -0.4764  1.3437
  119OSM    H6T12508   0.159   2.162   6.837 -0.3778  0.2561  0.8534
  119OSM    C7S12509  -0.045   2.125   6.900  0.4964  0.5872 -0.7335
  119OSM    H7S12510  -0.047   2.014   6.905 -0.3715  0.6339  0.5664
  119OSM    H7T12511  -0.143   2.152   6.854  0.8067  0.4972 -1.4568
  119OSM    C8S12512  -0.043   2.175   7.048 -0.0966 -0.4297  0.0322
  119OSM    H8S12513  -0.026   2.284   7.030  3.3883 -1.0742 -1.3470
  119OSM    H8T12514   0.047   2.146   7.105 -1.5649 -0.5704  2.4297
  119OSM    C9S12515  -0.166   2.148   7.141  0.4279 -0.2202  0.7212
  119OSM    H9S12516  -0.154   2.039   7.160 -0.6351 -0.1677  1.8609
  119OSM    H9T12517  -0.262   2.161   7.086  0.9176  1.9694  0.3064
  119OSM   C10S12518  -0.160   2.218   7.266 -0.1401 -0.2995  0.0588
  119OSM   H10S12519  -0.250   2.179   7.319 -0.4307 -4.2858 -2.9003
  119OSM   H10T12520  -0.166   2.327   7.247  0.1945 -0.2245  0.3543
  119OSM   C11S12521  -0.038   2.186   7.352  0.0034  0.4818  0.5457
  119OSM   H11S12522   0.062   2.225   7.322 -0.2444  1.2374  0.6767
  119OSM   H11T12523  -0.030   2.076   7.363 -1.8172 -0.3153 -4.0267
  119OSM   C12S12524  -0.063   2.234   7.493  0.0333 -0.7657  0.4958
  119OSM   H12S12525  -0.169   2.220   7.522 -0.6012 -0.1961 -1.4403
  119OSM   H12T12526  -0.051   2.344   7.502  0.0583 -0.5976 -1.2818
  119OSM   C13S12527   0.038   2.159   7.583 -0.2249 -0.2303  0.1081
  119OSM   H13S12528   0.132   2.165   7.524 -0.6256 -0.9113 -0.6062
  119OSM   H13T12529   0.005   2.055   7.599 -0.0049 -0.3494 -0.2024
  119OSM   C14S12530   0.059   2.229   7.724  0.3046  0.1901 -0.2007
  119OSM   H14S12531   0.082   2.332   7.689 -0.3283  0.7665  1.0417
  119OSM   H14T12532   0.152   2.200   7.777  0.8050 -0.4913 -1.3836
  119OSM   C15S12533  -0.053   2.214   7.819  0.2186  0.5568  0.0974
  119OSM   H15S12534  -0.079   2.109   7.841 -1.1320  1.4914  3.6757
  119OSM   H15T12535  -0.148   2.257   7.781  0.0884  0.3110  0.1458
  119OSM   C16S12536  -0.009   2.282   7.953 -0.9230 -0.1878 -0.3947
  119OSM   H16S12537   0.001   2.391   7.937 -0.4008 -0.0697  0.6317
  119OSM   H16T12538   0.096   2.251   7.973 -0.4885  0.7118 -1.1857
  119OSM   C17S12539  -0.102   2.253   8.070  0.8261  0.1046  0.3260
  119OSM   H17S12540  -0.104   2.145   8.097 -0.2732  0.4418  1.7021
  119OSM   H17T12541  -0.199   2.278   8.023  1.4104  0.0002 -0.9716
  119OSM   C18S12542  -0.090   2.345   8.191  0.4635 -0.1116 -0.1689
  119OSM   H18S12543  -0.166   2.321   8.268  0.2598 -0.6831 -0.5367
  119OSM   H18T12544  -0.118   2.451   8.172  2.1669  0.0707 -2.0075
  119OSM   H18U12545   0.010   2.333   8.236  0.8739 -1.0746 -1.2832
  119OSM    C1F12546   0.348   1.815   6.571 -0.4334  0.1452 -0.2943
  119OSM     OF12547   0.427   1.901   6.535 -0.2587 -0.1718  0.0036
  119OSM    C2F12548   0.401   1.696   6.654 -0.1989  0.0604 -0.8632
  119OSM    H2F12549   0.457   1.645   6.573 -0.5933  1.2593 -1.9388
  119OSM    H2G12550   0.329   1.620   6.692  1.2420 -1.0566 -0.3048
  119OSM    C3F12551   0.494   1.748   6.761  0.1831  0.0333  0.1815
  119OSM    H3F12552   0.570   1.817   6.718 -0.8621  0.1153 -1.5836
  119OSM    H3G12553   0.545   1.659   6.804 -1.1809  0.6710  3.4430
  119OSM    C4F12554   0.412   1.833   6.866  0.2809 -0.5860 -0.5014
  119OSM    H4F12555   0.344   1.905   6.817  0.3342 -1.6016 -2.1656
  119OSM    H4G12556   0.482   1.884   6.935 -1.6444 -0.1504  1.2381
  119OSM    C5F12557   0.331   1.753   6.966  0.4933 -0.7323 -0.3332
  119OSM    H5F12558   0.384   1.670   7.017 -0.5135  1.1615  4.3247
  119OSM    H5G12559   0.258   1.697   6.903 -0.2065 -1.8257  1.3864
  119OSM    C6F12560   0.258   1.837   7.079 -0.1440  0.2733  0.6139
  119OSM    H6F12561   0.217   1.750   7.135  1.9216 -0.3556  1.2687
  119OSM    H6G12562   0.185   1.910   7.040  0.6578  2.5650  3.1286
  119OSM    C7F12563   0.362   1.903   7.173  0.4862  0.0383  0.3682
  119OSM    H7F12564   0.401   1.991   7.118  0.1163  1.0753  1.7043
  119OSM    H7G12565   0.442   1.827   7.185  1.9465  1.8069  2.9334
  119OSM    C8F12566   0.311   1.945   7.309 -0.0006  0.0043  0.2206
  119OSM    H8F12567   0.205   1.969   7.288 -0.1324 -1.4597 -0.9139
  119OSM    H8G12568   0.345   2.043   7.348 -1.2337  0.5284  0.0016
  119OSM    C9F12569   0.294   1.837   7.414 -0.1005 -0.2412  0.5585
  119OSM    H9F12570   0.260   1.741   7.373 -0.0326  1.1518 -3.1270
  119OSM   C10F12571   0.320   1.840   7.544 -0.0409 -0.5473  0.2247
  119OSM   H10F12572   0.283   1.746   7.588  1.0261 -0.7399  0.7571
  119OSM   C11F12573   0.373   1.955   7.629  0.3105 -0.1954  0.0479
  119OSM   H11F12574   0.358   2.057   7.585 -1.9887 -0.9308 -1.0409
  119OSM   H11G12575   0.483   1.943   7.638  0.4628  1.3704  0.6110
  119OSM   C12F12576   0.307   1.941   7.760  0.4112 -0.2807 -0.5469
  119OSM   H12F12577   0.329   1.842   7.805  0.0720  0.0418  0.3446
  119OSM   H12G12578   0.198   1.952   7.747  0.3684  4.4074  1.5655
  119OSM   C13F12579   0.367   2.043   7.861 -0.3111 -0.8334 -0.4182
  119OSM   H13F12580   0.365   2.145   7.817 -0.0182 -0.2390  0.8931
  119OSM   H13G12581   0.475   2.025   7.879 -0.2309 -0.8010 -0.8482
  119OSM   C14F12582   0.295   2.047   7.993  0.1850  0.0574 -0.2636
  119OSM   H14F12583   0.304   1.947   8.039 -0.1022  0.4291  0.6201
  119OSM   H14G12584   0.185   2.046   7.976  0.0922 -1.9882  0.2667
  119OSM   C15F12585   0.325   2.156   8.091 -0.2602 -0.4120 -0.1983
  119OSM   H15F12586   0.296   2.252   8.044  0.8459  0.8668  1.6008
  119OSM   H15G12587   0.434   2.157   8.110  0.1190 -0.9297 -2.1695
  119OSM   C16F12588   0.247   2.149   8.220 -0.0517  0.7262  0.0372
  119OSM   H16F12589   0.264   2.048   8.264 -0.9662  0.5029 -0.1107
  119OSM   H16G12590   0.142   2.163   8.189 -0.6540 -0.5365  1.3885
  119OSM   C17F12591   0.315   2.241   8.323 -0.4349 -0.9934 -0.3747
  119OSM   H17F12592   0.309   2.348   8.291 -0.3482 -0.7522  0.4009
  119OSM   H17G12593   0.424   2.231   8.342 -0.2156  0.3991 -0.7552
  119OSM   C18F12594   0.257   2.238   8.463  0.1358 -0.1679 -0.3711
  119OSM   H18F12595   0.281   2.142   8.515  0.5883  1.3207  2.3417
  119OSM   H18G12596   0.148   2.258   8.451  0.1266  0.5833  0.8684
  119OSM   H18H12597   0.300   2.315   8.530 -2.8880 -0.1246  1.6933
  120OSM      N12598   4.237   1.364   6.067 -0.1755  0.5551 -0.2062
  120OSM    C1512599   4.261   1.233   6.007 -0.7252 -0.0879  0.1409
  120OSM   H15A12600   4.285   1.242   5.902 -2.4586  1.8185 -0.1515
  120OSM   H15B12601   4.174   1.171   6.020 -2.0728  1.4753 -1.0481
  120OSM   H15C12602   4.344   1.175   6.045  2.8189  2.0980 -3.4310
  120OSM    C1412603   4.364   1.445   6.061 -0.0818 -0.2836  1.0197
  120OSM   H14A12604   4.445   1.395   6.113  0.9147 -1.2682 -1.3532
  120OSM   H14B12605   4.350   1.539   6.113  0.2411 -1.0798  2.6022
  120OSM   H14C12606   4.404   1.449   5.961  0.3961  1.5775  1.2395
  120OSM    C1312607   4.120   1.426   6.008 -0.2126 -0.4975  0.7382
  120OSM   H13A12608   4.024   1.382   6.031 -1.0711  0.9847  0.1703
  120OSM   H13B12609   4.132   1.436   5.901 -1.6097  1.4212  0.6921
  120OSM   H13C12610   4.111   1.529   6.041 -1.5824  0.0198 -1.0972
  120OSM    C1212611   4.214   1.348   6.220  0.1995  0.0555  0.2591
  120OSM   H12A12612   4.298   1.295   6.262  1.3085  0.5309 -1.2642
  120OSM   H12B12613   4.132   1.282   6.246  0.1594  0.8374  2.2814
  120OSM    C1112614   4.183   1.463   6.315  0.2379 -0.4951  0.1586
  120OSM   H11A12615   4.272   1.529   6.314 -0.3085  0.2847 -1.6256
  120OSM   H11B12616   4.181   1.418   6.417  4.5794 -1.2111  0.0969
  120OSM      P12617   3.915   1.506   6.291 -0.3569 -0.1836 -0.0841
  120OSM    O1312618   3.833   1.623   6.256  0.4206  0.1864  0.1198
  120OSM    O1412619   3.901   1.380   6.218 -0.1497  0.1023  0.3032
  120OSM    O1112620   3.892   1.467   6.442  0.1941  0.5359 -0.5607
  120OSM    O1212621   4.074   1.543   6.282  0.0495  0.1031 -0.4122
  120OSM    C1S12622   3.897   1.563   6.547 -0.3484  0.0195  0.7811
  120OSM    H1S12623   3.822   1.644   6.535  0.5545  0.5356 -2.1811
  120OSM    H1T12624   3.993   1.619   6.552  0.6326 -1.0190 -2.7825
  120OSM     NF12625   3.912   1.615   6.790  0.2359 -0.0932  0.0375
  120OSM    HNF12626   3.989   1.613   6.853  1.4481 -1.0362 -1.4021
  120OSM    C2S12627   3.881   1.510   6.695 -0.1647  0.8784 -0.8092
  120OSM    H2S12628   3.775   1.478   6.708 -0.3695  0.6551 -2.7428
  120OSM    C3S12629   3.973   1.377   6.709 -0.6973 -0.6419 -0.0283
  120OSM    H3S12630   4.078   1.402   6.683 -0.0375 -0.4088  2.5513
  120OSM     O312631   3.937   1.275   6.614  0.0871  0.1026  0.1466
  120OSM    HO312632   3.897   1.321   6.540 -0.4580 -1.7690 -0.7929
  120OSM    C4S12633   3.984   1.326   6.855  0.0844  0.6139 -0.1983
  120OSM    H4S12634   4.086   1.331   6.893 -0.5618 -0.4814  1.8155
  120OSM    C5S12635   3.891   1.261   6.926 -0.2984  0.2405  0.4399
  120OSM    H5S12636   3.794   1.244   6.876 -1.0695  2.5367  0.9997
  120OSM    C6S12637   3.905   1.194   7.064 -0.4640 -0.6739  0.5089
  120OSM    H6S12638   3.832   1.110   7.075  0.7847 -1.7989  0.5062
  120OSM    H6T12639   3.893   1.271   7.142  4.5189  0.6913  0.2324
  120OSM    C7S12640   4.040   1.133   7.090  1.0197 -0.2643  0.5315
  120OSM    H7S12641   4.110   1.216   7.111  0.5839  0.3406 -0.3466
  120OSM    H7T12642   4.072   1.074   7.002 -0.3589 -1.3477  0.7080
  120OSM    C8S12643   4.040   1.053   7.220  0.5608 -0.6402  0.0996
  120OSM    H8S12644   4.122   0.983   7.194  0.1791 -0.1149 -2.7593
  120OSM    H8T12645   3.955   0.980   7.227  2.3345 -2.7468  0.9136
  120OSM    C9S12646   4.037   1.140   7.349  0.0209  0.2876  0.2332
  120OSM    H9S12647   3.934   1.179   7.359 -0.3448 -0.3017 -1.1402
  120OSM    H9T12648   4.103   1.225   7.321 -0.6986 -0.7282 -5.9040
  120OSM   C10S12649   4.075   1.059   7.469  0.1168 -0.1261  0.4840
  120OSM   H10S12650   4.173   1.029   7.427 -1.4539 -0.9141 -2.9200
  120OSM   H10T12651   4.003   0.977   7.488  1.5788 -1.0571  2.2803
  120OSM   C11S12652   4.080   1.146   7.595 -0.1149  0.1253 -0.1676
  120OSM   H11S12653   3.976   1.177   7.621  0.5309  1.3736  0.9956
  120OSM   H11T12654   4.138   1.238   7.575  1.5657 -0.3219  2.2257
  120OSM   C12S12655   4.138   1.073   7.713 -0.0880 -0.3447 -0.0748
  120OSM   H12S12656   4.124   1.147   7.794  0.2652 -1.0423  0.6311
  120OSM   H12T12657   4.245   1.042   7.705 -0.2636 -1.1614  0.6071
  120OSM   C13S12658   4.062   0.946   7.755  0.0971  0.2706 -0.0885
  120OSM   H13S12659   4.083   0.866   7.681 -0.6935  0.7777 -0.8890
  120OSM   H13T12660   3.955   0.970   7.732  0.1129  0.0659 -0.3797
  120OSM   C14S12661   4.097   0.910   7.904 -0.2849 -0.6005 -0.0379
  120OSM   H14S12662   4.097   1.005   7.962  0.3278  1.3910 -3.0561
  120OSM   H14T12663   4.204   0.881   7.893  0.6582  2.7789 -1.0982
  120OSM   C15S12664   4.004   0.809   7.969 -0.2172 -0.3554  0.1464
  120OSM   H15S12665   4.034   0.706   7.937 -0.8674  0.1662 -2.3608
  120OSM   H15T12666   3.899   0.829   7.940  0.0505 -0.4430 -0.9291
  120OSM   C16S12667   4.022   0.818   8.121  0.4794 -0.2138 -0.3407
  120OSM   H16S12668   3.967   0.913   8.140 -1.0461 -1.3780  1.3923
  120OSM   H16T12669   4.122   0.852   8.156 -0.5351  0.4004  2.1268
  120OSM   C17S12670   3.959   0.704   8.195  0.5987 -0.1029  0.2120
  120OSM   H17S12671   4.027   0.619   8.175  1.9513  0.8959  0.4425
  120OSM   H17T12672   3.860   0.682   8.150  1.4037  0.1520 -1.7577
  120OSM   C18S12673   3.956   0.726   8.342  0.0935 -0.4059  0.5361
  120OSM   H18S12674   3.927   0.628   8.386  1.2772 -1.2606 -0.5114
  120OSM   H18T12675   3.885   0.806   8.370 -1.0031 -1.4756  0.9420
  120OSM   H18U12676   4.053   0.763   8.379  1.0615 -1.8670 -0.4164
  120OSM    C1F12677   3.831   1.725   6.812 -0.0541  0.3788 -0.7621
  120OSM     OF12678   3.724   1.748   6.749 -0.0512  0.2962 -0.0771
  120OSM    C2F12679   3.875   1.817   6.915 -0.5612 -0.8913 -0.4185
  120OSM    H2F12680   3.984   1.835   6.907 -0.4459 -1.3969 -0.0697
  120OSM    H2G12681   3.863   1.769   7.015  0.4742  4.4043  2.6766
  120OSM    C3F12682   3.800   1.954   6.912  0.3986 -0.7212  0.0443
  120OSM    H3F12683   3.697   1.940   6.954 -0.4514 -1.2067 -2.0519
  120OSM    H3G12684   3.796   1.999   6.810  2.9330  0.6259  0.4784
  120OSM    C4F12685   3.871   2.068   6.991 -0.0614  0.0992 -0.4987
  120OSM    H4F12686   3.823   2.167   6.975 -2.8275 -1.1597 -0.5547
  120OSM    H4G12687   3.964   2.084   6.932  0.2747  2.0844  0.4805
  120OSM    C5F12688   3.902   2.037   7.138  0.7734  0.3836  0.5428
  120OSM    H5F12689   3.958   1.941   7.139  2.3182  1.2330  0.2265
  120OSM    H5G12690   3.803   2.015   7.183  0.6798 -0.1907  0.0816
  120OSM    C6F12691   3.971   2.160   7.198  0.5443  0.2754 -0.3339
  120OSM    H6F12692   3.901   2.247   7.199  2.0821  1.5590 -0.1854
  120OSM    H6G12693   4.063   2.190   7.144  0.8415  1.5759  0.8175
  120OSM    C7F12694   4.009   2.133   7.346 -0.8505  0.0162  0.3895
  120OSM    H7F12695   4.046   2.231   7.383 -0.0460  0.5765 -1.7427
  120OSM    H7G12696   4.097   2.066   7.339 -0.9553 -0.0066 -1.2945
  120OSM    C8F12697   3.899   2.076   7.437  0.1023 -0.0346 -0.3105
  120OSM    H8F12698   3.839   1.992   7.397 -2.4512  1.4106  0.2760
  120OSM    H8G12699   3.840   2.164   7.472  3.8040  2.1511  1.0465
  120OSM    C9F12700   3.953   2.011   7.559 -0.5162 -0.5494 -0.3091
  120OSM    H9F12701   3.977   1.906   7.539  4.3876 -0.0595  1.6696
  120OSM   C10F12702   3.969   2.079   7.678 -0.6787 -0.5601 -0.2041
  120OSM   H10F12703   4.022   2.027   7.760 -1.7476  0.4086  1.1559
  120OSM   C11F12704   3.946   2.224   7.722 -0.0525 -0.1922 -0.3426
  120OSM   H11F12705   3.940   2.294   7.636  1.7438  0.0027 -0.3416
  120OSM   H11G12706   4.036   2.254   7.779 -1.5900  3.9196  0.2552
  120OSM   C12F12707   3.826   2.231   7.818 -0.5398  0.2807 -0.1625
  120OSM   H12F12708   3.745   2.179   7.763  0.4693 -3.2566  1.4579
  120OSM   H12G12709   3.792   2.336   7.830 -1.1225  0.0297  0.4478
  120OSM   C13F12710   3.846   2.159   7.954  0.6449  0.1046  0.5561
  120OSM   H13F12711   3.913   2.216   8.021 -0.8428 -0.7797  2.9269
  120OSM   H13G12712   3.880   2.055   7.934 -3.7099 -1.7768  1.5531
  120OSM   C14F12713   3.716   2.136   8.026  0.1659  0.5295 -0.1057
  120OSM   H14F12714   3.642   2.098   7.953 -1.8080  3.1322  0.4188
  120OSM   H14G12715   3.679   2.236   8.058 -3.4332 -1.0985  1.3756
  120OSM   C15F12716   3.727   2.030   8.137  0.3201 -0.8097  0.1195
  120OSM   H15F12717   3.806   2.058   8.210  0.0223  0.8922 -0.1731
  120OSM   H15G12718   3.768   1.937   8.092 -0.5105 -2.6344  2.8796
  120OSM   C16F12719   3.590   2.005   8.200 -0.3315 -0.0057  0.1816
  120OSM   H16F12720   3.511   1.984   8.126  1.7071 -1.4403 -1.7085
  120OSM   H16G12721   3.560   2.099   8.251  2.0649  0.6604  0.4731
  120OSM   C17F12722   3.596   1.886   8.296  0.7619 -0.1263  0.1917
  120OSM   H17F12723   3.679   1.908   8.367  0.3304  0.1709  0.6022
  120OSM   H17G12724   3.630   1.789   8.253 -0.4651 -0.7980  0.7008
  120OSM   C18F12725   3.467   1.864   8.364  0.7745 -0.6108 -0.3676
  120OSM   H18F12726   3.398   1.843   8.280  0.2392  1.6219 -0.5504
  120OSM   H18G12727   3.420   1.954   8.410  2.7502  0.6519 -0.6677
  120OSM   H18H12728   3.463   1.777   8.433  1.3957  0.3165  0.8938
  121OSM      N12729   6.807   1.264   5.996 -0.4591 -0.7097 -0.2768
  121OSM    C1512730   6.952   1.249   6.032 -0.0711  0.3051  0.2647
  121OSM   H15A12731   6.988   1.339   6.081 -2.5622  0.2022  2.5216
  121OSM   H15B12732   7.020   1.246   5.948  0.0260 -0.6818  0.3656
  121OSM   H15C12733   6.972   1.166   6.099 -1.5477 -0.8498 -0.6630
  121OSM    C1412734   6.790   1.395   5.922  0.3819  0.5061  0.4378
  121OSM   H14A12735   6.686   1.419   5.907  0.4138  0.4222  0.0575
  121OSM   H14B12736   6.846   1.389   5.829  0.2506  0.0453  0.3834
  121OSM   H14C12737   6.824   1.481   5.977  0.3446  1.2240 -0.6349
  121OSM    C1312738   6.775   1.157   5.899  0.2844 -0.3791 -0.1814
  121OSM   H13A12739   6.825   1.176   5.805 -0.9656 -0.9806 -0.9966
  121OSM   H13B12740   6.670   1.136   5.885  0.0630  0.6908 -0.2306
  121OSM   H13C12741   6.811   1.059   5.926 -1.4713 -1.0909 -0.2978
  121OSM    C1212742   6.713   1.276   6.109 -0.1971  0.8027 -0.2411
  121OSM   H12A12743   6.677   1.177   6.130 -0.6442  0.8769 -0.6398
  121OSM   H12B12744   6.630   1.337   6.076 -0.1855  0.2620 -1.3160
  121OSM    C1112745   6.763   1.345   6.233 -0.5507  0.1901  0.6879
  121OSM   H11A12746   6.850   1.291   6.275  0.6944  1.7207  0.1787
  121OSM   H11B12747   6.684   1.349   6.311 -1.3959  3.0213 -0.1898
  121OSM      P12748   6.687   1.593   6.195 -0.0816 -0.0137  0.0304
  121OSM    O1312749   6.741   1.716   6.136 -0.4165  0.0159 -0.1891
  121OSM    O1412750   6.557   1.545   6.138 -0.5673  0.1915  0.5769
  121OSM    O1112751   6.660   1.620   6.348 -1.0906  0.2492 -0.2342
  121OSM    O1212752   6.800   1.482   6.198 -0.4846  0.1308  0.2974
  121OSM    C1S12753   6.537   1.628   6.418  0.0575  0.0596 -0.3170
  121OSM    H1S12754   6.470   1.551   6.374  1.0739 -2.3331  2.0483
  121OSM    H1T12755   6.485   1.726   6.423  1.0835  0.5544  1.2632
  121OSM     NF12756   6.438   1.582   6.646 -0.3565 -0.3457  0.0588
  121OSM    HNF12757   6.411   1.654   6.710  0.5196  0.0381  0.0200
  121OSM    C2S12758   6.562   1.583   6.569 -0.5001  0.2826  0.6698
  121OSM    H2S12759   6.596   1.477   6.559 -0.2514  0.1991  2.1811
  121OSM    C3S12760   6.674   1.668   6.632  0.0272 -0.3784  0.0109
  121OSM    H3S12761   6.651   1.774   6.610 -1.3708 -0.7365 -0.3620
  121OSM     O312762   6.798   1.649   6.571  0.4417  0.3220  0.5753
  121OSM    HO312763   6.771   1.632   6.481 -0.5842  1.7688  0.5730
  121OSM    C4S12764   6.686   1.657   6.781 -0.8080  0.0868 -0.3875
  121OSM    H4S12765   6.620   1.721   6.841  0.2824  0.6232  0.2749
  121OSM    C5S12766   6.766   1.573   6.850  0.3693  0.9450  0.0655
  121OSM    H5S12767   6.818   1.495   6.793 -0.7279  0.7053 -0.6260
  121OSM    C6S12768   6.772   1.579   7.000  0.5238  0.6547 -0.0934
  121OSM    H6S12769   6.845   1.655   7.034 -0.9509  1.4244  1.4897
  121OSM    H6T12770   6.815   1.488   7.047  1.7598  1.5379  0.5359
  121OSM    C7S12771   6.641   1.624   7.072  0.1790  0.3465 -0.4301
  121OSM    H7S12772   6.555   1.557   7.050 -0.8880  1.5204  0.0728
  121OSM    H7T12773   6.616   1.725   7.034 -1.9201 -0.6437 -1.8788
  121OSM    C8S12774   6.640   1.613   7.226  0.3237 -0.3657  0.6732
  121OSM    H8S12775   6.646   1.505   7.248  1.1538 -0.7939 -1.3917
  121OSM    H8T12776   6.537   1.647   7.251  0.5037  2.4154 -1.7731
  121OSM    C9S12777   6.754   1.685   7.313  0.1585  0.5553  0.5230
  121OSM    H9S12778   6.740   1.793   7.291  0.5411  0.7828  1.3385
  121OSM    H9T12779   6.856   1.652   7.283  0.8748  1.9910  1.2554
  121OSM   C10S12780   6.711   1.658   7.462  0.4495 -0.1214 -0.2354
  121OSM   H10S12781   6.725   1.548   7.475  0.6389 -0.2137 -1.1654
  121OSM   H10T12782   6.601   1.674   7.466  0.4432 -0.2844  0.4405
  121OSM   C11S12783   6.785   1.748   7.563 -0.1359 -0.1910  0.8190
  121OSM   H11S12784   6.736   1.847   7.547 -1.2798 -0.7499  0.7669
  121OSM   H11T12785   6.894   1.763   7.547 -0.4891  1.1073 -0.5831
  121OSM   C12S12786   6.760   1.706   7.705 -0.1520 -0.2446 -0.6639
  121OSM   H12S12787   6.803   1.604   7.719  2.8208  1.0305  0.5592
  121OSM   H12T12788   6.652   1.713   7.727  0.3876  1.4595  2.0362
  121OSM   C13S12789   6.813   1.789   7.819 -0.9627 -0.1595 -0.0057
  121OSM   H13S12790   6.772   1.892   7.819 -1.2680 -0.2823 -0.3664
  121OSM   H13T12791   6.924   1.792   7.816 -0.9712 -0.0557 -0.2482
  121OSM   C14S12792   6.778   1.733   7.955 -0.5409  0.4610 -0.1132
  121OSM   H14S12793   6.828   1.636   7.975 -3.5070 -1.4505 -1.2038
  121OSM   H14T12794   6.667   1.731   7.957 -0.6209  2.6443  0.6352
  121OSM   C15S12795   6.832   1.822   8.070  0.2462 -0.0823 -0.1078
  121OSM   H15S12796   6.806   1.926   8.039 -0.7035 -0.8835 -2.1631
  121OSM   H15T12797   6.943   1.816   8.082  0.4187 -0.0045 -1.4643
  121OSM   C16S12798   6.760   1.783   8.207  0.5114  0.1229  0.1147
  121OSM   H16S12799   6.779   1.675   8.225  1.4583  0.2564 -0.0441
  121OSM   H16T12800   6.650   1.798   8.204  0.2900 -1.4280 -0.4240
  121OSM   C17S12801   6.816   1.861   8.326 -0.2133  0.0382 -0.0490
  121OSM   H17S12802   6.925   1.883   8.317 -0.1555 -0.1319  0.2114
  121OSM   H17T12803   6.798   1.793   8.413 -1.2252 -0.6794 -0.7950
  121OSM   C18S12804   6.731   1.983   8.354  0.0799  0.3393  0.6158
  121OSM   H18S12805   6.781   2.068   8.405 -2.1336  1.7844  0.5211
  121OSM   H18T12806   6.645   1.941   8.411  1.8258 -4.8699 -0.0627
  121OSM   H18U12807   6.700   2.031   8.258 -0.5173 -2.8380 -0.8948
  121OSM    C1F12808   6.348   1.481   6.630 -0.2920 -0.5435 -0.7776
  121OSM     OF12809   6.367   1.383   6.563  0.0065 -0.0362  0.1472
  121OSM    C2F12810   6.227   1.489   6.712  0.6953 -0.5061  0.3539
  121OSM    H2F12811   6.141   1.475   6.643  0.7938 -2.7850  0.6219
  121OSM    H2G12812   6.213   1.590   6.756 -0.8480 -0.6297  0.2046
  121OSM    C3F12813   6.229   1.379   6.812  0.0787 -0.5512 -0.2150
  121OSM    H3F12814   6.260   1.282   6.768  2.0215 -0.7010  1.3440
  121OSM    H3G12815   6.128   1.359   6.855  0.2882  0.9241  1.0405
  121OSM    C4F12816   6.328   1.400   6.925 -0.9754  0.2246 -0.7074
  121OSM    H4F12817   6.289   1.481   6.991 -2.0301 -0.6353 -0.2474
  121OSM    H4G12818   6.425   1.428   6.879 -1.0222  2.1713  0.2581
  121OSM    C5F12819   6.357   1.271   7.006 -0.1217 -0.1358 -0.3449
  121OSM    H5F12820   6.401   1.192   6.941  0.4324 -0.4241  0.3666
  121OSM    H5G12821   6.264   1.232   7.051 -0.3933 -0.4750 -1.1773
  121OSM    C6F12822   6.463   1.293   7.116 -0.1533  0.1859 -0.3331
  121OSM    H6F12823   6.443   1.378   7.184 -0.3552  0.3907 -0.6489
  121OSM    H6G12824   6.566   1.308   7.077  0.5944 -0.5928  1.2369
  121OSM    C7F12825   6.476   1.176   7.208  0.5450 -0.0150  0.2114
  121OSM    H7F12826   6.442   1.096   7.139  1.2248  0.7231 -1.0125
  121OSM    H7G12827   6.409   1.178   7.297 -0.1003  0.5373 -0.2750
  121OSM    C8F12828   6.611   1.145   7.265 -0.0111 -0.5349  0.2530
  121OSM    H8F12829   6.679   1.154   7.177 -1.4745  2.7404 -0.7137
  121OSM    H8G12830   6.596   1.043   7.306 -1.2464 -0.2417  0.5814
  121OSM    C9F12831   6.666   1.238   7.375 -0.0382 -0.1075  0.7518
  121OSM    H9F12832   6.608   1.330   7.391 -0.8292  0.7238 -4.7396
  121OSM   C10F12833   6.769   1.218   7.458  0.5037 -0.2975 -0.2160
  121OSM   H10F12834   6.772   1.273   7.553  1.4400 -1.3056  0.3641
  121OSM   C11F12835   6.853   1.092   7.456  0.5709 -0.4750 -0.3825
  121OSM   H11F12836   6.958   1.122   7.472  0.8352  0.1645 -2.8905
  121OSM   H11G12837   6.861   1.044   7.356 -0.6977  0.4588 -0.9776
  121OSM   C12F12838   6.817   0.987   7.556  0.3854  0.1522 -0.1867
  121OSM   H12F12839   6.711   0.963   7.533  0.0084  0.7922  0.8104
  121OSM   H12G12840   6.829   1.027   7.659  1.8706  0.7949 -0.5823
  121OSM   C13F12841   6.876   0.853   7.540 -0.2559 -0.6262 -0.1813
  121OSM   H13F12842   6.986   0.861   7.527 -0.3794  0.0653 -0.8889
  121OSM   H13G12843   6.837   0.806   7.447 -0.1292  0.8900 -1.0233
  121OSM   C14F12844   6.844   0.753   7.651  0.0015  0.0225  0.7568
  121OSM   H14F12845   6.901   0.662   7.624  0.6231  0.5180  0.3733
  121OSM   H14G12846   6.735   0.735   7.660 -0.0461 -0.0705  0.1030
  121OSM   C15F12847   6.894   0.793   7.792  0.1692  0.5876 -0.5298
  121OSM   H15F12848   6.833   0.881   7.823 -1.3671  0.0385 -1.8537
  121OSM   H15G12849   7.002   0.818   7.783  0.1620  1.0473  0.4566
  121OSM   C16F12850   6.867   0.680   7.888  0.1672 -0.3791 -0.3035
  121OSM   H16F12851   6.932   0.599   7.847 -0.1447  0.7835 -3.3890
  121OSM   H16G12852   6.765   0.639   7.872  1.4134 -2.8844 -2.7445
  121OSM   C17F12853   6.880   0.711   8.041 -0.4209  0.5852 -0.0017
  121OSM   H17F12854   6.807   0.786   8.078 -3.0178 -0.2393 -3.0081
  121OSM   H17G12855   6.987   0.726   8.066 -0.2718 -1.0809  0.4753
  121OSM   C18F12856   6.846   0.585   8.124 -0.2741  0.1754 -0.0038
  121OSM   H18F12857   6.843   0.614   8.232 -0.2090  0.1010  0.0173
  121OSM   H18G12858   6.913   0.497   8.115 -1.9624 -1.0967 -0.6148
  121OSM   H18H12859   6.741   0.555   8.106  0.0509 -0.8490 -0.2151
  122OSM      N12860   3.771   3.283   5.851  0.4347 -0.0597  0.5957
  122OSM    C1512861   3.878   3.260   5.750 -0.6261 -0.1755  0.1240
  122OSM   H15A12862   3.842   3.200   5.667 -2.1508 -2.6822  2.4488
  122OSM   H15B12863   3.952   3.201   5.802 -1.7228 -1.0351  0.7517
  122OSM   H15C12864   3.918   3.353   5.714 -1.3698 -0.4045 -1.3791
  122OSM    C1412865   3.659   3.368   5.792  0.3031  0.2932  0.0996
  122OSM   H14A12866   3.576   3.370   5.860  0.6298 -0.2119  0.5217
  122OSM   H14B12867   3.630   3.328   5.696  1.1741  0.0772 -0.0820
  122OSM   H14C12868   3.693   3.470   5.780 -2.8081  1.4187  0.0603
  122OSM    C1312869   3.728   3.145   5.890  0.0603 -0.0621 -0.0432
  122OSM   H13A12870   3.635   3.136   5.946 -0.4980 -1.8229 -1.1788
  122OSM   H13B12871   3.800   3.089   5.949  1.1033  1.4206  0.1632
  122OSM   H13C12872   3.719   3.082   5.803  0.6214 -0.6232  0.2904
  122OSM    C1212873   3.825   3.349   5.984 -0.2199 -0.0732  1.3854
  122OSM   H12A12874   3.738   3.362   6.048 -0.6591 -0.1904  0.8180
  122OSM   H12B12875   3.860   3.449   5.967 -2.3564  0.6407  0.9530
  122OSM    C1112876   3.931   3.274   6.064  0.2214 -0.6042  0.3689
  122OSM   H11A12877   3.889   3.175   6.093 -0.8888 -0.0895  0.5806
  122OSM   H11B12878   3.945   3.326   6.161 -0.0895 -1.0850  0.6781
  122OSM      P12879   4.159   3.369   5.959  0.2025  0.2179  0.1828
  122OSM    O1312880   4.236   3.320   5.840 -0.0842 -0.9610 -0.8268
  122OSM    O1412881   4.085   3.496   5.946  0.1900 -0.0416  0.4473
  122OSM    O1112882   4.255   3.364   6.081 -0.1508  0.2633 -0.2653
  122OSM    O1212883   4.057   3.261   5.992  0.4914 -0.2096  0.1096
  122OSM    C1S12884   4.329   3.254   6.122  0.6929 -0.6659 -0.7727
  122OSM    H1S12885   4.407   3.228   6.047  0.5190  1.1582 -1.6536
  122OSM    H1T12886   4.263   3.166   6.138 -0.7166  0.4726 -0.0830
  122OSM     NF12887   4.508   3.217   6.298  0.9604  0.4513  0.0411
  122OSM    HNF12888   4.491   3.134   6.351  0.3477  0.4462 -0.1540
  122OSM    C2S12889   4.391   3.286   6.263 -0.2016 -0.2747 -0.2812
  122OSM    H2S12890   4.422   3.393   6.257 -0.6959 -0.2013 -3.5047
  122OSM    C3S12891   4.273   3.250   6.358  0.2600  0.0855  0.3637
  122OSM    H3S12892   4.268   3.141   6.378 -2.8797 -0.1199 -0.9774
  122OSM     O312893   4.143   3.288   6.306  0.2115  0.1957  0.0660
  122OSM    HO312894   4.157   3.319   6.216 -0.9783  1.4301  0.2737
  122OSM    C4S12895   4.294   3.316   6.485  0.6494 -0.2645 -0.7558
  122OSM    H4S12896   4.265   3.422   6.492  2.5116  0.2566 -0.0748
  122OSM    C5S12897   4.328   3.260   6.601  0.1550  0.9091 -0.5518
  122OSM    H5S12898   4.361   3.156   6.616  0.0873  1.2800  2.9528
  122OSM    C6S12899   4.330   3.342   6.730 -0.9082 -0.2879 -0.1075
  122OSM    H6S12900   4.336   3.449   6.700 -1.1145 -0.4470 -0.7424
  122OSM    H6T12901   4.421   3.324   6.791  0.2134 -1.0455 -1.9134
  122OSM    C7S12902   4.204   3.319   6.812  0.0686 -0.6549 -0.4288
  122OSM    H7S12903   4.118   3.359   6.754 -0.0840  0.3003  0.4486
  122OSM    H7T12904   4.219   3.377   6.905  1.6667  0.6801 -1.4622
  122OSM    C8S12905   4.181   3.171   6.841  0.3356 -0.0232 -0.3181
  122OSM    H8S12906   4.278   3.117   6.852  0.8838  1.0270  0.1589
  122OSM    H8T12907   4.127   3.129   6.754  1.5502  1.7497 -2.0196
  122OSM    C9S12908   4.103   3.149   6.976  0.4905 -0.2769  0.5396
  122OSM    H9S12909   4.069   3.044   6.987 -0.8930  0.3010  2.2978
  122OSM    H9T12910   4.016   3.218   6.971  0.7667  0.0615  0.3827
  122OSM   C10S12911   4.184   3.181   7.102 -0.0073 -0.2729  0.5704
  122OSM   H10S12912   4.195   3.291   7.115  3.4877 -0.2149 -1.6053
  122OSM   H10T12913   4.290   3.149   7.090  1.1782  2.8282  1.6465
  122OSM   C11S12914   4.132   3.115   7.224 -0.7068  0.8636  0.3098
  122OSM   H11S12915   4.136   3.004   7.221  0.8395  0.8783  1.0978
  122OSM   H11T12916   4.023   3.133   7.237 -0.4263  1.8121  1.5685
  122OSM   C12S12917   4.217   3.150   7.342  0.0880 -0.0264 -0.2803
  122OSM   H12S12918   4.233   3.260   7.349  1.0618 -0.2540  2.1033
  122OSM   H12T12919   4.316   3.101   7.329 -0.5725 -1.2230 -0.8939
  122OSM   C13S12920   4.170   3.101   7.475  0.2745  0.8776 -0.5578
  122OSM   H13S12921   4.143   2.994   7.472  0.1729  0.8888 -0.1489
  122OSM   H13T12922   4.079   3.158   7.504  1.1958  2.2056 -0.1808
  122OSM   C14S12923   4.271   3.116   7.592  0.1768 -0.1571 -0.5957
  122OSM   H14S12924   4.275   3.226   7.607 -0.5362 -0.1033 -0.7529
  122OSM   H14T12925   4.371   3.077   7.566  0.2648  0.8603 -1.8658
  122OSM   C15S12926   4.201   3.056   7.716 -0.1960 -0.0360  0.0271
  122OSM   H15S12927   4.182   2.947   7.705 -1.7192  0.3320 -1.5959
  122OSM   H15T12928   4.102   3.107   7.723  0.3128  1.0240 -0.3674
  122OSM   C16S12929   4.272   3.081   7.847  0.3104 -0.7041  0.4952
  122OSM   H16S12930   4.271   3.190   7.871 -0.3806 -0.6048  0.0495
  122OSM   H16T12931   4.381   3.064   7.838  0.6512  0.2838  2.2378
  122OSM   C17S12932   4.208   3.001   7.969 -0.1085 -0.0904  0.3341
  122OSM   H17S12933   4.224   2.891   7.965  0.5086 -0.0060 -3.7525
  122OSM   H17T12934   4.098   3.013   7.958  0.0988 -0.3997 -3.6139
  122OSM   C18S12935   4.258   3.055   8.106 -0.6407 -0.0260  0.4859
  122OSM   H18S12936   4.266   3.166   8.109 -0.0178 -0.0783  1.8096
  122OSM   H18T12937   4.361   3.015   8.122 -0.7145 -0.1604  0.6353
  122OSM   H18U12938   4.190   3.015   8.184  0.9438  1.5680  2.8238
  122OSM    C1F12939   4.624   3.227   6.237 -0.4839 -1.3957 -0.6776
  122OSM     OF12940   4.643   3.331   6.174 -0.7661 -0.4671  0.0160
  122OSM    C2F12941   4.716   3.114   6.245  0.8787 -0.4090  0.3824
  122OSM    H2F12942   4.809   3.130   6.186  1.3837  0.2438  1.3359
  122OSM    H2G12943   4.664   3.027   6.199  0.1344  0.2284  0.0055
  122OSM    C3F12944   4.746   3.067   6.388 -0.5422 -0.3670 -0.0538
  122OSM    H3F12945   4.651   3.037   6.438 -2.1217  0.0884 -2.6107
  122OSM    H3G12946   4.773   3.153   6.453  2.2130 -1.2849  0.1230
  122OSM    C4F12947   4.855   2.960   6.385 -0.8972  0.2445 -0.4187
  122OSM    H4F12948   4.942   3.000   6.330  0.0164 -1.8106 -0.5361
  122OSM    H4G12949   4.816   2.874   6.327 -0.3723  0.1187 -0.5816
  122OSM    C5F12950   4.908   2.916   6.527  0.5054 -0.4236 -0.1587
  122OSM    H5F12951   4.831   2.866   6.590  0.5713  1.7760  1.7803
  122OSM    H5G12952   4.935   3.004   6.589 -0.2098  0.4481 -1.0461
  122OSM    C6F12953   5.028   2.818   6.506  0.2097  1.2872  0.0660
  122OSM    H6F12954   5.077   2.840   6.409  1.8720  0.9437  0.7788
  122OSM    H6G12955   4.978   2.720   6.494  1.2987  0.7357 -0.0600
  122OSM    C7F12956   5.126   2.825   6.626  0.1677  0.7404  0.6051
  122OSM    H7F12957   5.144   2.931   6.654 -0.7108  1.0374  0.0974
  122OSM    H7G12958   5.219   2.770   6.601  0.2291  0.3512  1.6677
  122OSM    C8F12959   5.081   2.751   6.753 -0.2614 -0.7183  0.0301
  122OSM    H8F12960   5.074   2.642   6.732  0.2034 -0.7690  0.1186
  122OSM    H8G12961   4.978   2.791   6.764 -0.6510 -1.7451  0.2132
  122OSM    C9F12962   5.149   2.791   6.884  0.9156 -0.9275  0.1307
  122OSM    H9F12963   5.256   2.811   6.864  0.6103  2.0139  0.9759
  122OSM   C10F12964   5.095   2.814   7.009 -0.6984 -0.3502  0.1114
  122OSM   H10F12965   5.165   2.858   7.082 -2.2449 -0.4125  1.7034
  122OSM   C11F12966   4.948   2.810   7.046  0.4438  0.4838  0.7098
  122OSM   H11F12967   4.930   2.725   7.115 -0.9230  0.5004  0.3920
  122OSM   H11G12968   4.889   2.790   6.954  3.1859 -0.2789 -1.0078
  122OSM   C12F12969   4.897   2.949   7.096 -0.5159 -0.2376  0.6853
  122OSM   H12F12970   4.787   2.940   7.094 -0.6998  1.3298  1.7333
  122OSM   H12G12971   4.931   3.027   7.024  1.5961 -3.1117 -1.6932
  122OSM   C13F12972   4.950   2.983   7.236  0.7135 -0.2059 -0.2815
  122OSM   H13F12973   4.959   3.093   7.245 -0.8646 -0.1233  0.8078
  122OSM   H13G12974   5.053   2.946   7.256 -0.2966 -1.6027  2.9298
  122OSM   C14F12975   4.850   2.945   7.345  0.5647  0.0127  0.1096
  122OSM   H14F12976   4.824   2.838   7.334  0.2379 -0.2071  2.4588
  122OSM   H14G12977   4.757   3.003   7.328  0.0872 -0.9069 -0.4536
  122OSM   C15F12978   4.888   2.996   7.484  0.0593 -0.4086  0.1953
  122OSM   H15F12979   4.801   2.983   7.551 -1.4556  0.9817 -1.4023
  122OSM   H15G12980   4.917   3.103   7.477 -1.1209 -0.1534 -1.5070
  122OSM   C16F12981   5.002   2.907   7.540  0.3762  0.3236  0.2645
  122OSM   H16F12982   5.090   2.912   7.473 -1.5217  1.0372 -2.3108
  122OSM   H16G12983   4.978   2.799   7.549 -2.9170  0.8287 -0.9913
  122OSM   C17F12984   5.045   2.965   7.677  0.0784  0.5765 -0.8873
  122OSM   H17F12985   5.091   3.065   7.663  1.9847 -0.3289 -1.2948
  122OSM   H17G12986   5.130   2.905   7.716 -0.0712 -0.2445 -1.7801
  122OSM   C18F12987   4.935   2.954   7.784 -0.4293  0.2728  0.3172
  122OSM   H18F12988   4.972   2.949   7.889  1.2471  2.2924 -0.0965
  122OSM   H18G12989   4.879   2.859   7.777 -2.7456  0.8993  5.4218
  122OSM   H18H12990   4.870   3.043   7.770  1.9724  1.7723 -2.4795
  123OSM      N12991   2.605   6.781   6.266  0.6482  0.0722  0.1951
  123OSM    C1512992   2.510   6.889   6.302 -0.4713 -0.8721  0.3887
  123OSM   H15A12993   2.523   6.967   6.229 -0.1633 -1.1822  0.1095
  123OSM   H15B12994   2.537   6.924   6.401 -4.7106 -2.4675  2.3617
  123OSM   H15C12995   2.405   6.863   6.308 -0.8600  0.4148 -0.4222
  123OSM    C1412996   2.554   6.719   6.137 -0.3028 -0.1773 -0.0492
  123OSM   H14A12997   2.619   6.635   6.121 -1.3077 -1.9785  4.2045
  123OSM   H14B12998   2.567   6.788   6.054  0.9415  0.2376  0.4725
  123OSM   H14C12999   2.450   6.691   6.139 -1.0584  1.7343 -3.2871
  123OSM    C1313000   2.746   6.826   6.251 -0.2849 -0.7539  0.1570
  123OSM   H13A13001   2.755   6.900   6.173 -0.8130  0.0293  0.8239
  123OSM   H13B13002   2.815   6.745   6.228  0.4818 -1.2501  3.7156
  123OSM   H13C13003   2.777   6.878   6.340 -1.8426  2.0243 -0.7955
  123OSM    C1213004   2.586   6.666   6.372 -0.0268  0.2638  0.0320
  123OSM   H12A13005   2.623   6.701   6.467  1.3090  0.6873 -0.6187
  123OSM   H12B13006   2.633   6.575   6.339  0.8023  1.4506 -2.2970
  123OSM    C1113007   2.445   6.614   6.414  0.2837 -0.4061 -0.3224
  123OSM   H11A13008   2.453   6.515   6.463  1.1589  0.2941  0.9942
  123OSM   H11B13009   2.394   6.597   6.317  0.8693 -3.1049 -0.2259
  123OSM      P13010   2.235   6.716   6.536  0.2587  0.2237  0.3220
  123OSM    O1313011   2.194   6.856   6.568  0.4022  0.0530 -0.1607
  123OSM    O1413012   2.154   6.640   6.436  0.2543  0.6651 -0.0619
  123OSM    O1113013   2.228   6.635   6.664  0.1206  0.6239 -0.3049
  123OSM    O1213014   2.387   6.719   6.495 -0.7843  0.1994  0.5301
  123OSM    C1S13015   2.332   6.607   6.756 -0.3415  0.5277 -0.1902
  123OSM    H1S13016   2.366   6.709   6.781 -2.1236  2.4070 -4.4755
  123OSM    H1T13017   2.411   6.546   6.706 -0.7867  0.3294 -0.6633
  123OSM     NF13018   2.352   6.599   7.002 -0.5576 -0.1426  0.2168
  123OSM    HNF13019   2.431   6.544   7.026 -0.5426 -0.7889 -1.1839
  123OSM    C2S13020   2.276   6.541   6.890 -0.8551  0.3146 -0.6709
  123OSM    H2S13021   2.170   6.575   6.898 -0.6406  0.5614  2.3060
  123OSM    C3S13022   2.271   6.389   6.864 -0.4591 -0.2252 -0.0942
  123OSM    H3S13023   2.373   6.356   6.837  0.0436  0.7313  0.5731
  123OSM     O313024   2.190   6.364   6.750  0.3035 -0.1807  0.1273
  123OSM    HO313025   2.163   6.451   6.721  0.8451  0.1908  0.7383
  123OSM    C4S13026   2.226   6.308   6.974  0.2933  0.4075 -0.0204
  123OSM    H4S13027   2.288   6.223   7.008 -0.6648 -0.0331  0.6978
  123OSM    C5S13028   2.110   6.333   7.045  0.7001 -0.2727 -0.1750
  123OSM    H5S13029   2.046   6.419   7.022 -0.2978 -1.1113 -0.6193
  123OSM    C6S13030   2.073   6.253   7.168  0.1413 -0.3212 -0.0885
  123OSM    H6S13031   1.980   6.204   7.130  0.4425 -0.0525 -1.2315
  123OSM    H6T13032   2.044   6.314   7.256 -2.0676 -0.6816 -0.4845
  123OSM    C7S13033   2.167   6.133   7.205 -0.1550  0.1877  0.6601
  123OSM    H7S13034   2.269   6.160   7.238  0.4439  0.3393 -1.2084
  123OSM    H7T13035   2.179   6.086   7.105  2.5429  1.8841  0.0915
  123OSM    C8S13036   2.095   6.024   7.294  0.1773  1.1403  0.0497
  123OSM    H8S13037   2.108   5.923   7.250 -0.2668  0.9359  0.3787
  123OSM    H8T13038   1.986   6.042   7.298  0.1921  1.3227 -0.3863
  123OSM    C9S13039   2.145   6.017   7.437  0.5303  0.2299  0.3645
  123OSM    H9S13040   2.159   6.122   7.469  2.5283  0.5462 -1.3590
  123OSM    H9T13041   2.243   5.964   7.432  0.3399 -0.0014 -1.2530
  123OSM   C10S13042   2.052   5.946   7.536 -0.4490 -0.0027  0.1560
  123OSM   H10S13043   2.051   5.837   7.514 -0.2554 -0.5664  2.6418
  123OSM   H10T13044   1.951   5.978   7.505 -0.7360 -0.5529  0.5029
  123OSM   C11S13045   2.096   5.971   7.684  0.4238 -0.1694  0.0598
  123OSM   H11S13046   2.113   6.079   7.705 -0.3305  0.6694 -3.0032
  123OSM   H11T13047   2.195   5.922   7.686 -0.4705 -2.0088  0.9807
  123OSM   C12S13048   1.988   5.914   7.775 -0.0475 -0.1859  0.7021
  123OSM   H12S13049   1.949   5.813   7.750  0.8205 -0.9379  2.2371
  123OSM   H12T13050   1.898   5.978   7.790 -0.4490 -0.5490 -0.1265
  123OSM   C13S13051   2.041   5.908   7.917 -0.4948 -0.4794 -0.1368
  123OSM   H13S13052   2.058   6.012   7.952  0.0550 -0.3597 -0.7413
  123OSM   H13T13053   2.133   5.846   7.919 -0.5555 -0.5667 -0.0029
  123OSM   C14S13054   1.933   5.860   8.018  0.7064 -0.0187 -0.6566
  123OSM   H14S13055   1.883   5.779   7.960  3.2985 -0.9622 -1.7237
  123OSM   H14T13056   1.848   5.927   8.043  0.6569  0.0184 -0.9156
  123OSM   C15S13057   1.993   5.803   8.147  0.2808  0.2746  0.1716
  123OSM   H15S13058   2.049   5.873   8.212 -0.5413  0.2038  0.9690
  123OSM   H15T13059   2.064   5.725   8.111 -1.6137 -0.7207 -1.6920
  123OSM   C16S13060   1.887   5.726   8.237  0.3113  0.1309 -0.0696
  123OSM   H16S13061   1.801   5.796   8.243  0.3831  0.2001  0.2014
  123OSM   H16T13062   1.930   5.724   8.339  1.8869  0.5689 -0.6935
  123OSM   C17S13063   1.851   5.589   8.181 -0.6920 -0.2787 -0.4879
  123OSM   H17S13064   1.952   5.543   8.179 -0.9137 -1.0431  1.9844
  123OSM   H17T13065   1.803   5.596   8.081 -1.0795  2.8397 -0.1804
  123OSM   C18S13066   1.759   5.497   8.261 -0.1376 -0.1688 -0.1746
  123OSM   H18S13067   1.789   5.496   8.368 -0.3990  1.6943 -0.0371
  123OSM   H18T13068   1.746   5.400   8.208 -0.3582 -0.5337  0.5376
  123OSM   H18U13069   1.653   5.533   8.257 -0.5252 -1.1092  1.0842
  123OSM    C1F13070   2.326   6.727   7.038 -0.9282 -0.9021 -0.7635
  123OSM     OF13071   2.211   6.768   7.047 -0.4332  0.5474 -0.1150
  123OSM    C2F13072   2.454   6.808   7.075 -0.1596  0.6717 -0.1646
  123OSM    H2F13073   2.490   6.849   6.978  0.7907 -3.0742 -1.6071
  123OSM    H2G13074   2.528   6.734   7.113 -1.6635 -1.2962 -0.8794
  123OSM    C3F13075   2.443   6.928   7.179  0.6190  1.1758 -0.0837
  123OSM    H3F13076   2.360   6.997   7.152  0.7907  0.9639 -1.2063
  123OSM    H3G13077   2.540   6.981   7.174  3.5077 -3.6032 -1.2644
  123OSM    C4F13078   2.430   6.888   7.328  0.2178 -0.4240  0.1007
  123OSM    H4F13079   2.346   6.815   7.336 -0.4388  0.2055 -0.7780
  123OSM    H4G13080   2.399   6.975   7.390  1.1440  1.3223 -1.7495
  123OSM    C5F13081   2.575   6.848   7.370  0.1366  0.2223  0.0470
  123OSM    H5F13082   2.634   6.941   7.362 -0.6270  0.9213  1.8991
  123OSM    H5G13083   2.611   6.765   7.305  1.6081 -1.4562  2.7552
  123OSM    C6F13084   2.584   6.795   7.509  0.5713  0.7918  0.7089
  123OSM    H6F13085   2.675   6.732   7.518  0.1402  0.0365 -0.0464
  123OSM    H6G13086   2.492   6.736   7.529  0.6266  0.0788 -0.9548
  123OSM    C7F13087   2.600   6.894   7.622  0.8157  0.6781 -0.2513
  123OSM    H7F13088   2.500   6.935   7.644 -0.3388 -2.6713  1.5503
  123OSM    H7G13089   2.661   6.981   7.589 -0.0618  1.1079 -0.7722
  123OSM    C8F13090   2.640   6.834   7.761  0.9742 -0.9669  0.1873
  123OSM    H8F13091   2.702   6.742   7.750 -0.8156 -2.4956  2.0200
  123OSM    H8G13092   2.546   6.810   7.815 -0.2587  4.3687  0.9653
  123OSM    C9F13093   2.705   6.941   7.844 -0.9872  0.0698  0.0852
  123OSM    H9F13094   2.665   7.043   7.841  0.0488  0.4650 -1.6715
  123OSM   C10F13095   2.799   6.902   7.934  0.0821  0.2180  0.3269
  123OSM   H10F13096   2.833   6.979   8.004 -0.8552  0.2077  0.8067
  123OSM   C11F13097   2.843   6.759   7.961  0.9419  0.0280  0.1473
  123OSM   H11F13098   2.908   6.712   7.884  1.9117 -0.1208  1.0436
  123OSM   H11G13099   2.752   6.700   7.984  1.5529 -0.4117  1.5622
  123OSM   C12F13100   2.927   6.767   8.096  0.0186  0.0920 -0.0556
  123OSM   H12F13101   2.872   6.823   8.175  0.9853  0.7896  0.1532
  123OSM   H12G13102   3.021   6.827   8.086  0.4766 -0.4150  1.0508
  123OSM   C13F13103   2.977   6.629   8.157  0.7293 -1.1461 -0.5369
  123OSM   H13F13104   3.045   6.572   8.091 -0.4463 -0.6749 -2.2353
  123OSM   H13G13105   2.879   6.576   8.160 -0.0002  0.0881 -1.3590
  123OSM   C14F13106   3.031   6.639   8.302  0.2244 -0.6312  0.3366
  123OSM   H14F13107   2.961   6.708   8.352  0.0184 -0.5092 -0.1140
  123OSM   H14G13108   3.131   6.686   8.294  0.2399 -0.4315  1.5194
  123OSM   C15F13109   3.045   6.510   8.383  0.4624 -0.2445  0.0023
  123OSM   H15F13110   3.126   6.449   8.336 -1.6407 -1.9362 -1.6474
  123OSM   H15G13111   2.948   6.459   8.362  1.3406 -0.8416 -3.1077
  123OSM   C16F13112   3.085   6.533   8.534  0.1714 -0.1114  0.0083
  123OSM   H16F13113   3.018   6.612   8.574  0.9980  0.5666  0.0780
  123OSM   H16G13114   3.188   6.574   8.535 -0.7671  2.5059 -1.3755
  123OSM   C17F13115   3.042   6.406   8.618  0.1038 -0.2380  0.0662
  123OSM   H17F13116   3.135   6.345   8.616  0.9808  0.8704  2.9987
  123OSM   H17G13117   2.956   6.355   8.571  0.1945 -0.2638 -0.0758
  123OSM   C18F13118   3.012   6.430   8.767  0.2867 -0.6126 -0.8570
  123OSM   H18F13119   2.985   6.335   8.818 -1.5647  0.7180  0.8237
  123OSM   H18G13120   2.918   6.489   8.775  2.0625  2.2562  0.6630
  123OSM   H18H13121   3.096   6.482   8.817 -0.9377 -0.1029  0.7481
  124OSM      N13122   2.000   4.077   6.075 -0.0370 -0.3687 -0.1913
  124OSM    C1513123   2.030   3.936   6.065 -0.2925 -0.2587  0.8316
  124OSM   H15A13124   2.129   3.917   6.103  0.7201  1.1247 -0.9720
  124OSM   H15B13125   2.014   3.896   5.966 -0.8334 -0.1854  0.8819
  124OSM   H15C13126   1.965   3.881   6.132  0.4551  1.0610  2.7215
  124OSM    C1413127   1.852   4.098   6.035 -0.1166  0.2271  0.4628
  124OSM   H14A13128   1.804   4.049   6.118 -1.9401 -0.7221 -1.0841
  124OSM   H14B13129   1.829   4.052   5.940  1.2199  0.7657 -0.1451
  124OSM   H14C13130   1.829   4.203   6.039 -0.1920  0.3697 -2.0114
  124OSM    C1313131   2.017   4.116   6.216 -0.3908 -0.2666 -0.7742
  124OSM   H13A13132   1.977   4.039   6.280  0.2218 -0.8119 -1.0311
  124OSM   H13B13133   1.962   4.206   6.239 -0.9030  0.3657 -3.9544
  124OSM   H13C13134   2.121   4.138   6.237 -1.0613  1.8876  0.5827
  124OSM    C1213135   2.084   4.165   5.983  0.2570 -0.9739 -0.3304
  124OSM   H12A13136   2.072   4.122   5.885  0.1942  1.9967 -1.7308
  124OSM   H12B13137   2.188   4.167   6.013  0.6393  0.7130 -1.6635
  124OSM    C1113138   2.058   4.324   5.978  0.4242  0.0289 -0.2616
  124OSM   H11A13139   1.954   4.344   5.946 -1.0705 -3.3470  1.8759
  124OSM   H11B13140   2.133   4.368   5.908  0.4092  0.4945  0.0133
  124OSM      P13141   2.044   4.518   6.156  0.0689 -0.2636  0.1384
  124OSM    O1313142   2.124   4.618   6.084 -0.2922  0.1411  0.1935
  124OSM    O1413143   1.899   4.531   6.154  0.2755  0.0533  0.1476
  124OSM    O1113144   2.084   4.523   6.306 -0.6043 -0.4464 -0.0816
  124OSM    O1213145   2.081   4.374   6.107  0.1928  0.5697 -0.4624
  124OSM    C1S13146   2.068   4.420   6.392  0.6301 -0.6677  0.0340
  124OSM    H1S13147   2.122   4.329   6.357 -0.8342 -1.8323  0.6810
  124OSM    H1T13148   1.960   4.397   6.405 -0.3876  3.7721  0.8894
  124OSM     NF13149   2.104   4.348   6.627  0.1227 -0.0051 -0.2466
  124OSM    HNF13150   2.018   4.332   6.674 -0.4198  1.3051 -0.7545
  124OSM    C2S13151   2.105   4.459   6.537 -0.0488  0.2639  0.0991
  124OSM    H2S13152   2.207   4.502   6.531 -0.1558  0.3261 -1.7731
  124OSM    C3S13153   2.014   4.581   6.586  0.9230  0.4903 -0.0014
  124OSM    H3S13154   1.910   4.551   6.560  1.0759  0.1667 -0.2486
  124OSM     O313155   2.022   4.706   6.513 -0.2682  0.6421  0.5563
  124OSM    HO313156   2.047   4.674   6.426  0.4876 -0.5043  1.1639
  124OSM    C4S13157   2.038   4.609   6.725 -0.0955 -0.1231 -0.2933
  124OSM    H4S13158   2.120   4.680   6.744 -0.1268 -0.3699  0.8328
  124OSM    C5S13159   1.973   4.574   6.835 -0.3407  0.4047  0.4324
  124OSM    H5S13160   1.892   4.500   6.819  2.9345 -4.1080  2.3749
  124OSM    C6S13161   2.008   4.616   6.975  0.5573  0.2313 -0.0634
  124OSM    H6S13162   2.037   4.723   6.973 -2.6785  1.2147 -0.0211
  124OSM    H6T13163   2.100   4.557   6.997 -0.0730 -0.2905  1.2682
  124OSM    C7S13164   1.892   4.596   7.076 -0.1608  0.9910 -0.1050
  124OSM    H7S13165   1.873   4.487   7.066  0.4327  0.8909 -0.2135
  124OSM    H7T13166   1.793   4.632   7.042 -0.0149  0.7446 -0.8198
  124OSM    C8S13167   1.909   4.631   7.221 -0.5488  0.0921  0.6513
  124OSM    H8S13168   1.936   4.738   7.226 -1.8907  0.5002 -0.2310
  124OSM    H8T13169   1.983   4.567   7.274 -0.8081  0.3513  1.3330
  124OSM    C9S13170   1.780   4.622   7.287  0.0568  0.7107  0.0738
  124OSM    H9S13171   1.753   4.518   7.315  0.3953  0.8355  0.9199
  124OSM    H9T13172   1.701   4.661   7.220 -0.6470 -1.8738 -0.7077
  124OSM   C10S13173   1.776   4.710   7.416 -0.0066  0.0529  0.4001
  124OSM   H10S13174   1.825   4.807   7.392  0.1042 -0.3860 -1.2347
  124OSM   H10T13175   1.851   4.663   7.484  0.8582  0.4562 -0.2603
  124OSM   C11S13176   1.629   4.719   7.468  0.2571  0.2752  0.4064
  124OSM   H11S13177   1.577   4.621   7.472  0.7498  0.0503  2.9780
  124OSM   H11T13178   1.574   4.779   7.392 -0.9474  0.2496  1.2387
  124OSM   C12S13179   1.613   4.789   7.602 -1.1877 -0.1058  0.0835
  124OSM   H12S13180   1.644   4.895   7.600  0.7654 -0.6428 -1.3567
  124OSM   H12T13181   1.692   4.750   7.670  0.5403 -1.7126 -2.6499
  124OSM   C13S13182   1.471   4.786   7.656  0.4404 -0.4664 -0.6754
  124OSM   H13S13183   1.451   4.680   7.683 -0.8184  0.1155  0.7702
  124OSM   H13T13184   1.401   4.813   7.574 -2.0241 -2.3985  0.6765
  124OSM   C14S13185   1.455   4.892   7.772  0.3024 -0.2089  0.5447
  124OSM   H14S13186   1.448   4.994   7.727 -0.6022  0.2592  1.6755
  124OSM   H14T13187   1.545   4.891   7.837  0.4323  0.5501  0.3938
  124OSM   C15S13188   1.327   4.875   7.864  0.0051 -0.7819  0.2828
  124OSM   H15S13189   1.239   4.856   7.800  0.2379 -1.1539  0.0715
  124OSM   H15T13190   1.325   4.972   7.918  3.0350  1.6839 -3.4946
  124OSM   C16S13191   1.338   4.763   7.971 -0.6093  0.0181  0.5607
  124OSM   H16S13192   1.417   4.787   8.046  0.1108  0.4646 -0.3297
  124OSM   H16T13193   1.364   4.666   7.925 -1.0262 -0.3256  1.0324
  124OSM   C17S13194   1.209   4.760   8.062 -0.0795 -0.5443 -0.1946
  124OSM   H17S13195   1.120   4.766   7.996  0.3765  0.3979 -0.7476
  124OSM   H17T13196   1.213   4.849   8.129 -2.3928 -1.4526  1.2934
  124OSM   C18S13197   1.207   4.645   8.164  0.5114 -0.0344 -0.2213
  124OSM   H18S13198   1.203   4.548   8.111  1.0985 -0.2279  0.0785
  124OSM   H18T13199   1.110   4.661   8.216 -0.6302  0.9037 -2.4981
  124OSM   H18U13200   1.290   4.651   8.239  1.2331  0.0152 -1.0046
  124OSM    C1F13201   2.187   4.246   6.619  0.5608 -0.6591  0.4116
  124OSM     OF13202   2.281   4.256   6.545  0.3289 -0.1733 -0.4204
  124OSM    C2F13203   2.152   4.122   6.692  0.2055  0.1049 -0.5988
  124OSM    H2F13204   2.045   4.097   6.676  0.8566 -1.9030 -2.3936
  124OSM    H2G13205   2.166   4.135   6.801  1.5775 -3.2146 -0.2503
  124OSM    C3F13206   2.230   4.006   6.641 -0.2897  0.3770 -0.3169
  124OSM    H3F13207   2.335   4.041   6.630  0.1466 -0.7934 -0.0090
  124OSM    H3G13208   2.197   3.982   6.537 -0.4397 -0.1236 -0.1539
  124OSM    C4F13209   2.222   3.871   6.719 -0.0751 -0.4254  0.4481
  124OSM    H4F13210   2.263   3.871   6.822  0.8707  0.4411  0.0944
  124OSM    H4G13211   2.276   3.797   6.655  3.3185 -0.8702  3.4871
  124OSM    C5F13212   2.073   3.824   6.720 -0.7577  0.5954  0.1957
  124OSM    H5F13213   2.056   3.715   6.740  1.7122  0.4957  2.2194
  124OSM    H5G13214   2.015   3.852   6.629  1.9302 -2.0174 -2.5678
  124OSM    C6F13215   1.995   3.876   6.842  0.3901  0.2555 -0.1535
  124OSM    H6F13216   2.040   3.969   6.883  0.8622  0.0478 -0.1952
  124OSM    H6G13217   1.977   3.801   6.921 -0.1340  1.0456  0.4978
  124OSM    C7F13218   1.849   3.920   6.810 -0.1361  0.1546  0.2356
  124OSM    H7F13219   1.788   3.831   6.785 -0.6973  0.6934 -0.3618
  124OSM    H7G13220   1.842   3.984   6.719  0.0049 -1.6382 -1.0939
  124OSM    C8F13221   1.789   4.007   6.923 -0.4769 -0.5230 -0.2631
  124OSM    H8F13222   1.846   4.102   6.928  1.5630 -1.5665 -1.9248
  124OSM    H8G13223   1.801   3.958   7.022 -1.0196 -1.7479 -0.7740
  124OSM    C9F13224   1.644   4.017   6.879 -0.3767  0.3955 -0.0897
  124OSM    H9F13225   1.620   4.094   6.803 -4.5711 -1.0893 -0.5231
  124OSM   C10F13226   1.533   3.959   6.935 -0.5820  0.4173  0.9967
  124OSM   H10F13227   1.433   3.958   6.889 -0.4650  1.4465  0.6786
  124OSM   C11F13228   1.544   3.870   7.055  0.0004  0.0498  0.2442
  124OSM   H11F13229   1.641   3.833   7.094 -1.3130  0.6994  4.7232
  124OSM   H11G13230   1.480   3.780   7.038  0.4355 -0.5375  1.5701
  124OSM   C12F13231   1.488   3.938   7.180 -0.5693  0.3551 -0.2259
  124OSM   H12F13232   1.542   4.034   7.195 -2.3748  1.0714  2.3002
  124OSM   H12G13233   1.506   3.864   7.260  0.6347  1.1535  0.2615
  124OSM   C13F13234   1.339   3.982   7.175 -0.0616  0.0492  0.4317
  124OSM   H13F13235   1.282   3.887   7.162  1.7994 -0.9484 -1.0187
  124OSM   H13G13236   1.325   4.052   7.090 -0.5272 -0.4770  0.0694
  124OSM   C14F13237   1.285   4.034   7.307  0.1374 -0.3088  0.6600
  124OSM   H14F13238   1.183   4.070   7.280  0.6613  2.7722  2.2751
  124OSM   H14G13239   1.347   4.123   7.331  1.0720 -0.4921 -0.9242
  124OSM   C15F13240   1.279   3.935   7.418 -0.3821 -0.6117 -0.4354
  124OSM   H15F13241   1.378   3.893   7.447  0.5545  0.0007 -2.5438
  124OSM   H15G13242   1.213   3.855   7.378 -1.0673 -0.3655  0.1732
  124OSM   C16F13243   1.207   3.991   7.543  0.8875  0.5635 -0.1288
  124OSM   H16F13244   1.109   4.022   7.501  1.0018 -1.1923 -1.8617
  124OSM   H16G13245   1.265   4.074   7.587  5.1264 -3.3892  2.6066
  124OSM   C17F13246   1.196   3.889   7.648  0.9145  0.4045 -0.1128
  124OSM   H17F13247   1.302   3.866   7.672  0.6896 -1.9459 -1.0461
  124OSM   H17G13248   1.140   3.800   7.610 -1.3520  1.0649  1.4649
  124OSM   C18F13249   1.133   3.941   7.780  0.2069  0.3558  0.2254
  124OSM   H18F13250   1.135   3.857   7.853 -1.5578 -1.8504 -2.0696
  124OSM   H18G13251   1.033   3.988   7.766 -0.2627 -1.0642 -1.5841
  124OSM   H18H13252   1.197   4.019   7.827 -0.5585  1.8619 -1.1445
  125OSM      N13253   5.033   2.161   6.317 -0.6072 -0.3580 -0.1852
  125OSM    C1513254   4.923   2.182   6.413 -0.4993 -0.0716 -0.0474
  125OSM   H15A13255   4.845   2.209   6.343  0.0318 -5.0821 -3.1547
  125OSM   H15B13256   4.955   2.261   6.478 -1.5421 -0.2604  0.7169
  125OSM   H15C13257   4.909   2.097   6.479 -1.2235 -0.2914 -0.4724
  125OSM    C1413258   5.165   2.162   6.390 -0.1197  0.0574  0.0406
  125OSM   H14A13259   5.193   2.266   6.399 -1.5732  0.4400  0.2787
  125OSM   H14B13260   5.236   2.100   6.337 -0.5907 -1.3162  0.9514
  125OSM   H14C13261   5.145   2.109   6.483  0.3790  0.9660  0.6782
  125OSM    C1313262   5.009   2.028   6.264 -0.3071 -0.5404 -0.3374
  125OSM   H13A13263   4.917   2.029   6.207  0.3766  0.9424 -1.4968
  125OSM   H13B13264   4.996   1.954   6.341  1.2537  0.3952  0.9055
  125OSM   H13C13265   5.086   1.998   6.194 -1.7899  0.5151 -2.5404
  125OSM    C1213266   5.040   2.261   6.205 -0.1977  1.2034  0.2631
  125OSM   H12A13267   5.115   2.219   6.139 -1.8193 -0.2035 -0.8105
  125OSM   H12B13268   5.070   2.359   6.235 -1.0641  1.7037 -0.4355
  125OSM    C1113269   4.908   2.286   6.119 -0.1607  0.5289 -0.4207
  125OSM   H11A13270   4.856   2.191   6.094 -0.4263  0.6971 -0.5114
  125OSM   H11B13271   4.936   2.335   6.023  1.0646  0.2859 -0.2056
  125OSM      P13272   4.836   2.526   6.191  0.2271 -0.1184 -0.1098
  125OSM    O1313273   4.980   2.550   6.190  0.0081 -0.4463  0.1277
  125OSM    O1413274   4.756   2.581   6.081  1.0010  0.2862  0.2884
  125OSM    O1113275   4.785   2.581   6.327 -0.2857 -0.1477 -0.0921
  125OSM    O1213276   4.820   2.368   6.196  0.1598 -0.0175 -0.1767
  125OSM    C1S13277   4.721   2.496   6.425 -0.3139  0.0880 -0.6572
  125OSM    H1S13278   4.802   2.431   6.464 -1.4512 -1.5582 -0.9376
  125OSM    H1T13279   4.646   2.426   6.382  2.0792 -2.2917 -1.2433
  125OSM     NF13280   4.661   2.469   6.660  0.2068  0.0245 -0.1853
  125OSM    HNF13281   4.564   2.450   6.671  0.0923 -0.1105 -1.2823
  125OSM    C2S13282   4.681   2.571   6.557  0.5463 -0.1428  0.0566
  125OSM    H2S13283   4.763   2.641   6.585  1.2151 -0.3415 -1.3357
  125OSM    C3S13284   4.557   2.664   6.522 -0.0169 -0.1166 -0.0491
  125OSM    H3S13285   4.487   2.594   6.471  0.7678 -0.1983 -1.0405
  125OSM     O313286   4.591   2.767   6.434 -0.6440 -0.1109 -0.1951
  125OSM    HO313287   4.665   2.726   6.389  0.8177  0.1579  1.8498
  125OSM    C4S13288   4.485   2.713   6.645 -0.9118 -0.0186 -0.3096
  125OSM    H4S13289   4.387   2.669   6.669  0.0208 -2.3057 -0.4844
  125OSM    C5S13290   4.539   2.807   6.728  0.0290  0.4113 -0.1922
  125OSM    H5S13291   4.638   2.845   6.700 -0.9693  1.0203 -3.2904
  125OSM    C6S13292   4.472   2.860   6.848  0.2723 -0.0537  0.0934
  125OSM    H6S13293   4.364   2.837   6.848  0.6773 -2.4569 -2.1547
  125OSM    H6T13294   4.473   2.970   6.863 -2.4656 -0.2359  2.3769
  125OSM    C7S13295   4.538   2.802   6.978 -0.1531  0.4953 -0.0508
  125OSM    H7S13296   4.627   2.861   7.010 -1.9704  4.3014 -1.3633
  125OSM    H7T13297   4.570   2.699   6.954 -0.5686  0.4444 -0.4077
  125OSM    C8S13298   4.447   2.814   7.098  0.2421 -0.6265 -0.3660
  125OSM    H8S13299   4.370   2.734   7.089 -1.6562  1.1051 -0.2292
  125OSM    H8T13300   4.400   2.914   7.108  1.9814  0.5549 -3.0896
  125OSM    C9S13301   4.530   2.792   7.229 -0.1056 -0.4703 -0.6902
  125OSM    H9S13302   4.583   2.888   7.249  0.2210 -0.9654  0.8889
  125OSM    H9T13303   4.597   2.706   7.209 -0.5115 -1.3408  1.4829
  125OSM   C10S13304   4.438   2.737   7.343 -0.1013 -0.0639  0.7994
  125OSM   H10S13305   4.412   2.634   7.310 -0.1444  0.5140 -1.1241
  125OSM   H10T13306   4.338   2.784   7.351 -0.5742  0.0720 -3.3924
  125OSM   C11S13307   4.512   2.741   7.473 -0.1711  0.1669  0.8251
  125OSM   H11S13308   4.559   2.838   7.501 -0.5432  0.7132 -0.3857
  125OSM   H11T13309   4.599   2.674   7.459 -0.9401 -0.9509  1.2376
  125OSM   C12S13310   4.429   2.695   7.586  0.0708  0.1344  0.3335
  125OSM   H12S13311   4.363   2.611   7.557 -3.0497  0.3864  5.4206
  125OSM   H12T13312   4.364   2.783   7.607 -0.1043  0.2486 -0.6665
  125OSM   C13S13313   4.509   2.661   7.713 -0.1591 -0.0039 -0.7883
  125OSM   H13S13314   4.615   2.635   7.692  0.2638  0.6374  0.4455
  125OSM   H13T13315   4.469   2.568   7.759  1.1002 -0.8494 -1.3543
  125OSM   C14S13316   4.499   2.769   7.826  0.2291  0.0519 -0.6412
  125OSM   H14S13317   4.398   2.800   7.862  0.8537 -0.2385  1.5250
  125OSM   H14T13318   4.539   2.870   7.803 -0.3036  0.8523  1.6958
  125OSM   C15S13319   4.577   2.710   7.948 -0.2682  0.2928  0.0966
  125OSM   H15S13320   4.673   2.677   7.903 -0.0008  0.5377  0.4911
  125OSM   H15T13321   4.530   2.620   7.992  0.4161  0.2729  0.8081
  125OSM   C16S13322   4.591   2.834   8.052  0.6524  0.6845 -0.1727
  125OSM   H16S13323   4.492   2.861   8.096  0.2261  0.9816 -1.2704
  125OSM   H16T13324   4.614   2.923   7.990 -2.8327 -0.2377 -3.1600
  125OSM   C17S13325   4.675   2.800   8.176  0.3197 -0.1765 -0.3562
  125OSM   H17S13326   4.774   2.779   8.130 -0.9444 -0.8679 -2.9531
  125OSM   H17T13327   4.636   2.705   8.218 -0.0603 -1.1430 -2.7381
  125OSM   C18S13328   4.690   2.906   8.284 -0.8857  0.0170  0.1312
  125OSM   H18S13329   4.596   2.911   8.342 -0.8592  2.0436  0.0528
  125OSM   H18T13330   4.720   3.003   8.239  1.2433  0.1054  1.5948
  125OSM   H18U13331   4.772   2.871   8.351 -0.6843 -1.4456 -0.8089
  125OSM    C1F13332   4.763   2.390   6.713 -0.3415 -0.0710 -0.6811
  125OSM     OF13333   4.875   2.417   6.686 -0.5721  0.4107  0.9443
  125OSM    C2F13334   4.711   2.270   6.795 -0.5368  0.2987  0.1665
  125OSM    H2F13335   4.681   2.194   6.721 -1.5507 -0.7064  1.5503
  125OSM    H2G13336   4.624   2.304   6.856 -1.0245  0.2525 -0.4956
  125OSM    C3F13337   4.809   2.212   6.898  0.3545 -0.0514  0.4519
  125OSM    H3F13338   4.883   2.156   6.837 -1.8381 -1.4827 -1.0109
  125OSM    H3G13339   4.756   2.130   6.951 -3.1411  0.4950 -1.8844
  125OSM    C4F13340   4.872   2.312   6.993 -0.1070 -0.1525  0.3229
  125OSM    H4F13341   4.854   2.413   6.950  0.8910 -0.6577 -1.4185
  125OSM    H4G13342   4.983   2.306   6.997 -0.1189 -1.1092 -0.3327
  125OSM    C5F13343   4.807   2.307   7.130 -0.3574  0.1402 -0.3051
  125OSM    H5F13344   4.808   2.199   7.158 -0.7589 -0.1058 -1.1948
  125OSM    H5G13345   4.704   2.345   7.112  0.0585  0.7760 -1.4413
  125OSM    C6F13346   4.869   2.402   7.238  0.1884  0.4834  0.2924
  125OSM    H6F13347   4.880   2.503   7.193  1.0888  0.8157  1.2128
  125OSM    H6G13348   4.972   2.375   7.269  0.6707  3.7219  1.9789
  125OSM    C7F13349   4.777   2.420   7.360 -0.2808 -0.7481  0.6536
  125OSM    H7F13350   4.761   2.321   7.407 -0.5849 -1.8129 -1.5937
  125OSM    H7G13351   4.676   2.461   7.340 -0.8282 -2.7060 -0.8080
  125OSM    C8F13352   4.848   2.500   7.469  0.1459 -0.1830  0.4248
  125OSM    H8F13353   4.765   2.520   7.540 -1.6077 -2.4092 -0.8482
  125OSM    H8G13354   4.881   2.593   7.416 -3.1643  0.2269 -1.2142
  125OSM    C9F13355   4.965   2.430   7.534 -0.4730 -0.3739  0.2276
  125OSM    H9F13356   5.018   2.351   7.480  0.8859  1.0224 -0.5709
  125OSM   C10F13357   5.003   2.454   7.662 -0.4597 -0.0723  0.1922
  125OSM   H10F13358   5.095   2.407   7.699  1.6054  1.6619 -2.3601
  125OSM   C11F13359   4.936   2.557   7.749 -0.8485 -0.3038  0.7826
  125OSM   H11F13360   4.840   2.599   7.713  0.4559  1.9627 -0.2759
  125OSM   H11G13361   5.006   2.641   7.768  0.7093 -1.0215 -1.4067
  125OSM   C12F13362   4.901   2.515   7.893 -0.5150 -0.0665  0.9638
  125OSM   H12F13363   4.811   2.451   7.883  0.8282 -1.7176 -1.9347
  125OSM   H12G13364   4.879   2.612   7.943  1.4549 -0.6980  3.2519
  125OSM   C13F13365   5.012   2.436   7.967  0.0912  0.4135  0.3529
  125OSM   H13F13366   5.050   2.368   7.888 -0.6291  1.1391 -0.6392
  125OSM   H13G13367   4.965   2.378   8.049  0.1457  1.0049  0.8062
  125OSM   C14F13368   5.118   2.528   8.028 -0.1050  0.0631 -0.6839
  125OSM   H14F13369   5.112   2.629   7.983 -0.7746  1.2788  1.9524
  125OSM   H14G13370   5.205   2.470   7.989 -0.9959 -0.6540 -1.7032
  125OSM   C15F13371   5.135   2.527   8.178 -0.4039 -0.0469 -0.0980
  125OSM   H15F13372   5.243   2.526   8.206 -0.0233  0.3621 -1.4898
  125OSM   H15G13373   5.092   2.432   8.216 -4.5364  0.7191 -2.3202
  125OSM   C16F13374   5.059   2.653   8.238  0.1375  0.2402 -0.0844
  125OSM   H16F13375   5.041   2.649   8.348  0.1990  4.4196  0.2567
  125OSM   H16G13376   4.960   2.661   8.188 -0.2017 -2.4295  0.0159
  125OSM   C17F13377   5.143   2.784   8.239 -0.5204 -0.5227 -0.6613
  125OSM   H17F13378   5.168   2.822   8.138  0.2881 -0.1933 -0.3467
  125OSM   H17G13379   5.236   2.753   8.290 -0.5010 -1.6950 -1.3807
  125OSM   C18F13380   5.062   2.891   8.328  0.1388  0.3651 -0.0557
  125OSM   H18F13381   4.961   2.918   8.290 -0.4711  0.8747  1.8081
  125OSM   H18G13382   5.127   2.980   8.340 -0.4344  0.7522  0.2307
  125OSM   H18H13383   5.043   2.846   8.428 -0.2429  0.5326 -0.0485
  126OSM      N13384   3.505   1.346   6.378 -0.1564 -0.4010 -0.2743
  126OSM    C1513385   3.533   1.373   6.232  0.4042  0.0816 -0.0282
  126OSM   H15A13386   3.638   1.370   6.206  0.3656  2.7492 -0.7725
  126OSM   H15B13387   3.496   1.470   6.202  0.1773 -0.4710 -1.6309
  126OSM   H15C13388   3.488   1.295   6.172  0.2263  0.7591 -0.7917
  126OSM    C1413389   3.578   1.450   6.460  0.0623  0.8436 -0.4778
  126OSM   H14A13390   3.560   1.549   6.422  1.1364  0.7648 -1.2297
  126OSM   H14B13391   3.684   1.432   6.466  0.1181  0.6971 -1.5627
  126OSM   H14C13392   3.529   1.445   6.556 -0.6048 -1.0216 -0.8712
  126OSM    C1313393   3.359   1.369   6.408  0.5685 -0.1742  0.8398
  126OSM   H13A13394   3.334   1.471   6.381 -0.3538 -0.1859  1.5681
  126OSM   H13B13395   3.327   1.359   6.511 -0.2715  2.6497  0.9492
  126OSM   H13C13396   3.296   1.303   6.350  0.6983 -0.5377  1.1098
  126OSM    C1213397   3.543   1.208   6.413  0.6311  0.6602  0.1428
  126OSM   H12A13398   3.506   1.194   6.514  2.9016 -1.5854  0.7707
  126OSM   H12B13399   3.650   1.194   6.412  1.0232  3.1952  0.2658
  126OSM    C1113400   3.486   1.087   6.333  0.6883 -0.2130  0.2689
  126OSM   H11A13401   3.514   0.993   6.385 -1.0577 -1.9133 -1.6946
  126OSM   H11B13402   3.533   1.082   6.232 -0.4681  2.0373 -0.4415
  126OSM      P13403   3.256   0.994   6.243  0.0436 -0.0106  0.3122
  126OSM    O1313404   3.152   1.068   6.168  0.3299  0.6822 -0.0341
  126OSM    O1413405   3.341   0.896   6.169  0.2188 -0.0045 -0.6138
  126OSM    O1113406   3.182   0.919   6.366  0.0695  0.4361  0.0692
  126OSM    O1213407   3.346   1.101   6.324  0.0578 -0.2831 -0.1765
  126OSM    C1S13408   3.244   0.917   6.498  0.1914 -0.6211  0.2498
  126OSM    H1S13409   3.237   1.017   6.546 -3.2838 -0.5436 -0.1829
  126OSM    H1T13410   3.354   0.900   6.493  0.4748  1.2416 -0.4845
  126OSM     NF13411   3.265   0.806   6.715 -0.3527  0.3182  0.1022
  126OSM    HNF13412   3.309   0.719   6.735 -1.2558 -0.0502  0.5206
  126OSM    C2S13413   3.172   0.815   6.602 -0.0325  0.6806 -0.4703
  126OSM    H2S13414   3.083   0.863   6.650  0.2665  0.4752  0.3116
  126OSM    C3S13415   3.136   0.678   6.533 -0.4984  0.6967  0.3984
  126OSM    H3S13416   3.221   0.627   6.485 -1.7446 -0.3546 -0.7832
  126OSM     O313417   3.052   0.700   6.425  0.2956  0.2160  0.3019
  126OSM    HO313418   3.038   0.795   6.417 -1.3292 -0.1510 -3.4962
  126OSM    C4S13419   3.067   0.586   6.634 -0.1277 -0.2304  0.7841
  126OSM    H4S13420   3.129   0.508   6.681 -0.4941 -1.2654 -0.3830
  126OSM    C5S13421   2.945   0.596   6.688 -0.4711  0.0930 -0.3724
  126OSM    H5S13422   2.888   0.689   6.678 -0.9011 -0.2136 -0.8234
  126OSM    C6S13423   2.882   0.511   6.795 -0.2639  0.8983  0.2754
  126OSM    H6S13424   2.776   0.503   6.761  0.7132 -0.0170 -2.9716
  126OSM    H6T13425   2.882   0.567   6.891  2.0549  0.7299  0.4353
  126OSM    C7S13426   2.948   0.375   6.827 -0.4731 -0.2996  0.7245
  126OSM    H7S13427   3.055   0.399   6.849 -0.2619  2.1558 -2.3442
  126OSM    H7T13428   2.955   0.300   6.746 -0.6924 -1.9290  2.1425
  126OSM    C8S13429   2.887   0.308   6.952  0.1533 -0.4302  0.5151
  126OSM    H8S13430   2.796   0.254   6.918 -0.0551 -0.3022  0.8717
  126OSM    H8T13431   2.868   0.386   7.028  1.9049  2.2078 -1.5732
  126OSM    C9S13432   2.981   0.199   7.025  0.6518 -0.1418  0.1245
  126OSM    H9S13433   3.058   0.259   7.078 -0.5638  0.6250  1.0886
  126OSM    H9T13434   3.022   0.131   6.947 -2.2189 -2.4095  0.4127
  126OSM   C10S13435   2.891   0.129   7.131 -0.4943  0.2752  0.4716
  126OSM   H10S13436   2.795   0.104   7.081  0.6584 -0.9899 -1.2304
  126OSM   H10T13437   2.860   0.190   7.219 -0.5177 -0.3115  0.8709
  126OSM   C11S13438   2.959  -0.008   7.172  0.3997 -0.3671  0.2983
  126OSM   H11S13439   3.012  -0.051   7.085  1.8123 -0.4860  1.1825
  126OSM   H11T13440   2.881  -0.076   7.213 -2.4342  2.2240 -0.4588
  126OSM   C12S13441   3.053   0.025   7.287  0.0974 -0.0210 -0.0716
  126OSM   H12S13442   3.105   0.121   7.264 -0.1498  1.0391  3.2460
  126OSM   H12T13443   3.125  -0.060   7.297 -0.5270 -0.3555  1.9892
  126OSM   C13S13444   2.992   0.035   7.427 -0.0811  0.3913 -0.1102
  126OSM   H13S13445   2.929  -0.056   7.432 -2.5478  1.9735 -0.5548
  126OSM   H13T13446   2.917   0.117   7.432  0.0609  0.5008  0.2475
  126OSM   C14S13447   3.098   0.035   7.537 -0.1226  1.0061  0.3346
  126OSM   H14S13448   3.081   0.122   7.604 -0.4629 -0.9319  2.9083
  126OSM   H14T13449   3.200   0.035   7.493 -0.9638 -2.7327 -2.1730
  126OSM   C15S13450   3.097  -0.102   7.616  0.1204  0.0166 -0.8467
  126OSM   H15S13451   3.138  -0.183   7.552  1.1902 -0.7725  0.7544
  126OSM   H15T13452   2.994  -0.122   7.651  0.3364 -0.3999 -0.4315
  126OSM   C16S13453   3.203  -0.090   7.728  0.1889 -0.0950 -0.4952
  126OSM   H16S13454   3.161  -0.041   7.818  0.4532  2.5972 -1.7392
  126OSM   H16T13455   3.301  -0.049   7.695  1.6497 -2.1729  1.0002
  126OSM   C17S13456   3.255  -0.225   7.771  0.0179  0.6296 -0.1692
  126OSM   H17S13457   3.310  -0.275   7.688  1.5036 -2.2489  2.3234
  126OSM   H17T13458   3.174  -0.298   7.794  0.8506  0.2445  1.6782
  126OSM   C18S13459   3.335  -0.216   7.901 -0.5082 -0.0557  0.0534
  126OSM   H18S13460   3.280  -0.200   7.996  1.7672 -1.9987  1.8451
  126OSM   H18T13461   3.410  -0.134   7.898 -0.3720 -0.1278  1.1535
  126OSM   H18U13462   3.381  -0.315   7.923 -0.0348  0.5687  2.1814
  126OSM    C1F13463   3.292   0.910   6.795  0.5685  0.0579  0.1078
  126OSM     OF13464   3.235   1.016   6.794  0.3072  0.5160  0.5015
  126OSM    C2F13465   3.384   0.888   6.908  0.3189  0.2234  0.4186
  126OSM    H2F13466   3.484   0.855   6.873 -0.3899 -1.9302  0.2515
  126OSM    H2G13467   3.337   0.806   6.966 -0.8829 -0.0706 -0.9096
  126OSM    C3F13468   3.407   1.023   6.982  0.1443 -0.7530  0.2520
  126OSM    H3F13469   3.318   1.066   7.032 -0.8493 -0.6824 -1.4762
  126OSM    H3G13470   3.453   1.107   6.924  1.4003 -0.5606  1.4574
  126OSM    C4F13471   3.506   0.993   7.096  0.6462  0.3653  0.1834
  126OSM    H4F13472   3.599   0.949   7.056 -0.1821 -1.5562  0.2688
  126OSM    H4G13473   3.459   0.926   7.171 -2.9100  1.9469 -0.4243
  126OSM    C5F13474   3.538   1.117   7.182 -0.0372 -0.1251 -0.5544
  126OSM    H5F13475   3.446   1.175   7.205 -0.6618 -1.1593 -0.3529
  126OSM    H5G13476   3.597   1.181   7.114 -2.2691  1.8147 -0.8064
  126OSM    C6F13477   3.619   1.075   7.305  0.3542 -0.4963  0.3654
  126OSM    H6F13478   3.725   1.102   7.284  0.4426  1.9085  3.1902
  126OSM    H6G13479   3.617   0.965   7.321  1.3754 -0.3387  1.7750
  126OSM    C7F13480   3.580   1.170   7.424  0.1062  0.7980  0.3996
  126OSM    H7F13481   3.473   1.144   7.439  0.8924 -2.1257  1.6519
  126OSM    H7G13482   3.589   1.276   7.393  1.0326  0.2628 -1.3658
  126OSM    C8F13483   3.655   1.142   7.553 -0.0671 -0.4374 -1.0420
  126OSM    H8F13484   3.764   1.165   7.547  0.6370 -2.8396  0.5377
  126OSM    H8G13485   3.650   1.035   7.583  1.1765 -0.1671  0.2961
  126OSM    C9F13486   3.595   1.221   7.670 -0.3295  0.3702  0.0440
  126OSM    H9F13487   3.502   1.277   7.653  1.1173  2.5615 -1.0846
  126OSM   C10F13488   3.665   1.256   7.783  0.1086  0.5550  0.1867
  126OSM   H10F13489   3.605   1.302   7.863 -1.6764 -3.0861  1.1931
  126OSM   C11F13490   3.797   1.211   7.826  0.4997  0.0970  0.0202
  126OSM   H11F13491   3.861   1.302   7.825 -0.4794  0.8642 -2.8143
  126OSM   H11G13492   3.835   1.132   7.758 -0.8313 -1.3043  0.8549
  126OSM   C12F13493   3.790   1.158   7.968 -0.1517 -0.1207  0.0904
  126OSM   H12F13494   3.890   1.111   7.982  1.0123  2.3801  0.6535
  126OSM   H12G13495   3.717   1.074   7.971 -1.0476  0.6447  0.0193
  126OSM   C13F13496   3.772   1.264   8.078  0.6919 -0.0587  0.2851
  126OSM   H13F13497   3.694   1.340   8.054  1.3649  0.8916  1.0658
  126OSM   H13G13498   3.863   1.326   8.092 -0.6597  2.4417 -1.0794
  126OSM   C14F13499   3.747   1.193   8.212 -0.3191 -0.9805  0.3016
  126OSM   H14F13500   3.829   1.124   8.240 -1.1942 -1.8688  0.7500
  126OSM   H14G13501   3.661   1.126   8.192 -1.7997  1.1186 -0.7683
  126OSM   C15F13502   3.710   1.286   8.331  0.0601  0.0293  0.9627
  126OSM   H15F13503   3.675   1.244   8.428 -1.2087  2.7083  1.7694
  126OSM   H15G13504   3.627   1.351   8.297  0.5860  0.6917  0.9081
  126OSM   C16F13505   3.822   1.389   8.374  0.7323 -0.1198  0.2700
  126OSM   H16F13506   3.839   1.465   8.295 -2.3321  0.3580 -0.0675
  126OSM   H16G13507   3.913   1.329   8.394  1.2974  1.0630  1.3671
  126OSM   C17F13508   3.786   1.459   8.505 -0.1762 -0.3127 -0.2592
  126OSM   H17F13509   3.884   1.504   8.527  0.3033 -0.2344 -2.4044
  126OSM   H17G13510   3.759   1.389   8.587 -0.0852 -0.6051 -0.4779
  126OSM   C18F13511   3.683   1.574   8.498 -0.6957  0.0316  0.2778
  126OSM   H18F13512   3.675   1.613   8.601  1.6861  2.0133 -0.1838
  126OSM   H18G13513   3.584   1.538   8.463 -1.4380  0.5443  1.7936
  126OSM   H18H13514   3.714   1.660   8.434 -0.0911 -1.0845 -0.9995
  127OSM      N13515   1.013   3.835   6.144  0.0094 -0.5285  0.2128
  127OSM    C1513516   0.909   3.941   6.178  0.3034  0.1333 -0.4294
  127OSM   H15A13517   0.905   3.966   6.283  1.7403  0.4420 -0.4248
  127OSM   H15B13518   0.816   3.891   6.159  1.7426 -1.8756 -2.7986
  127OSM   H15C13519   0.913   4.032   6.120 -0.0232 -0.4798 -1.4264
  127OSM    C1413520   1.005   3.800   5.996  0.4083 -0.1264 -0.8128
  127OSM   H14A13521   1.076   3.720   5.981  0.8602 -0.1623  1.1830
  127OSM   H14B13522   1.033   3.891   5.945  2.3814 -0.5185 -0.5132
  127OSM   H14C13523   0.904   3.774   5.966  0.0439  0.4212 -0.0836
  127OSM    C1313524   1.149   3.887   6.180  0.8496 -1.0787 -0.1538
  127OSM   H13A13525   1.165   3.886   6.286  1.7959  0.9091 -0.2372
  127OSM   H13B13526   1.175   3.984   6.139 -0.4675 -0.4811  0.3574
  127OSM   H13C13527   1.228   3.829   6.135  0.7053 -1.1961 -0.2604
  127OSM    C1213528   0.981   3.710   6.231 -0.2349 -0.2062  0.1362
  127OSM   H12A13529   0.975   3.735   6.336 -0.0755 -2.3252  0.6925
  127OSM   H12B13530   1.057   3.634   6.226  0.9718  0.8918  1.0303
  127OSM    C1113531   0.852   3.636   6.194 -0.2524  0.3438 -0.0025
  127OSM   H11A13532   0.850   3.543   6.256  2.0007  1.4056  1.7978
  127OSM   H11B13533   0.858   3.603   6.088 -1.5764 -2.8188  0.7710
  127OSM      P13534   0.646   3.701   6.348  0.1373  0.6098  0.0071
  127OSM    O1313535   0.570   3.821   6.369  0.0333 -0.3685  0.2951
  127OSM    O1413536   0.571   3.575   6.345 -0.0433  0.2038  0.2720
  127OSM    O1113537   0.766   3.689   6.458  0.2313  0.2439 -0.0383
  127OSM    O1213538   0.729   3.711   6.213 -0.3198  0.0528 -0.6318
  127OSM    C1S13539   0.742   3.738   6.592  0.0686  0.3536  0.3210
  127OSM    H1S13540   0.651   3.800   6.600  2.7314  4.4279  2.8966
  127OSM    H1T13541   0.827   3.804   6.619  0.4669 -0.4092  0.9870
  127OSM     NF13542   0.667   3.651   6.811 -0.2721 -0.8344 -0.4407
  127OSM    HNF13543   0.728   3.668   6.888 -1.1557  2.3467 -0.3030
  127OSM    C2S13544   0.736   3.611   6.688  0.1865 -0.4698  0.2650
  127OSM    H2S13545   0.668   3.535   6.645 -1.1914  0.7975  0.1248
  127OSM    C3S13546   0.884   3.545   6.700  0.3894  0.1156  0.3008
  127OSM    H3S13547   0.954   3.624   6.736  0.4905  0.2426 -0.1604
  127OSM     O313548   0.940   3.505   6.573  0.2229  0.2810  0.3789
  127OSM    HO313549   0.887   3.552   6.509 -1.1102 -2.3456 -0.6168
  127OSM    C4S13550   0.885   3.428   6.800  0.3883 -0.2840  0.2937
  127OSM    H4S13551   0.901   3.468   6.901 -2.3997  0.7690  0.4109
  127OSM    C5S13552   0.873   3.295   6.778 -0.5723 -0.3564  0.2338
  127OSM    H5S13553   0.847   3.264   6.676  3.6646 -0.4995 -0.9741
  127OSM    C6S13554   0.878   3.184   6.882 -0.1275  0.0047  0.1132
  127OSM    H6S13555   0.949   3.102   6.858  1.4565  1.8649 -1.8985
  127OSM    H6T13556   0.774   3.146   6.874 -0.9126  2.2485 -1.2371
  127OSM    C7S13557   0.906   3.232   7.031 -0.2869 -0.0208 -0.2991
  127OSM    H7S13558   0.810   3.280   7.061 -0.2087  1.1853 -1.8314
  127OSM    H7T13559   0.991   3.304   7.034 -1.4958  1.4935 -0.9458
  127OSM    C8S13560   0.940   3.119   7.131 -0.2312  0.0257 -0.1834
  127OSM    H8S13561   1.024   3.050   7.110 -1.0780 -0.8603 -0.7387
  127OSM    H8T13562   0.857   3.045   7.132  0.5580 -0.9250 -1.4831
  127OSM    C9S13563   0.964   3.171   7.274 -0.0092  0.0380 -0.4254
  127OSM    H9S13564   0.877   3.234   7.301 -1.1657 -0.7995 -2.0053
  127OSM    H9T13565   1.049   3.242   7.274  0.2593 -0.2759  0.0782
  127OSM   C10S13566   0.988   3.065   7.379  0.4313  0.3704 -0.0384
  127OSM   H10S13567   1.077   3.004   7.353  0.1558 -0.3472  0.6539
  127OSM   H10T13568   0.912   2.986   7.392  0.2005 -0.4280 -4.7543
  127OSM   C11S13569   1.002   3.130   7.521 -0.3442 -0.2673 -0.0460
  127OSM   H11S13570   0.911   3.192   7.539  0.4504  1.8229 -2.6878
  127OSM   H11T13571   1.089   3.198   7.514 -0.0909 -0.3628  1.7367
  127OSM   C12S13572   1.014   3.007   7.620  0.1441 -0.1697  0.5025
  127OSM   H12S13573   1.096   2.948   7.575  1.8951  1.7780  1.0034
  127OSM   H12T13574   0.917   2.953   7.627  1.0537 -1.8604  0.5412
  127OSM   C13S13575   1.060   3.049   7.760 -0.6849 -0.0631  0.2468
  127OSM   H13S13576   1.162   3.094   7.762  0.6514 -2.7710 -0.5843
  127OSM   H13T13577   1.059   2.963   7.831 -0.8565  0.1975  0.5594
  127OSM   C14S13578   0.967   3.150   7.820 -0.3923  0.5997 -1.0152
  127OSM   H14S13579   0.866   3.105   7.809  0.4035 -2.0415  1.2930
  127OSM   H14T13580   0.958   3.244   7.762 -1.8074  1.2505  0.1875
  127OSM   C15S13581   0.972   3.177   7.977 -0.0182  0.6131 -0.3901
  127OSM   H15S13582   0.986   3.078   8.026  1.3125  1.2013  0.4922
  127OSM   H15T13583   0.884   3.234   8.011  0.3982 -0.0954  2.1006
  127OSM   C16S13584   1.110   3.241   8.007 -0.2118 -0.4481  0.2428
  127OSM   H16S13585   1.131   3.347   7.979 -0.5685 -0.1288  1.1295
  127OSM   H16T13586   1.184   3.189   7.943 -0.6688  0.2041 -0.8491
  127OSM   C17S13587   1.148   3.228   8.154 -0.0571 -0.5030 -0.6272
  127OSM   H17S13588   1.168   3.122   8.181 -0.3296 -0.7875 -1.5048
  127OSM   H17T13589   1.061   3.255   8.217  0.8642 -1.1196  0.9567
  127OSM   C18S13590   1.267   3.307   8.197  0.4888 -0.5023 -0.2625
  127OSM   H18S13591   1.354   3.285   8.132 -0.8498 -1.8454 -1.6769
  127OSM   H18T13592   1.300   3.282   8.300 -1.8092  0.8687  0.9048
  127OSM   H18U13593   1.245   3.416   8.201  1.8922 -0.2218  2.2460
  127OSM    C1F13594   0.545   3.690   6.819  0.2393 -0.0699  0.1814
  127OSM     OF13595   0.474   3.678   6.716  0.2237 -0.1217 -0.9978
  127OSM    C2F13596   0.497   3.749   6.948  0.2038 -0.4749 -0.0725
  127OSM    H2F13597   0.566   3.833   6.968 -0.4443  0.3531 -1.1571
  127OSM    H2G13598   0.511   3.676   7.030 -2.5622 -1.0336  0.0218
  127OSM    C3F13599   0.354   3.786   6.942 -0.1148 -0.5814  0.1561
  127OSM    H3F13600   0.285   3.710   6.899  1.3018 -0.6540 -2.1592
  127OSM    H3G13601   0.338   3.874   6.876  0.8133 -0.3029  0.3001
  127OSM    C4F13602   0.304   3.821   7.077  0.0619  0.3501 -0.4344
  127OSM    H4F13603   0.211   3.882   7.079 -2.0688 -2.6510 -1.3148
  127OSM    H4G13604   0.378   3.875   7.140  0.0674  1.0916 -1.0633
  127OSM    C5F13605   0.262   3.694   7.163 -0.0899 -0.2799  0.2088
  127OSM    H5F13606   0.345   3.621   7.174 -0.3120 -0.6539 -0.5383
  127OSM    H5G13607   0.181   3.645   7.105  0.5439  2.4574 -3.3300
  127OSM    C6F13608   0.215   3.739   7.302  0.4633  0.0468  0.2862
  127OSM    H6F13609   0.127   3.803   7.280  0.3417 -0.3228 -0.3460
  127OSM    H6G13610   0.292   3.803   7.350  0.8148  0.4789 -0.8182
  127OSM    C7F13611   0.165   3.624   7.386  0.6740 -0.4551  0.7579
  127OSM    H7F13612   0.248   3.549   7.383  2.8922  1.7984 -3.7305
  127OSM    H7G13613   0.076   3.584   7.334  0.3540  0.9374  0.2059
  127OSM    C8F13614   0.132   3.669   7.524  0.4073  0.5131 -0.1879
  127OSM    H8F13615   0.071   3.762   7.528 -2.2488 -1.1562  2.2128
  127OSM    H8G13616   0.219   3.700   7.585 -0.4036 -1.4207  2.1260
  127OSM    C9F13617   0.075   3.552   7.606  0.2795  0.2458  0.2368
  127OSM    H9F13618   0.081   3.450   7.566 -2.6863 -0.0687  0.3438
  127OSM   C10F13619   0.035   3.573   7.729 -0.2610  0.1801  0.2542
  127OSM   H10F13620   0.003   3.485   7.786  1.4430  0.7481  2.1886
  127OSM   C11F13621   0.020   3.697   7.808 -0.1464 -0.1793  0.1334
  127OSM   H11F13622  -0.084   3.734   7.800 -0.0569 -0.2055 -1.7867
  127OSM   H11G13623   0.071   3.782   7.757 -1.8661  1.3609  0.8607
  127OSM   C12F13624   0.073   3.676   7.947 -0.1772  0.3026 -0.1182
  127OSM   H12F13625   0.050   3.774   7.995 -0.3601  0.7489 -1.0972
  127OSM   H12G13626   0.183   3.660   7.941  0.0804  0.4393  2.8498
  127OSM   C13F13627  -0.002   3.577   8.029 -0.2255 -0.1787  0.1496
  127OSM   H13F13628   0.047   3.477   8.028  0.5671  0.1618  1.8626
  127OSM   H13G13629  -0.108   3.572   7.997 -0.6069 -5.0895  1.2551
  127OSM   C14F13630  -0.004   3.609   8.182  0.9248 -0.0715  0.2420
  127OSM   H14F13631  -0.089   3.558   8.232  0.2020  0.8006 -0.0645
  127OSM   H14G13632  -0.024   3.718   8.192  1.3387  0.4277 -3.1644
  127OSM   C15F13633   0.124   3.578   8.252 -0.4041  0.1722  0.5362
  127OSM   H15F13634   0.194   3.654   8.211 -0.0837  0.0896  0.9345
  127OSM   H15G13635   0.160   3.473   8.243 -0.1835  0.4053 -3.4689
  127OSM   C16F13636   0.125   3.601   8.402  0.1533 -0.0830  0.2596
  127OSM   H16F13637   0.086   3.702   8.429  3.0728  1.3632 -0.5124
  127OSM   H16G13638   0.231   3.607   8.434 -0.2692  0.2604  1.6690
  127OSM   C17F13639   0.041   3.501   8.486  0.1387  0.4269  0.0970
  127OSM   H17F13640   0.076   3.398   8.464 -0.5093  0.2513 -0.1414
  127OSM   H17G13641  -0.067   3.512   8.460  0.5352  1.3796 -1.3067
  127OSM   C18F13642   0.060   3.527   8.635 -1.2124  0.3047 -0.6191
  127OSM   H18F13643   0.037   3.630   8.668 -0.7741  0.8532 -1.9352
  127OSM   H18G13644   0.168   3.511   8.653 -1.2571 -1.9202 -1.9048
  127OSM   H18H13645  -0.008   3.461   8.694 -0.4692 -0.0955 -0.2015
  128OSM      N13646   1.961   2.528   5.891  0.1791 -0.1173  0.1356
  128OSM    C1513647   2.047   2.629   5.817 -0.0264  0.1633  0.0718
  128OSM   H15A13648   2.145   2.591   5.792  0.4218  0.6626  1.0172
  128OSM   H15B13649   2.048   2.720   5.876  1.2022 -0.2962  0.7926
  128OSM   H15C13650   2.007   2.657   5.721 -0.9327 -2.1140 -0.2843
  128OSM    C1413651   1.830   2.592   5.911 -0.2570  0.3427 -0.3030
  128OSM   H14A13652   1.788   2.640   5.824  2.8003 -1.1142 -2.7615
  128OSM   H14B13653   1.839   2.666   5.990 -0.3745 -2.0136  2.0614
  128OSM   H14C13654   1.755   2.518   5.936 -0.3128  0.7546  0.7938
  128OSM    C1313655   1.943   2.410   5.796 -0.3249 -0.0462 -0.1879
  128OSM   H13A13656   1.867   2.337   5.821 -1.5688  0.9279 -0.9924
  128OSM   H13B13657   2.034   2.351   5.798 -2.6058 -4.3898 -4.0702
  128OSM   H13C13658   1.929   2.447   5.696  1.1023  2.5542  0.4969
  128OSM    C1213659   2.026   2.479   6.020 -0.0527 -0.3889  0.5883
  128OSM   H12A13660   2.123   2.438   5.993 -1.1857 -1.0603 -2.9808
  128OSM   H12B13661   1.970   2.391   6.049 -4.3185  1.6653 -0.6544
  128OSM    C1113662   2.028   2.556   6.151 -0.2184 -0.6228 -0.2816
  128OSM   H11A13663   2.086   2.649   6.133  1.2150 -1.8064 -2.1081
  128OSM   H11B13664   2.087   2.503   6.229  2.0371  0.5546 -1.1085
  128OSM      P13665   1.803   2.465   6.251 -0.4792 -0.2150 -0.2424
  128OSM    O1313666   1.668   2.514   6.238 -0.0451 -0.2064 -0.4745
  128OSM    O1413667   1.842   2.336   6.180 -0.4687  0.5541 -0.8132
  128OSM    O1113668   1.846   2.450   6.406  0.4192  0.4145  0.0019
  128OSM    O1213669   1.899   2.587   6.205  0.4456  0.0896  0.2477
  128OSM    C1S13670   1.819   2.557   6.500 -0.4617 -0.0084  0.1227
  128OSM    H1S13671   1.713   2.591   6.495 -0.3786  0.0738 -1.4549
  128OSM    H1T13672   1.880   2.648   6.487 -2.3244  1.6312  1.9650
  128OSM     NF13673   1.789   2.598   6.733 -0.2238  0.3129 -0.4870
  128OSM    HNF13674   1.846   2.672   6.765  0.4861 -1.1743  1.8770
  128OSM    C2S13675   1.855   2.510   6.644  0.1317 -0.8158 -0.3464
  128OSM    H2S13676   1.819   2.405   6.658 -0.0626 -0.4481  2.6492
  128OSM    C3S13677   2.003   2.483   6.673  0.4252  0.6734  0.2850
  128OSM    H3S13678   2.082   2.554   6.639  3.0387 -1.9259  0.4488
  128OSM     O313679   2.044   2.379   6.586  0.2958  0.3795 -0.4538
  128OSM    HO313680   1.999   2.398   6.504  1.2620  4.2885 -0.2898
  128OSM    C4S13681   2.019   2.442   6.814 -0.0164  0.0914  0.2866
  128OSM    H4S13682   1.959   2.358   6.851 -0.5429  0.9886  1.5311
  128OSM    C5S13683   2.087   2.508   6.909  0.2311  0.4660 -0.5517
  128OSM    H5S13684   2.135   2.604   6.883 -0.3662  0.6878 -0.8572
  128OSM    C6S13685   2.100   2.476   7.057  0.4457  0.3840 -0.1078
  128OSM    H6S13686   2.128   2.566   7.116 -0.0966  0.9954 -0.7522
  128OSM    H6T13687   2.179   2.399   7.063  0.7460  0.7234  0.3560
  128OSM    C7S13688   1.970   2.413   7.111 -0.8508 -0.9868  0.7181
  128OSM    H7S13689   1.948   2.314   7.066 -0.5835  0.0013 -1.7564
  128OSM    H7T13690   1.884   2.480   7.089  1.8694  2.0330 -1.8334
  128OSM    C8S13691   1.974   2.407   7.266 -0.3162  0.6403  0.4978
  128OSM    H8S13692   1.871   2.419   7.306 -1.7409 -1.7799 -2.0774
  128OSM    H8T13693   2.024   2.498   7.305 -0.6892  0.9765  0.1926
  128OSM    C9S13694   2.049   2.285   7.318  0.2413  0.0824  0.1362
  128OSM    H9S13695   2.146   2.296   7.266 -0.5494  1.6956 -1.0699
  128OSM    H9T13696   2.002   2.191   7.280  0.2511  0.1703 -0.0956
  128OSM   C10S13697   2.060   2.293   7.468  0.4479  0.0244  0.8867
  128OSM   H10S13698   1.961   2.249   7.493  0.1811 -1.1718 -1.9124
  128OSM   H10T13699   2.060   2.400   7.497 -0.3783 -0.0041  1.0236
  128OSM   C11S13700   2.180   2.206   7.527 -0.1471  0.3317 -1.3099
  128OSM   H11S13701   2.271   2.226   7.468 -0.3821  1.9532 -1.1759
  128OSM   H11T13702   2.162   2.096   7.532 -2.1176  0.6380  1.5654
  128OSM   C12S13703   2.218   2.240   7.673  0.3041  0.0468  0.1353
  128OSM   H12S13704   2.137   2.231   7.749  0.6022 -1.2780  0.3153
  128OSM   H12T13705   2.251   2.346   7.674  0.1190  0.1012  1.7043
  128OSM   C13S13706   2.337   2.162   7.732 -0.0062  0.3641 -0.1394
  128OSM   H13S13707   2.424   2.176   7.666 -0.2358 -1.5991 -0.9053
  128OSM   H13T13708   2.300   2.058   7.735  2.7225 -0.6860 -0.2737
  128OSM   C14S13709   2.358   2.218   7.874 -0.0886  0.6121  0.8696
  128OSM   H14S13710   2.270   2.188   7.934 -0.2454  1.2972  0.9861
  128OSM   H14T13711   2.352   2.328   7.873  1.1875  0.7030  0.4546
  128OSM   C15S13712   2.481   2.174   7.951  0.8618  0.6096  0.3124
  128OSM   H15S13713   2.570   2.207   7.894  1.3384  0.1615  0.7788
  128OSM   H15T13714   2.480   2.065   7.969 -1.1505  0.5331  0.0261
  128OSM   C16S13715   2.479   2.222   8.101  0.5484  0.2316 -0.0690
  128OSM   H16S13716   2.392   2.186   8.159  0.2965 -0.0658 -0.6221
  128OSM   H16T13717   2.460   2.331   8.091 -3.6057 -0.3997 -0.8310
  128OSM   C17S13718   2.607   2.188   8.174  0.1098  0.1275  0.8241
  128OSM   H17S13719   2.684   2.248   8.119 -1.4858  0.1645 -1.5163
  128OSM   H17T13720   2.630   2.079   8.166 -1.6297 -0.1702 -0.6341
  128OSM   C18S13721   2.603   2.218   8.319  0.3605 -0.4772  0.3756
  128OSM   H18S13722   2.508   2.175   8.360  0.0680  0.2831  0.5183
  128OSM   H18T13723   2.606   2.325   8.349  1.5720  0.1850 -1.8754
  128OSM   H18U13724   2.690   2.174   8.373  1.3410 -1.4951 -1.9220
  128OSM    C1F13725   1.664   2.580   6.787  0.1026 -0.5383 -0.2071
  128OSM     OF13726   1.582   2.497   6.742 -0.2370  0.1937 -0.5889
  128OSM    C2F13727   1.631   2.676   6.895 -0.6370 -0.2621  0.5276
  128OSM    H2F13728   1.561   2.746   6.844 -1.2543  0.3799  2.1855
  128OSM    H2G13729   1.720   2.732   6.932 -0.5395 -1.8100  2.8378
  128OSM    C3F13730   1.553   2.607   7.014 -0.2309  0.5485  0.3639
  128OSM    H3F13731   1.614   2.527   7.061 -1.8092 -0.6212  0.5090
  128OSM    H3G13732   1.456   2.565   6.979  0.3829  0.2744 -1.0476
  128OSM    C4F13733   1.519   2.709   7.115  0.1550 -0.2812 -0.1062
  128OSM    H4F13734   1.465   2.790   7.062  0.3718 -1.7907 -2.8529
  128OSM    H4G13735   1.618   2.750   7.142  0.5035 -1.8690  1.2427
  128OSM    C5F13736   1.472   2.656   7.245  0.1010  0.1249  0.0197
  128OSM    H5F13737   1.479   2.546   7.257 -0.4973 -0.1853 -2.1954
  128OSM    H5G13738   1.368   2.694   7.253  0.2028  0.3925  0.0999
  128OSM    C6F13739   1.549   2.709   7.374 -0.0757  0.0820 -0.2244
  128OSM    H6F13740   1.488   2.694   7.465  1.3826  1.2689  0.9884
  128OSM    H6G13741   1.581   2.813   7.354 -0.6105  0.3383  0.2421
  128OSM    C7F13742   1.686   2.646   7.387 -0.5254  0.2615  0.1149
  128OSM    H7F13743   1.741   2.665   7.293  0.2495 -0.2171  0.4616
  128OSM    H7G13744   1.662   2.538   7.400 -1.9301  0.6133  0.5603
  128OSM    C8F13745   1.780   2.697   7.495 -0.2647  0.2821  0.3842
  128OSM    H8F13746   1.789   2.804   7.467 -0.7955  0.2096 -0.0775
  128OSM    H8G13747   1.883   2.656   7.489  0.5129  1.6375  2.9549
  128OSM    C9F13748   1.731   2.682   7.638 -0.4980 -0.1694 -0.4547
  128OSM    H9F13749   1.657   2.760   7.661  1.9823  1.6601  1.7569
  128OSM   C10F13750   1.767   2.593   7.735  0.2205 -0.0583 -0.1952
  128OSM   H10F13751   1.727   2.600   7.837  0.4368  1.0597 -0.1824
  128OSM   C11F13752   1.879   2.487   7.711  0.0601 -0.2418 -0.0018
  128OSM   H11F13753   1.947   2.528   7.633  0.2855  1.3189  0.9685
  128OSM   H11G13754   1.844   2.386   7.682  2.2044 -1.1391  0.3431
  128OSM   C12F13755   1.961   2.480   7.845  0.7901 -0.1493 -0.2056
  128OSM   H12F13756   1.986   2.581   7.882 -0.3136  0.0569  0.0175
  128OSM   H12G13757   2.061   2.437   7.821  1.3646  1.4813 -0.8367
  128OSM   C13F13758   1.912   2.406   7.970 -0.7477  0.9507  0.0182
  128OSM   H13F13759   1.885   2.303   7.937  1.4651  0.2154  0.3596
  128OSM   H13G13760   1.816   2.445   8.011 -1.7867  0.0613 -1.4559
  128OSM   C14F13761   2.021   2.406   8.070 -0.0008 -0.5886 -0.1186
  128OSM   H14F13762   2.055   2.511   8.084 -3.3291  0.8172 -1.3483
  128OSM   H14G13763   2.113   2.350   8.046  1.8831  1.5444  1.6541
  128OSM   C15F13764   1.983   2.376   8.213  0.2407  0.3115 -0.0708
  128OSM   H15F13765   1.960   2.268   8.216  1.5631  0.0248 -0.0136
  128OSM   H15G13766   1.893   2.438   8.237  0.2267  2.0386 -3.9017
  128OSM   C16F13767   2.085   2.410   8.328 -0.1567 -1.1786  0.3678
  128OSM   H16F13768   2.030   2.414   8.425 -2.6974  1.4320 -1.0142
  128OSM   H16G13769   2.126   2.512   8.313 -0.5273 -1.2631 -1.3599
  128OSM   C17F13770   2.194   2.310   8.329  0.0136  0.0310 -0.8302
  128OSM   H17F13771   2.252   2.339   8.419 -1.4723 -0.0507  0.1862
  128OSM   H17G13772   2.268   2.324   8.247  0.5211 -0.3460 -0.4414
  128OSM   C18F13773   2.162   2.164   8.347  0.2039 -0.5608  0.2790
  128OSM   H18F13774   2.158   2.105   8.253  2.3263 -0.3381 -0.0038
  128OSM   H18G13775   2.074   2.156   8.415  1.2120  3.4671  2.3359
  128OSM   H18H13776   2.243   2.113   8.404  0.3807 -1.4506 -0.7268
  129OSM      N13777   5.574   5.345   6.169  0.1672 -0.4146  0.0054
  129OSM    C1513778   5.589   5.197   6.157  0.5114 -0.0691  0.3081
  129OSM   H15A13779   5.694   5.174   6.172  0.9213  0.3634 -1.5800
  129OSM   H15B13780   5.555   5.164   6.060 -0.4407 -0.5072  0.7784
  129OSM   H15C13781   5.529   5.145   6.230  1.5090 -1.7898 -0.0175
  129OSM    C1413782   5.644   5.413   6.056 -0.7325 -0.0801 -0.1384
  129OSM   H14A13783   5.639   5.355   5.964  1.1755 -0.6269  0.0702
  129OSM   H14B13784   5.749   5.413   6.078 -0.0551 -2.8772 -2.6952
  129OSM   H14C13785   5.625   5.518   6.038 -1.0619 -0.1953 -0.4871
  129OSM    C1313786   5.427   5.373   6.153  0.1859  0.7044 -0.1204
  129OSM   H13A13787   5.370   5.306   6.215  0.4026 -1.4351 -2.1274
  129OSM   H13B13788   5.385   5.358   6.055  2.4932  0.7816 -1.1810
  129OSM   H13C13789   5.402   5.477   6.172 -0.3364  0.6644 -0.5605
  129OSM    C1213790   5.626   5.382   6.304 -0.1233 -0.3046  0.4401
  129OSM   H12A13791   5.732   5.363   6.307  0.3521  1.8279 -1.0339
  129OSM   H12B13792   5.577   5.319   6.377 -0.2511 -1.8889 -0.9561
  129OSM    C1113793   5.611   5.536   6.353 -0.2341 -0.4036  0.8252
  129OSM   H11A13794   5.661   5.544   6.452  2.3843  1.9266 -0.5311
  129OSM   H11B13795   5.503   5.547   6.375 -0.7956 -1.8669 -0.9439
  129OSM      P13796   5.597   5.788   6.271 -0.1609 -0.1113 -0.0496
  129OSM    O1313797   5.667   5.877   6.174 -0.3839  0.5104 -0.0654
  129OSM    O1413798   5.451   5.767   6.242 -1.0142 -0.2883 -0.2916
  129OSM    O1113799   5.622   5.851   6.419 -0.5262  0.1356  1.3575
  129OSM    O1213800   5.671   5.644   6.270 -0.1092 -0.0186  0.3500
  129OSM    C1S13801   5.527   5.835   6.524  0.4610  0.4463 -0.0093
  129OSM    H1S13802   5.502   5.727   6.531  3.2543 -0.1911  1.8517
  129OSM    H1T13803   5.429   5.882   6.502 -0.4537 -1.6023 -0.5736
  129OSM     NF13804   5.460   5.860   6.767 -0.0669  0.4382  0.0335
  129OSM    HNF13805   5.406   5.938   6.799 -0.2665  0.9179 -1.4255
  129OSM    C2S13806   5.569   5.884   6.669 -0.0294 -0.0742  0.3087
  129OSM    H2S13807   5.655   5.827   6.710 -0.7605  0.1620  2.2884
  129OSM    C3S13808   5.609   6.033   6.667  0.4443  0.1475 -0.2671
  129OSM    H3S13809   5.523   6.096   6.635 -1.4626 -0.9096  2.4553
  129OSM     O313810   5.707   6.059   6.565  0.0806  0.4549 -0.2254
  129OSM    HO313811   5.694   5.980   6.512  0.4855 -0.2227  0.6720
  129OSM    C4S13812   5.634   6.088   6.806 -0.2596  0.4414 -0.6911
  129OSM    H4S13813   5.544   6.129   6.853 -1.0178 -3.0037  1.2137
  129OSM    C5S13814   5.748   6.076   6.880  0.7368 -0.0124  0.3354
  129OSM    H5S13815   5.824   6.012   6.832  1.5966  0.9399  0.3990
  129OSM    C6S13816   5.778   6.134   7.019 -0.8605  0.3308  0.0597
  129OSM    H6S13817   5.701   6.210   7.044 -1.9697 -0.5897 -0.4591
  129OSM    H6T13818   5.876   6.184   7.029 -1.7365  2.3459 -0.8973
  129OSM    C7S13819   5.771   6.020   7.129 -0.2866 -0.2384  0.3182
  129OSM    H7S13820   5.852   5.945   7.112 -0.1669 -0.6558  2.4485
  129OSM    H7T13821   5.669   5.977   7.117 -1.0551  1.6102 -0.0083
  129OSM    C8S13822   5.798   6.069   7.271 -0.1413  0.1807 -0.3392
  129OSM    H8S13823   5.759   6.170   7.294 -0.0470  0.3360 -0.8483
  129OSM    H8T13824   5.908   6.072   7.290  0.1227  0.7336 -1.7878
  129OSM    C9S13825   5.738   5.963   7.368 -0.0080  0.7152  0.1100
  129OSM    H9S13826   5.755   5.861   7.327 -0.2919  0.7671 -0.1399
  129OSM    H9T13827   5.628   5.973   7.376 -0.6435 -3.7654 -0.1017
  129OSM   C10S13828   5.772   5.953   7.514  0.2902 -0.2080  0.4276
  129OSM   H10S13829   5.746   6.056   7.548 -1.1068 -0.1539 -0.7200
  129OSM   H10T13830   5.879   5.931   7.528  0.2347  0.1099  1.4897
  129OSM   C11S13831   5.680   5.862   7.587 -0.2991  0.8401  0.5199
  129OSM   H11S13832   5.658   5.773   7.524 -0.0930  2.1569 -1.4919
  129OSM   H11T13833   5.583   5.917   7.589 -1.4677 -1.0114 -1.2750
  129OSM   C12S13834   5.707   5.835   7.730 -0.3659 -0.4149 -0.5436
  129OSM   H12S13835   5.710   5.927   7.792  3.7653  0.1458 -1.2570
  129OSM   H12T13836   5.809   5.789   7.734 -1.4024 -2.7564  1.8407
  129OSM   C13S13837   5.606   5.735   7.791  0.0210 -0.4151 -0.7600
  129OSM   H13S13838   5.611   5.648   7.723 -0.0513  1.2360 -3.0081
  129OSM   H13T13839   5.510   5.791   7.784 -0.1705 -0.8663 -1.9807
  129OSM   C14S13840   5.637   5.684   7.936 -0.5319 -0.4621 -0.3851
  129OSM   H14S13841   5.639   5.779   7.995  0.6555  1.5427 -3.3819
  129OSM   H14T13842   5.738   5.639   7.942 -0.5360 -0.3454  0.7555
  129OSM   C15S13843   5.530   5.590   7.983 -0.3399 -0.5629 -0.4890
  129OSM   H15S13844   5.547   5.483   7.957 -2.4977 -1.1582  0.3691
  129OSM   H15T13845   5.430   5.621   7.946  0.2729  0.3721 -1.4274
  129OSM   C16S13846   5.515   5.597   8.134 -0.0005 -0.3594  0.1149
  129OSM   H16S13847   5.483   5.698   8.165  0.2482  0.2175 -1.4222
  129OSM   H16T13848   5.619   5.598   8.171  0.0755  3.0270  0.0776
  129OSM   C17S13849   5.435   5.487   8.198 -0.4485  0.0775  0.1802
  129OSM   H17S13850   5.496   5.403   8.237 -0.8943  0.2455  1.2844
  129OSM   H17T13851   5.353   5.456   8.130  0.5812 -0.9068 -0.6360
  129OSM   C18S13852   5.366   5.540   8.329  0.0156 -0.2697 -0.5858
  129OSM   H18S13853   5.443   5.587   8.394 -1.6133 -1.9346  2.7942
  129OSM   H18T13854   5.314   5.461   8.388  1.5041 -0.2732  0.7862
  129OSM   H18U13855   5.294   5.622   8.308  0.3276 -0.0063 -0.6405
  129OSM    C1F13856   5.431   5.738   6.801  0.4448  0.4526 -0.4326
  129OSM     OF13857   5.496   5.642   6.755 -0.3871 -0.2934 -0.2659
  129OSM    C2F13858   5.325   5.705   6.903 -0.3928 -0.6748  0.3458
  129OSM    H2F13859   5.244   5.656   6.846  1.2307 -0.5892 -2.2093
  129OSM    H2G13860   5.299   5.807   6.940 -2.4356  0.1059 -2.8176
  129OSM    C3F13861   5.388   5.620   7.011 -0.9070 -0.4827 -0.7662
  129OSM    H3F13862   5.484   5.659   7.052 -1.8483 -0.6771  1.7799
  129OSM    H3G13863   5.401   5.522   6.962 -1.5000 -0.3940 -1.1110
  129OSM    C4F13864   5.301   5.594   7.135  0.1370  0.0292  0.4175
  129OSM    H4F13865   5.315   5.486   7.160 -2.5744 -0.3913  0.4060
  129OSM    H4G13866   5.193   5.606   7.112  0.3505  1.0032 -0.1153
  129OSM    C5F13867   5.337   5.667   7.262 -0.8996 -0.4004 -0.0715
  129OSM    H5F13868   5.287   5.766   7.260  0.4524  0.3285 -2.6515
  129OSM    H5G13869   5.447   5.684   7.263 -0.9205 -0.2506 -0.3086
  129OSM    C6F13870   5.297   5.594   7.390  0.2325  0.3348  0.3148
  129OSM    H6F13871   5.344   5.494   7.379 -3.2753 -1.3707 -0.7942
  129OSM    H6G13872   5.187   5.580   7.382  0.1903  0.4655  0.6613
  129OSM    C7F13873   5.333   5.653   7.521  0.6075 -0.1632  0.0335
  129OSM    H7F13874   5.271   5.744   7.532 -0.3447 -0.5284 -2.0236
  129OSM    H7G13875   5.436   5.694   7.514 -0.0303  1.3344 -0.8246
  129OSM    C8F13876   5.322   5.557   7.643 -0.0286  0.6166  0.4413
  129OSM    H8F13877   5.305   5.623   7.731 -3.1216  0.4219  0.0877
  129OSM    H8G13878   5.421   5.509   7.657  0.6280  2.5539  3.3646
  129OSM    C9F13879   5.223   5.442   7.625 -0.0274 -0.2654 -0.1464
  129OSM    H9F13880   5.235   5.383   7.534 -1.1818  0.3249 -0.7149
  129OSM   C10F13881   5.122   5.413   7.713  0.4650 -0.0612  0.0779
  129OSM   H10F13882   5.069   5.318   7.694 -0.2654  0.2804  0.3675
  129OSM   C11F13883   5.088   5.490   7.845 -0.0302 -0.7322 -0.1822
  129OSM   H11F13884   5.058   5.593   7.817 -1.5379 -0.0184  3.4511
  129OSM   H11G13885   5.172   5.492   7.918 -0.3836 -1.4599  0.2633
  129OSM   C12F13886   4.973   5.413   7.902  0.5002 -0.1659 -0.3210
  129OSM   H12F13887   4.994   5.304   7.911  0.7522  0.0249  2.0179
  129OSM   H12G13888   4.885   5.421   7.834  1.8502  0.7492 -2.0203
  129OSM   C13F13889   4.929   5.468   8.041 -0.0520  0.5676 -0.7657
  129OSM   H13F13890   4.920   5.578   8.033  1.5825  0.9712  1.6647
  129OSM   H13G13891   5.001   5.448   8.123  0.7231  0.7378 -1.3993
  129OSM   C14F13892   4.795   5.411   8.091 -0.3741  0.2546  0.2543
  129OSM   H14F13893   4.817   5.316   8.145 -1.2732 -0.4257 -0.5466
  129OSM   H14G13894   4.729   5.407   8.002 -0.1469 -0.4754  0.1164
  129OSM   C15F13895   4.723   5.505   8.186  0.3354 -0.4110 -0.1451
  129OSM   H15F13896   4.720   5.603   8.135  2.8489 -0.7862 -1.1367
  129OSM   H15G13897   4.779   5.503   8.282 -0.2436 -4.6801  0.3001
  129OSM   C16F13898   4.579   5.464   8.222  0.4048 -1.1131  0.0799
  129OSM   H16F13899   4.555   5.489   8.327  1.2914  0.7802 -0.1092
  129OSM   H16G13900   4.560   5.355   8.218 -1.6377 -0.7666 -0.3790
  129OSM   C17F13901   4.484   5.516   8.114 -0.1149  0.0377  1.1151
  129OSM   H17F13902   4.383   5.471   8.122 -1.5511  2.5828 -0.9414
  129OSM   H17G13903   4.514   5.478   8.014 -1.9446 -1.0399  0.9163
  129OSM   C18F13904   4.452   5.663   8.109  0.0403 -0.3139  0.2022
  129OSM   H18F13905   4.400   5.700   8.200  0.4122 -0.9584  0.6887
  129OSM   H18G13906   4.399   5.684   8.014  0.0082 -1.4533 -0.0538
  129OSM   H18H13907   4.544   5.723   8.093  0.7794 -1.1448  1.2096
  130OSM      N13908   0.491   3.019   6.137 -0.0770  0.0223  0.0594
  130OSM    C1513909   0.585   2.938   6.055  0.2913  0.3101  0.2842
  130OSM   H15A13910   0.623   2.850   6.106  2.9532  1.4564  0.4201
  130OSM   H15B13911   0.667   3.005   6.035  0.3341 -0.1232 -1.1029
  130OSM   H15C13912   0.543   2.910   5.960  0.5354  0.1583  0.2190
  130OSM    C1413913   0.557   3.066   6.257  0.7817 -0.2837  0.2378
  130OSM   H14A13914   0.599   2.981   6.309  0.2031 -1.4941 -1.2276
  130OSM   H14B13915   0.482   3.106   6.323 -1.6246  0.5440 -2.7939
  130OSM   H14C13916   0.625   3.149   6.247  2.6209 -1.4067  2.3890
  130OSM    C1313917   0.449   3.149   6.060 -0.0541  0.0717 -0.5778
  130OSM   H13A13918   0.377   3.204   6.119  1.1616  1.2676 -0.1615
  130OSM   H13B13919   0.415   3.113   5.964 -2.3406  0.1870  0.1321
  130OSM   H13C13920   0.541   3.203   6.045 -0.0311  0.6675  1.4570
  130OSM    C1213921   0.365   2.947   6.163 -0.3961 -0.0571  0.2333
  130OSM   H12A13922   0.319   2.919   6.070  0.9094  1.2356 -0.8445
  130OSM   H12B13923   0.287   3.013   6.199 -0.3057 -0.9010  2.1124
  130OSM    C1113924   0.359   2.836   6.272  0.9684 -1.2542 -0.2665
  130OSM   H11A13925   0.253   2.806   6.288  0.3258  1.7535  1.7802
  130OSM   H11B13926   0.392   2.888   6.364  0.2120  1.0358 -1.2308
  130OSM      P13927   0.422   2.614   6.143  0.4709  0.4132 -0.7871
  130OSM    O1313928   0.298   2.638   6.058 -0.3935  0.3168 -0.1868
  130OSM    O1413929   0.546   2.578   6.071 -0.8308  0.0096 -0.4268
  130OSM    O1113930   0.392   2.491   6.233 -0.2444 -0.7663  0.1911
  130OSM    O1213931   0.454   2.732   6.247 -0.0468 -0.1646  0.2873
  130OSM    C1S13932   0.470   2.475   6.352  0.4256  0.2469  0.0666
  130OSM    H1S13933   0.564   2.534   6.345 -0.2831  1.5801  1.2526
  130OSM    H1T13934   0.491   2.369   6.378 -1.2235 -0.2681 -0.5658
  130OSM     NF13935   0.477   2.531   6.602  0.0112  0.0689 -0.3057
  130OSM    HNF13936   0.480   2.460   6.672 -1.9314  1.4333  1.2617
  130OSM    C2S13937   0.396   2.516   6.484 -0.5225 -0.1781 -0.4263
  130OSM    H2S13938   0.363   2.621   6.466  0.3760  0.2301  0.2703
  130OSM    C3S13939   0.272   2.421   6.511  0.2163  0.6685  0.3565
  130OSM    H3S13940   0.305   2.321   6.546  1.9568  1.4822  1.1610
  130OSM     O313941   0.196   2.395   6.390 -0.0308 -0.2528 -0.4118
  130OSM    HO313942   0.250   2.424   6.316 -2.2087  0.2312 -1.9010
  130OSM    C4S13943   0.183   2.482   6.617 -0.1727  0.4570  0.1487
  130OSM    H4S13944   0.183   2.428   6.713  0.0550  2.7719  1.5286
  130OSM    C5S13945   0.096   2.581   6.598  0.5283 -0.1641 -0.3287
  130OSM    H5S13946   0.086   2.621   6.497 -1.2879 -0.6282 -0.3665
  130OSM    C6S13947   0.016   2.655   6.698  0.3039  0.2370 -0.8006
  130OSM    H6S13948  -0.094   2.649   6.689  0.1829 -1.3308  1.1842
  130OSM    H6T13949   0.049   2.761   6.692  2.0419  0.1552  3.5581
  130OSM    C7S13950   0.044   2.603   6.838  0.5533  0.3278 -0.6346
  130OSM    H7S13951   0.155   2.598   6.848  0.5853 -1.5496 -1.5457
  130OSM    H7T13952   0.012   2.498   6.852  1.5059 -0.1559 -1.8235
  130OSM    C8S13953   0.005   2.693   6.955  0.0532  0.0969 -0.4941
  130OSM    H8S13954  -0.106   2.698   6.956 -0.0637 -1.3170  2.0005
  130OSM    H8T13955   0.048   2.794   6.936 -0.9143  0.2188 -2.3165
  130OSM    C9S13956   0.039   2.627   7.088 -0.3027  0.5853 -0.1481
  130OSM    H9S13957   0.149   2.617   7.098 -0.4058  1.1901  2.1632
  130OSM    H9T13958  -0.005   2.525   7.090  2.2531 -0.5821 -0.0134
  130OSM   C10S13959  -0.019   2.714   7.196 -0.2185 -0.5558  0.8421
  130OSM   H10S13960  -0.129   2.729   7.189  0.1979  2.3366 -2.4983
  130OSM   H10T13961   0.020   2.817   7.179 -1.7628 -0.0695  0.0784
  130OSM   C11S13962   0.021   2.654   7.335 -0.1036  0.8522  0.1103
  130OSM   H11S13963   0.131   2.654   7.350 -0.2693  0.9298  1.4368
  130OSM   H11T13964  -0.011   2.548   7.328 -0.3053  0.9578 -0.6803
  130OSM   C12S13965  -0.035   2.727   7.453 -0.1185 -0.1362  0.1869
  130OSM   H12S13966  -0.138   2.758   7.428 -0.2005 -1.2488 -0.9139
  130OSM   H12T13967   0.019   2.821   7.479  0.6561 -0.3524 -0.5572
  130OSM   C13S13968  -0.019   2.659   7.592 -0.0838  0.1870 -0.1419
  130OSM   H13S13969  -0.030   2.550   7.575 -0.6641  0.0406  1.0863
  130OSM   H13T13970  -0.106   2.700   7.647 -1.4645 -0.3640 -1.8319
  130OSM   C14S13971   0.105   2.697   7.679 -0.1835  0.5236 -0.4586
  130OSM   H14S13972   0.097   2.805   7.706 -2.2176  0.1062  0.7944
  130OSM   H14T13973   0.199   2.685   7.621  0.1033  1.5414 -0.2288
  130OSM   C15S13974   0.108   2.613   7.807  0.2390 -0.2102 -0.2098
  130OSM   H15S13975   0.108   2.503   7.786 -1.6236  0.0593 -1.9693
  130OSM   H15T13976   0.020   2.626   7.873 -0.2601 -1.5241 -0.5740
  130OSM   C16S13977   0.232   2.644   7.895  0.1221  0.1963  0.0381
  130OSM   H16S13978   0.224   2.755   7.902 -2.4277  0.0492  0.2580
  130OSM   H16T13979   0.318   2.620   7.829 -0.2312  1.4460 -0.9232
  130OSM   C17S13980   0.223   2.585   8.038  0.2442 -0.6412  0.1089
  130OSM   H17S13981   0.243   2.477   8.054  1.6763 -0.1269  2.3574
  130OSM   H17T13982   0.121   2.612   8.072  0.2497 -0.3194 -0.1311
  130OSM   C18S13983   0.315   2.668   8.136  0.7043 -0.2789 -0.1368
  130OSM   H18S13984   0.329   2.773   8.101 -0.0724  0.8788  2.7731
  130OSM   H18T13985   0.408   2.608   8.125 -0.5284 -2.2801  0.0304
  130OSM   H18U13986   0.284   2.672   8.242  1.5408  0.0994  0.1024
  130OSM    C1F13987   0.568   2.629   6.621  0.0402  0.1887  0.8209
  130OSM     OF13988   0.598   2.712   6.534 -0.4138  0.2189 -0.5694
  130OSM    C2F13989   0.658   2.616   6.745  0.3909 -0.3098 -0.6284
  130OSM    H2F13990   0.674   2.507   6.754 -0.8147 -0.3392  1.7705
  130OSM    H2G13991   0.590   2.643   6.828 -0.3674 -1.3898 -0.8774
  130OSM    C3F13992   0.796   2.689   6.743  0.1049  0.1635 -0.4644
  130OSM    H3F13993   0.785   2.798   6.726 -0.6635 -0.2017 -2.6295
  130OSM    H3G13994   0.858   2.656   6.657 -0.5347  1.7587 -1.5841
  130OSM    C4F13995   0.865   2.678   6.876  0.1473  0.3454  0.3941
  130OSM    H4F13996   0.919   2.581   6.869 -0.7837 -0.0443 -2.6175
  130OSM    H4G13997   0.792   2.669   6.959  0.2697  1.0196  0.5791
  130OSM    C5F13998   0.984   2.781   6.895  0.1809  0.1207 -0.6817
  130OSM    H5F13999   0.944   2.883   6.909 -1.7750 -0.7583  0.7070
  130OSM    H5G14000   1.061   2.787   6.816  2.1638  0.8635  1.2270
  130OSM    C6F14001   1.069   2.751   7.018 -0.0007 -0.3537 -0.0989
  130OSM    H6F14002   1.117   2.845   7.053 -1.6263  1.4066 -2.3144
  130OSM    H6G14003   1.142   2.672   6.989 -0.0426 -0.4003 -0.0784
  130OSM    C7F14004   0.992   2.707   7.141 -0.1980 -0.2215 -0.1155
  130OSM    H7F14005   0.945   2.607   7.123 -1.5643 -0.1696  2.7290
  130OSM    H7G14006   0.908   2.778   7.153 -0.0639 -0.3003  1.4227
  130OSM    C8F14007   1.073   2.696   7.281 -0.0302 -0.2714  0.3018
  130OSM    H8F14008   1.136   2.787   7.285 -1.4279  0.8621 -1.5996
  130OSM    H8G14009   1.138   2.607   7.284 -1.0720 -1.0254  1.7573
  130OSM    C9F14010   0.974   2.697   7.393 -0.2083  0.6253 -0.7903
  130OSM    H9F14011   0.871   2.731   7.379 -0.3855  1.1803  1.5629
  130OSM   C10F14012   1.023   2.681   7.520  0.4598 -0.2171 -0.6447
  130OSM   H10F14013   0.941   2.679   7.594 -0.5517  0.8301 -1.7116
  130OSM   C11F14014   1.161   2.640   7.558 -0.3447 -0.4809 -0.2958
  130OSM   H11F14015   1.210   2.739   7.564 -2.3576  0.5722 -0.2719
  130OSM   H11G14016   1.212   2.577   7.483  2.1260  0.9400  0.0795
  130OSM   C12F14017   1.169   2.581   7.698 -0.4250 -0.2893 -0.5722
  130OSM   H12F14018   1.105   2.491   7.706 -0.9640  0.2380  1.8990
  130OSM   H12G14019   1.140   2.662   7.769 -2.1286 -1.9858  0.7818
  130OSM   C13F14020   1.305   2.531   7.740 -0.5833  0.6868 -0.3170
  130OSM   H13F14021   1.392   2.598   7.721  0.1183  0.0881  0.7241
  130OSM   H13G14022   1.326   2.431   7.697  4.5802  1.3331 -0.0007
  130OSM   C14F14023   1.322   2.518   7.894  0.5312 -0.6557  0.2439
  130OSM   H14F14024   1.248   2.443   7.927  1.4641 -1.1446  1.2739
  130OSM   H14G14025   1.305   2.612   7.951  0.4203 -2.4753  3.4396
  130OSM   C15F14026   1.461   2.460   7.927 -0.3289 -0.3495  0.0265
  130OSM   H15F14027   1.540   2.527   7.885 -1.0723 -0.0058 -0.8491
  130OSM   H15G14028   1.478   2.363   7.877  0.3947  0.1586 -0.7447
  130OSM   C16F14029   1.494   2.458   8.079  0.1280  0.6451  0.2774
  130OSM   H16F14030   1.504   2.566   8.104 -0.2014  0.8580 -0.4563
  130OSM   H16G14031   1.592   2.423   8.117  0.1068  0.7089  0.3897
  130OSM   C17F14032   1.368   2.404   8.167  0.0701  0.3350  0.3597
  130OSM   H17F14033   1.331   2.312   8.117 -2.0184  1.5759 -0.5117
  130OSM   H17G14034   1.278   2.468   8.155 -0.6883 -0.9048 -0.9376
  130OSM   C18F14035   1.392   2.374   8.313  0.5366  0.4291 -0.1427
  130OSM   H18F14036   1.303   2.335   8.367  1.6416  0.3152  1.6392
  130OSM   H18G14037   1.431   2.470   8.353  2.1557 -0.3709  0.2857
  130OSM   H18H14038   1.470   2.296   8.315 -1.4629 -1.9005 -3.1696
  131OSM      N14039   6.009   6.310   5.909  0.7100  0.1398  0.4103
  131OSM    C1514040   5.999   6.193   5.805 -0.8928  0.1559  0.2121
  131OSM   H15A14041   6.095   6.184   5.758  0.4074  1.7322  2.4056
  131OSM   H15B14042   5.929   6.214   5.725  0.2963  0.6440 -0.7369
  131OSM   H15C14043   5.970   6.099   5.850 -0.6300 -0.2228 -0.3921
  131OSM    C1414044   6.058   6.433   5.839  0.0210 -0.3837  0.3005
  131OSM   H14A14045   6.117   6.493   5.906  1.1711  0.1049 -1.0936
  131OSM   H14B14046   5.984   6.499   5.797  4.3609  2.5706 -3.7375
  131OSM   H14C14047   6.128   6.405   5.762 -0.5952 -0.8382 -0.1086
  131OSM    C1314048   5.869   6.346   5.952 -0.6134 -0.1195  0.8872
  131OSM   H13A14049   5.816   6.259   5.988 -0.5156 -0.6516 -0.2252
  131OSM   H13B14050   5.808   6.384   5.872 -0.0396 -0.7189  0.1495
  131OSM   H13C14051   5.875   6.422   6.028 -2.1903  1.6216 -0.6490
  131OSM    C1214052   6.105   6.282   6.025  0.0349 -0.4746 -0.0987
  131OSM   H12A14053   6.209   6.276   5.997  0.8107 -1.2502  2.5682
  131OSM   H12B14054   6.077   6.187   6.067  1.6252 -1.2692 -0.7739
  131OSM    C1114055   6.105   6.386   6.142 -0.8742 -0.6463 -0.0430
  131OSM   H11A14056   6.141   6.340   6.236  1.9401 -1.1163 -1.2207
  131OSM   H11B14057   6.002   6.420   6.165 -0.1219 -0.2885  3.3362
  131OSM      P14058   6.348   6.498   6.145 -0.2984 -0.0500 -0.0847
  131OSM    O1314059   6.427   6.432   6.042 -0.0210  0.0712  0.2698
  131OSM    O1414060   6.382   6.635   6.169  0.3523 -0.6315  0.0090
  131OSM    O1114061   6.364   6.410   6.280  0.2224  0.1878 -0.3343
  131OSM    O1214062   6.190   6.494   6.103  0.3624 -0.2360  0.3315
  131OSM    C1S14063   6.312   6.462   6.403  0.4204 -0.5985 -0.3906
  131OSM    H1S14064   6.202   6.453   6.398 -0.0884  4.1060 -1.7647
  131OSM    H1T14065   6.314   6.573   6.408  0.7759 -0.6494  1.1407
  131OSM     NF14066   6.338   6.455   6.651 -0.3708  0.5065 -0.6020
  131OSM    HNF14067   6.405   6.516   6.692 -0.6216  1.7492 -1.9370
  131OSM    C2S14068   6.375   6.396   6.527  0.1306  0.4682 -0.0952
  131OSM    H2S14069   6.340   6.291   6.524  0.6733  0.2136  1.6521
  131OSM    C3S14070   6.536   6.392   6.522 -0.0388  0.1414  0.4856
  131OSM    H3S14071   6.572   6.497   6.530 -0.8684  0.5381 -0.6002
  131OSM     O314072   6.580   6.333   6.405 -0.5517 -0.3590  0.6148
  131OSM    HO314073   6.513   6.351   6.337  0.1475  1.3523  0.3251
  131OSM    C4S14074   6.595   6.315   6.635  0.0361 -0.2644 -0.5673
  131OSM    H4S14075   6.658   6.385   6.692  0.7572 -0.4177 -1.1564
  131OSM    C5S14076   6.599   6.180   6.656 -0.0063  0.3092 -0.2945
  131OSM    H5S14077   6.565   6.114   6.575  0.9821 -0.7721  0.1536
  131OSM    C6S14078   6.673   6.107   6.762 -0.1063 -0.0898 -0.0993
  131OSM    H6S14079   6.771   6.069   6.724  0.3334 -0.0021  0.8948
  131OSM    H6T14080   6.619   6.011   6.780 -1.3499  0.6860  0.4379
  131OSM    C7S14081   6.695   6.174   6.903  0.7195  0.2031 -0.1858
  131OSM    H7S14082   6.599   6.219   6.939  0.2948  0.5236 -1.6403
  131OSM    H7T14083   6.778   6.248   6.893  0.8662 -0.2893 -3.2504
  131OSM    C8S14084   6.748   6.076   7.002  0.3627 -0.3781  0.4651
  131OSM    H8S14085   6.855   6.051   6.989  0.6885  1.4370 -0.6424
  131OSM    H8T14086   6.689   5.982   6.997 -1.1920  0.6384 -1.2187
  131OSM    C9S14087   6.742   6.130   7.145  0.1115  0.5734  0.6850
  131OSM    H9S14088   6.645   6.182   7.156 -0.4747 -0.1113 -0.9939
  131OSM    H9T14089   6.826   6.202   7.159  0.5141 -0.0728  1.7850
  131OSM   C10S14090   6.746   6.017   7.245  0.6681 -0.2602  0.9868
  131OSM   H10S14091   6.841   5.963   7.222  1.5466  0.9698  1.6710
  131OSM   H10T14092   6.664   5.946   7.218  1.0676  0.4166 -2.4925
  131OSM   C11S14093   6.747   6.073   7.385 -0.4770  0.0174  0.9297
  131OSM   H11S14094   6.668   6.151   7.395 -0.4794  0.2566 -0.5726
  131OSM   H11T14095   6.851   6.112   7.397 -0.6404  0.5063  0.8126
  131OSM   C12S14096   6.728   5.962   7.487  0.0201 -0.3957  0.3305
  131OSM   H12S14097   6.796   5.874   7.487 -0.8663 -1.0923  0.0940
  131OSM   H12T14098   6.629   5.914   7.473 -0.7312  1.0198  0.6326
  131OSM   C13S14099   6.751   5.999   7.635  0.5510 -0.2947 -0.6447
  131OSM   H13S14100   6.691   5.924   7.691  0.8015 -0.4607 -0.5998
  131OSM   H13T14101   6.700   6.095   7.657  0.2434 -0.9995  2.0805
  131OSM   C14S14102   6.895   5.990   7.678 -0.5199 -0.1728  0.1573
  131OSM   H14S14103   6.970   6.020   7.601  1.2826  0.9127  2.2358
  131OSM   H14T14104   6.921   5.884   7.698  1.4025  0.6161  2.2863
  131OSM   C15S14105   6.934   6.059   7.803  0.0447  0.1875 -0.7132
  131OSM   H15S14106   6.899   6.164   7.793 -0.6660  0.1976  1.3881
  131OSM   H15T14107   7.042   6.065   7.826 -0.0133 -1.6337  0.2538
  131OSM   C16S14108   6.871   5.997   7.929  0.0664  0.5916  0.2610
  131OSM   H16S14109   6.892   5.888   7.931 -0.6404  0.2899 -2.8382
  131OSM   H16T14110   6.760   6.002   7.929 -0.0520 -1.4452  0.8560
  131OSM   C17S14111   6.930   6.070   8.053 -0.2818  0.1498 -0.1346
  131OSM   H17S14112   7.041   6.061   8.052  0.0013  2.8094 -0.4305
  131OSM   H17T14113   6.886   6.019   8.141  2.3630 -0.0124  1.1803
  131OSM   C18S14114   6.903   6.223   8.073 -0.3128 -0.4147 -0.3365
  131OSM   H18S14115   6.924   6.274   7.976  2.0138 -0.6719 -0.0182
  131OSM   H18T14116   6.971   6.261   8.152  2.5313 -0.2524 -2.6662
  131OSM   H18U14117   6.800   6.247   8.105  0.0558  1.8689 -0.6691
  131OSM    C1F14118   6.206   6.449   6.684 -0.0858  0.1011 -0.3480
  131OSM     OF14119   6.126   6.363   6.642 -0.1077 -0.2603 -0.0992
  131OSM    C2F14120   6.160   6.543   6.788  0.4339 -0.3682  0.4141
  131OSM    H2F14121   6.053   6.562   6.769  0.1091 -1.4749  1.0224
  131OSM    H2G14122   6.219   6.637   6.798 -1.4121  0.9662 -0.6471
  131OSM    C3F14123   6.166   6.475   6.931 -0.2283 -0.7661  0.1150
  131OSM    H3F14124   6.271   6.457   6.963 -0.5355 -1.5872  0.6825
  131OSM    H3G14125   6.109   6.380   6.921  1.6143 -2.0004  0.9221
  131OSM    C4F14126   6.116   6.556   7.058 -0.0270  0.6678  0.0404
  131OSM    H4F14127   6.005   6.563   7.050 -0.2605  0.3656  2.3854
  131OSM    H4G14128   6.162   6.656   7.053 -0.3305  0.8444  0.7094
  131OSM    C5F14129   6.148   6.471   7.183  0.3028 -0.0534  0.4374
  131OSM    H5F14130   6.231   6.400   7.164 -0.8853 -1.7383  1.2829
  131OSM    H5G14131   6.058   6.409   7.202  1.0021 -0.6335  2.0410
  131OSM    C6F14132   6.170   6.542   7.317  0.1660  0.0477  0.5983
  131OSM    H6F14133   6.098   6.626   7.320 -2.0593 -1.6095 -2.0856
  131OSM    H6G14134   6.267   6.595   7.328  1.5768 -2.4057  0.8926
  131OSM    C7F14135   6.143   6.455   7.440  0.4378  0.5376  0.0455
  131OSM    H7F14136   6.210   6.367   7.450 -0.2806 -0.1417 -0.8755
  131OSM    H7G14137   6.036   6.424   7.435  0.3811  0.7332  0.0587
  131OSM    C8F14138   6.166   6.540   7.568  0.0349  0.2215 -1.0043
  131OSM    H8F14139   6.096   6.625   7.580 -0.5570 -0.4415  0.5248
  131OSM    H8G14140   6.260   6.598   7.567 -0.4517  1.0670  0.3780
  131OSM    C9F14141   6.170   6.459   7.693 -0.1933  0.8820 -0.2097
  131OSM    H9F14142   6.269   6.415   7.712 -1.1298 -0.3494  2.2391
  131OSM   C10F14143   6.073   6.448   7.782  0.2674 -0.2152  0.5235
  131OSM   H10F14144   6.087   6.388   7.873  0.2711 -1.5275 -0.3154
  131OSM   C11F14145   5.937   6.513   7.767  0.4850  0.5882 -0.0184
  131OSM   H11F14146   5.889   6.467   7.678  1.2239  0.7555 -0.5161
  131OSM   H11G14147   5.946   6.621   7.743  2.3368  0.7617  1.1656
  131OSM   C12F14148   5.837   6.480   7.875 -0.4229 -0.1201 -0.4266
  131OSM   H12F14149   5.808   6.373   7.864  0.2850 -0.8036  2.9564
  131OSM   H12G14150   5.750   6.544   7.854  0.4299  0.3609 -2.7293
  131OSM   C13F14151   5.869   6.511   8.018 -0.3195 -1.0030 -0.0212
  131OSM   H13F14152   5.849   6.620   8.014  1.6836 -0.6171 -1.1294
  131OSM   H13G14153   5.979   6.508   8.037  0.1752 -0.5810 -2.4666
  131OSM   C14F14154   5.801   6.431   8.124  0.0713  0.4952  0.2309
  131OSM   H14F14155   5.829   6.467   8.226 -0.6573 -0.5002  0.8049
  131OSM   H14G14156   5.844   6.329   8.115 -1.1961  0.0090 -0.5305
  131OSM   C15F14157   5.656   6.422   8.105  0.0028 -0.0542 -0.1938
  131OSM   H15F14158   5.637   6.340   8.033  1.7498  0.2494 -1.0680
  131OSM   H15G14159   5.620   6.509   8.046  0.7141 -0.9343 -1.9833
  131OSM   C16F14160   5.579   6.405   8.233  0.3199  0.3455 -0.2029
  131OSM   H16F14161   5.630   6.465   8.311  1.3366  1.0785 -1.3935
  131OSM   H16G14162   5.579   6.297   8.261  0.9419  0.7917  1.6470
  131OSM   C17F14163   5.434   6.459   8.221  0.0536 -0.8959 -0.2954
  131OSM   H17F14164   5.453   6.566   8.203  1.3149 -0.6234  2.1532
  131OSM   H17G14165   5.381   6.436   8.317 -2.3203 -1.2790 -1.6170
  131OSM   C18F14166   5.342   6.400   8.108 -0.3401  0.5489  0.1144
  131OSM   H18F14167   5.368   6.414   8.001 -0.2247 -0.0268  0.0641
  131OSM   H18G14168   5.238   6.438   8.119 -0.1189  1.6863 -1.2897
  131OSM   H18H14169   5.341   6.290   8.124 -2.3624  0.8578  2.8664
  132OSM      N14170   2.158   3.314   6.053  0.4624 -0.8115 -0.2370
  132OSM    C1514171   2.127   3.259   5.915 -0.3205 -0.5461  0.3898
  132OSM   H15A14172   2.204   3.288   5.845 -1.6327  0.3324 -0.7729
  132OSM   H15B14173   2.029   3.287   5.878 -1.1032 -1.2734  1.8621
  132OSM   H15C14174   2.125   3.151   5.908  1.7120 -0.5314 -4.8884
  132OSM    C1414175   2.299   3.299   6.083 -0.3808 -0.6359  0.4481
  132OSM   H14A14176   2.318   3.196   6.110  2.7302 -0.3618 -0.3743
  132OSM   H14B14177   2.341   3.368   6.154  2.6085 -1.5964 -0.2318
  132OSM   H14C14178   2.360   3.312   5.995 -2.0776  0.7133 -0.5954
  132OSM    C1314179   2.118   3.464   6.045 -0.0448  0.2330  0.5079
  132OSM   H13A14180   2.117   3.525   6.134 -0.7041 -0.4980  1.0219
  132OSM   H13B14181   2.016   3.460   6.009  0.6014 -0.9975 -1.2982
  132OSM   H13C14182   2.179   3.523   5.979  0.2064  0.6304  1.0854
  132OSM    C1214183   2.064   3.250   6.156 -0.0887 -0.1972 -0.0933
  132OSM   H12A14184   2.026   3.162   6.106 -1.1351 -0.0342  0.3794
  132OSM   H12B14185   1.991   3.327   6.177 -0.6295  0.0112 -2.4848
  132OSM    C1114186   2.132   3.202   6.283 -0.3488 -0.2849 -0.8748
  132OSM   H11A14187   2.056   3.164   6.354  0.1973 -0.0986 -0.1862
  132OSM   H11B14188   2.192   3.276   6.339 -2.6611  0.3228  0.9840
  132OSM      P14189   2.169   2.955   6.212 -0.4972  0.2147  0.4133
  132OSM    O1314190   2.035   2.966   6.148  0.6976 -0.2558  0.9027
  132OSM    O1414191   2.277   2.904   6.124 -0.2517  0.1973 -0.2924
  132OSM    O1114192   2.162   2.877   6.338  0.2046  0.4910 -0.4418
  132OSM    O1214193   2.222   3.099   6.253 -0.0642  0.3581 -0.4843
  132OSM    C1S14194   2.192   2.922   6.469  0.1774 -0.1521  0.3728
  132OSM    H1S14195   2.098   2.964   6.510  0.5296 -0.6776  1.7806
  132OSM    H1T14196   2.266   3.005   6.472 -1.9570  1.9439 -1.2997
  132OSM     NF14197   2.208   2.853   6.700  0.0292 -0.0978 -0.4009
  132OSM    HNF14198   2.290   2.886   6.745  0.9416 -2.1284 -0.4518
  132OSM    C2S14199   2.216   2.805   6.564 -0.0659 -0.0176  0.6509
  132OSM    H2S14200   2.138   2.729   6.541  1.8544 -1.5638 -1.1711
  132OSM    C3S14201   2.348   2.734   6.535 -1.0642  0.2364  0.6561
  132OSM    H3S14202   2.441   2.795   6.543 -0.4835 -0.6287  0.5448
  132OSM     O314203   2.340   2.690   6.404 -0.3233 -0.3881  0.4189
  132OSM    HO314204   2.290   2.765   6.371  0.7063 -0.0286 -0.4217
  132OSM    C4S14205   2.365   2.624   6.631  0.0567  0.7377 -0.6736
  132OSM    H4S14206   2.294   2.540   6.621 -0.2719  1.1007 -1.4538
  132OSM    C5S14207   2.457   2.623   6.731  1.0004 -0.4775  0.3508
  132OSM    H5S14208   2.525   2.709   6.737  1.4704 -0.8090 -0.1527
  132OSM    C6S14209   2.478   2.521   6.832 -0.9451  0.3280  0.2280
  132OSM    H6S14210   2.580   2.477   6.830 -0.8050  0.5235 -2.9629
  132OSM    H6T14211   2.413   2.434   6.810  0.6857 -0.6103 -1.0194
  132OSM    C7S14212   2.447   2.588   6.970  0.8072  0.3053 -0.3607
  132OSM    H7S14213   2.342   2.623   6.971 -0.0506 -2.0630 -1.3682
  132OSM    H7T14214   2.513   2.676   6.986 -0.3014  1.4953 -2.0741
  132OSM    C8S14215   2.463   2.482   7.077  0.0185 -0.2423 -0.0259
  132OSM    H8S14216   2.557   2.426   7.059  0.0465 -0.2604  0.1716
  132OSM    H8T14217   2.390   2.400   7.065  0.5160 -0.9233  1.3957
  132OSM    C9S14218   2.464   2.526   7.223  0.0673 -0.2820 -0.8039
  132OSM    H9S14219   2.546   2.600   7.233 -1.1058  1.0679 -0.8874
  132OSM    H9T14220   2.479   2.435   7.286 -0.7938  0.8993  1.1974
  132OSM   C10S14221   2.339   2.594   7.285 -0.6310 -0.2331 -0.8894
  132OSM   H10S14222   2.251   2.530   7.266 -0.3758 -0.1235 -2.5981
  132OSM   H10T14223   2.327   2.696   7.241 -0.2605  0.3146  0.2494
  132OSM   C11S14224   2.352   2.611   7.432 -0.2576  1.3903 -0.0533
  132OSM   H11S14225   2.457   2.643   7.444  0.8122 -1.5630 -0.7223
  132OSM   H11T14226   2.340   2.518   7.493  2.9646  0.5623 -0.4933
  132OSM   C12S14227   2.250   2.719   7.492  1.0982 -1.4488  0.6446
  132OSM   H12S14228   2.152   2.671   7.472  0.3473  0.3525 -0.2869
  132OSM   H12T14229   2.258   2.807   7.425  1.7637 -1.2536  0.9714
  132OSM   C13S14230   2.281   2.749   7.641 -0.2666  0.5976  0.5991
  132OSM   H13S14231   2.377   2.804   7.636  0.9742 -1.3660  1.6425
  132OSM   H13T14232   2.309   2.654   7.690  0.3662  2.0532  3.2187
  132OSM   C14S14233   2.164   2.821   7.703 -0.2349  0.0165 -0.0999
  132OSM   H14S14234   2.074   2.755   7.705  0.0212 -0.3198  0.8159
  132OSM   H14T14235   2.146   2.908   7.636  2.4075  0.1887 -0.6684
  132OSM   C15S14236   2.188   2.868   7.847  0.8350  0.9805 -0.4215
  132OSM   H15S14237   2.267   2.945   7.855  0.8490  0.9734 -0.4971
  132OSM   H15T14238   2.213   2.781   7.912  1.7349  0.3022 -1.6227
  132OSM   C16S14239   2.070   2.939   7.917  0.2080 -0.1600  0.4795
  132OSM   H16S14240   1.978   2.876   7.924  0.1212 -0.0978 -0.0953
  132OSM   H16T14241   2.042   3.036   7.870 -0.7787  0.1760  1.7001
  132OSM   C17S14242   2.097   2.986   8.063  0.2969  0.3999 -0.6139
  132OSM   H17S14243   2.183   3.057   8.061 -0.1419  1.0156  0.8135
  132OSM   H17T14244   2.118   2.893   8.121 -2.8925 -0.5059 -0.7551
  132OSM   C18S14245   1.981   3.048   8.142  0.1568  0.1218  0.3355
  132OSM   H18S14246   2.002   3.063   8.250 -0.2530 -0.0450  0.4390
  132OSM   H18T14247   1.899   2.975   8.130  1.1094 -0.8237 -0.7357
  132OSM   H18U14248   1.944   3.139   8.090 -0.4678  1.0986  2.3707
  132OSM    C1F14249   2.083   2.873   6.753  0.1489  0.2331 -0.0886
  132OSM     OF14250   1.980   2.834   6.700 -0.0128  0.1705 -0.5933
  132OSM    C2F14251   2.084   2.950   6.883  0.1436  0.6348  0.1641
  132OSM    H2F14252   2.163   3.026   6.866  0.6454  0.1986  0.5056
  132OSM    H2G14253   2.122   2.888   6.967  0.9175  1.4788  0.4534
  132OSM    C3F14254   1.946   3.007   6.905 -0.0702 -0.4413  0.2351
  132OSM    H3F14255   1.868   2.928   6.913 -0.8741  0.4132  1.2128
  132OSM    H3G14256   1.920   3.069   6.816  1.0524 -0.9810 -0.4920
  132OSM    C4F14257   1.936   3.096   7.032  0.1716 -0.2791 -0.7316
  132OSM    H4F14258   1.841   3.149   7.053  0.9318  0.9554 -0.3445
  132OSM    H4G14259   2.014   3.170   7.003  2.5779 -2.6630 -0.7477
  132OSM    C5F14260   1.985   3.028   7.154 -0.3693  0.3218  0.2664
  132OSM    H5F14261   2.095   3.021   7.169 -0.7890  0.3293  4.6283
  132OSM    H5G14262   1.949   2.923   7.153  0.7791 -0.0919  0.3373
  132OSM    C6F14263   1.938   3.098   7.283  0.7107  0.6560  0.7843
  132OSM    H6F14264   1.970   3.032   7.366 -1.3846 -1.1652  0.2251
  132OSM    H6G14265   1.827   3.094   7.283  0.6524  1.5053 -0.4845
  132OSM    C7F14266   1.997   3.232   7.309 -0.1609  0.5188 -0.3238
  132OSM    H7F14267   1.949   3.265   7.404  0.3425  1.7209 -0.4809
  132OSM    H7G14268   1.975   3.303   7.226 -2.5061  0.8978  0.5323
  132OSM    C8F14269   2.152   3.227   7.337 -0.3019 -0.3719  0.3782
  132OSM    H8F14270   2.212   3.171   7.262  2.1955  1.4054  0.9498
  132OSM    H8G14271   2.160   3.165   7.428 -0.5125 -1.1544 -0.1290
  132OSM    C9F14272   2.214   3.363   7.353  0.4791  0.5305  1.0071
  132OSM    H9F14273   2.268   3.410   7.270 -3.2415  0.9910 -1.3914
  132OSM   C10F14274   2.210   3.421   7.474 -0.4361 -0.0932 -0.4341
  132OSM   H10F14275   2.236   3.528   7.476 -1.9802  0.3864 -2.3058
  132OSM   C11F14276   2.146   3.370   7.606  0.6162 -0.5958  0.8658
  132OSM   H11F14277   2.224   3.373   7.686 -0.7691  0.5858  2.2239
  132OSM   H11G14278   2.103   3.268   7.600  0.9234 -0.6795 -0.1659
  132OSM   C12F14279   2.036   3.459   7.669 -0.0489 -0.0244 -0.0793
  132OSM   H12F14280   1.945   3.457   7.606  0.0944  0.8135 -0.3266
  132OSM   H12G14281   2.063   3.566   7.682  1.5551 -0.3511 -0.5072
  132OSM   C13F14282   1.995   3.389   7.797 -1.7163  0.1269  0.1866
  132OSM   H13F14283   2.084   3.378   7.863 -3.1222 -1.2569  1.9400
  132OSM   H13G14284   1.961   3.286   7.774  1.1306 -1.1135  1.0268
  132OSM   C14F14285   1.888   3.474   7.867 -0.5317  0.4082  0.2396
  132OSM   H14F14286   1.796   3.479   7.805  0.8411 -1.8757 -2.2048
  132OSM   H14G14287   1.917   3.579   7.886 -1.8177  0.6542  0.9627
  132OSM   C15F14288   1.848   3.414   8.000  0.0232  0.6783 -0.6043
  132OSM   H15F14289   1.932   3.407   8.072 -2.0768 -0.3715  1.9509
  132OSM   H15G14290   1.816   3.308   7.993  1.6884  0.0369  0.7698
  132OSM   C16F14291   1.720   3.485   8.065  0.2921  0.0631  0.0094
  132OSM   H16F14292   1.641   3.494   7.987 -0.9317 -0.8862  1.0952
  132OSM   H16G14293   1.763   3.580   8.104  2.1000 -0.4578 -0.6268
  132OSM   C17F14294   1.652   3.406   8.184  0.4080  0.2853 -0.7738
  132OSM   H17F14295   1.720   3.371   8.264  1.8322  3.1473 -0.6172
  132OSM   H17G14296   1.596   3.315   8.152 -0.9263  0.5545  0.6434
  132OSM   C18F14297   1.556   3.493   8.250  0.1205 -0.1723 -0.3149
  132OSM   H18F14298   1.613   3.576   8.297  0.8416 -0.3104 -0.9440
  132OSM   H18G14299   1.496   3.439   8.327 -1.8126  0.2606 -1.4300
  132OSM   H18H14300   1.483   3.541   8.181  1.2853  1.4638 -0.4544
  133SAPE     N14301   6.367   3.447  10.725  0.6532  0.1287 -0.0874
  133SAPE   HN114302   6.400   3.534  10.772 -0.1995  0.6806 -0.4804
  133SAPE   HN214303   6.365   3.450  10.621 -1.5975 -1.2258 -0.1372
  133SAPE   HN314304   6.267   3.439  10.751  0.9377  1.1156  1.4455
  133SAPE   C1214305   6.446   3.322  10.761  0.2661 -0.4077  0.1577
  133SAPE  H12A14306   6.408   3.245  10.690 -0.1548 -0.9916  1.0039
  133SAPE  H12B14307   6.425   3.294  10.866  2.8991 -0.0535  0.8527
  133SAPE   C1114308   6.594   3.348  10.741  0.2374  0.6072 -0.2755
  133SAPE  H11A14309   6.648   3.258  10.777 -0.9036  0.5744  1.4732
  133SAPE  H11B14310   6.613   3.435  10.808  0.6060  0.5155 -0.2600
  133SAPE     P14311   6.766   3.448  10.558  0.3685  0.2616 -0.3920
  133SAPE   O1314312   6.773   3.585  10.610 -0.6671  0.1470 -0.1868
  133SAPE   O1414313   6.872   3.360  10.606  0.2235 -0.8604 -0.0844
  133SAPE   O1214314   6.626   3.381  10.601 -0.2778  0.5816 -0.0347
  133SAPE   O1114315   6.759   3.464  10.401  0.1694  0.0652 -0.4185
  133SAPE    C114316   6.657   3.394  10.326 -0.4730 -0.4427  0.8449
  133SAPE    HA14317   6.643   3.293  10.371 -0.3738 -0.5581  0.6139
  133SAPE    HB14318   6.557   3.437  10.347 -0.8645 -1.4626  1.1400
  133SAPE    C214319   6.686   3.382  10.169 -0.8051 -0.2614 -1.0352
  133SAPE    HS14320   6.641   3.286  10.136  0.0213 -0.8073 -0.6002
  133SAPE   O2114321   6.822   3.400  10.139  0.4992 -0.3389 -0.2182
  133SAPE   C2114322   6.900   3.310  10.192 -0.0235 -0.3077 -0.4455
  133SAPE   O2214323   6.870   3.221  10.269  0.2834  0.6559  0.4380
  133SAPE   C2214324   7.046   3.340  10.149 -1.1658 -0.3195  0.6886
  133SAPE   H2R14325   7.061   3.317  10.041  2.0013 -0.3782  1.0428
  133SAPE   H2S14326   7.052   3.450  10.166 -0.9846 -0.0833 -0.7724
  133SAPE    C314327   6.607   3.490  10.086 -0.2974  0.4505 -0.0191
  133SAPE    HX14328   6.658   3.587  10.105 -0.3222  0.5276 -0.3489
  133SAPE    HY14329   6.502   3.503  10.121  0.3732 -0.3983  2.4800
  133SAPE   O3114330   6.613   3.469   9.942 -0.3824 -0.1578  0.1548
  133SAPE   C3114331   6.533   3.368   9.902  0.3726 -0.2557  0.4391
  133SAPE   O3214332   6.455   3.306   9.964 -0.2636  0.3155 -0.5752
  133SAPE   C3214333   6.558   3.369   9.751  1.1127  0.4066  1.0418
  133SAPE   H2X14334   6.652   3.317   9.723  0.2751 -0.8357  0.3899
  133SAPE   H2Y14335   6.572   3.477   9.730  1.7660  0.7401  3.0338
  133SAPE   C2314336   7.163   3.263  10.217 -0.4694 -0.8145 -0.0965
  133SAPE   H3R14337   7.130   3.162  10.248  3.5578 -1.3720  3.1852
  133SAPE   H3S14338   7.188   3.317  10.311  0.2504 -1.3872  0.0478
  133SAPE   C2414339   7.290   3.254  10.131 -0.0025 -0.4821 -0.2621
  133SAPE   H4R14340   7.367   3.246  10.211 -1.8074  1.0970  1.7651
  133SAPE   H4S14341   7.301   3.355  10.085  1.7178  0.3953  1.8753
  133SAPE   C2514342   7.301   3.151  10.022  0.1279 -0.2780  0.5984
  133SAPE   H5R14343   7.229   3.070  10.041  0.3421 -0.3672  1.0472
  133SAPE   C2614344   7.365   3.165   9.906  0.0079 -0.1219 -0.0938
  133SAPE   H6R14345   7.363   3.073   9.846  1.6905  0.3012 -0.8612
  133SAPE   C2714346   7.454   3.269   9.842  0.4177  0.0225 -0.1813
  133SAPE   H7R14347   7.553   3.221   9.825  0.0519 -1.8571  2.3052
  133SAPE   H7S14348   7.470   3.338   9.927  1.0216 -0.3745  0.0391
  133SAPE   C2814349   7.384   3.331   9.724  0.1247 -0.5548  0.0380
  133SAPE   H8R14350   7.321   3.419   9.747  1.0847  0.1655 -0.0432
  133SAPE   C2914351   7.399   3.283   9.596 -0.1568  0.1245 -0.0378
  133SAPE   H9R14352   7.338   3.335   9.520  0.1968 -0.5326 -0.7860
  133SAPE  C21014353   7.476   3.154   9.548  0.4010 -0.1379 -0.2292
  133SAPE  H10R14354   7.419   3.093   9.475  0.5047  0.1037 -0.5171
  133SAPE  H10S14355   7.518   3.099   9.635  0.5787  0.7516  0.2661
  133SAPE  C21114356   7.605   3.203   9.475  0.6892  0.0325  0.1492
  133SAPE  H11R14357   7.695   3.237   9.528  1.9114 -1.3992 -0.9052
  133SAPE  C21214358   7.616   3.200   9.341  0.2387  0.0435  0.0863
  133SAPE  H12R14359   7.703   3.244   9.290  0.4063 -0.5719 -0.1683
  133SAPE  C21314360   7.519   3.135   9.241  0.0646 -0.7380 -0.3057
  133SAPE  H13R14361   7.435   3.196   9.203 -1.7332 -2.4370  0.7868
  133SAPE  H13S14362   7.467   3.051   9.291 -0.6850 -0.5071 -0.6918
  133SAPE  C21414363   7.597   3.067   9.130  0.7238  0.4305  0.1416
  133SAPE  H14R14364   7.660   2.983   9.163 -0.5824 -0.1041  1.4248
  133SAPE  C21514365   7.604   3.081   8.996 -0.3525 -0.4686 -0.6953
  133SAPE  H15R14366   7.677   3.018   8.944  3.2123  2.0492  0.9049
  133SAPE  C21614367   7.531   3.181   8.908  0.1694  0.8044  0.5732
  133SAPE  H16R14368   7.575   3.281   8.930 -0.9127  1.6939 -1.1229
  133SAPE  H16S14369   7.422   3.193   8.924  0.3852  0.1910  2.9828
  133SAPE  C21714370   7.553   3.148   8.757  0.5244 -0.5336  0.5494
  133SAPE  H17R14371   7.503   3.049   8.748 -0.8256 -0.0642  2.2754
  133SAPE  H17S14372   7.658   3.145   8.721  0.9400  1.0399  1.5506
  133SAPE  C21814373   7.468   3.250   8.665 -0.4067  0.3010 -0.3731
  133SAPE  H18R14374   7.506   3.352   8.684 -0.4595  0.3191 -0.3664
  133SAPE  H18S14375   7.360   3.245   8.690 -0.3709 -2.7404 -0.3729
  133SAPE  C21914376   7.483   3.224   8.518  0.2282  0.3568 -0.3715
  133SAPE  H19R14377   7.404   3.282   8.466  2.7246  2.9491 -1.5107
  133SAPE  H19S14378   7.477   3.119   8.484  1.0267  0.3614 -0.5466
  133SAPE  C22014379   7.624   3.266   8.455 -0.1602  0.0698 -0.2443
  133SAPE  H20R14380   7.629   3.223   8.353  2.9096  2.3954 -1.2562
  133SAPE  H20S14381   7.710   3.220   8.510 -1.1383 -0.4306  0.9240
  133SAPE  H20T14382   7.643   3.375   8.467  0.0792 -0.0715  0.7751
  133SAPE   C3314383   6.436   3.302   9.679  0.2378 -0.0749  0.1371
  133SAPE   H3X14384   6.348   3.369   9.673  0.3475 -0.0233 -1.1781
  133SAPE   H3Y14385   6.406   3.202   9.718 -2.0385  0.1381 -0.8753
  133SAPE   C3414386   6.472   3.273   9.531 -0.0005  0.2253  0.0193
  133SAPE   H4X14387   6.557   3.201   9.535  0.6159  0.6838 -2.6170
  133SAPE   H4Y14388   6.505   3.369   9.486  0.9937  0.7998  1.8917
  133SAPE   C3514389   6.372   3.193   9.455  0.9745  0.2477 -0.2492
  133SAPE   H5X14390   6.332   3.111   9.518 -0.7645  0.4101 -1.0680
  133SAPE   H5Y14391   6.414   3.130   9.374  0.2692 -0.7138  0.1096
  133SAPE   C3614392   6.262   3.281   9.396  1.0905  0.2448  0.6732
  133SAPE   H6X14393   6.290   3.340   9.306 -3.2090  0.9908 -0.4162
  133SAPE   H6Y14394   6.221   3.352   9.471  1.0534  0.4864  0.4262
  133SAPE   C3714395   6.141   3.195   9.360 -0.6973  0.2080 -0.1436
  133SAPE   H7X14396   6.104   3.155   9.457  1.7345  0.5185  0.9923
  133SAPE   H7Y14397   6.169   3.110   9.295 -2.2089 -0.2659 -0.2272
  133SAPE   C3814398   6.020   3.273   9.299 -0.3750 -0.1138 -0.4919
  133SAPE   H8X14399   5.995   3.357   9.367  1.4957  0.1206 -0.0235
  133SAPE   H8Y14400   5.934   3.202   9.299 -0.0720 -0.4987  0.2906
  133SAPE   C3914401   6.042   3.342   9.170  0.5676  0.1789  0.6002
  133SAPE   H9X14402   6.115   3.424   9.188 -0.0817  1.2168 -1.1646
  133SAPE   H9Y14403   5.947   3.394   9.146  0.6987 -0.4647 -1.5915
  133SAPE  C31014404   6.077   3.241   9.060  0.2718 -0.2543 -0.1974
  133SAPE  H10X14405   6.168   3.186   9.093  1.5039  0.8716 -1.5354
  133SAPE  H10Y14406   6.096   3.296   8.965 -0.2450  1.0022  0.4040
  133SAPE  C31114407   5.966   3.136   9.029 -0.0648 -0.5293  0.3429
  133SAPE  H11X14408   5.866   3.185   9.035 -0.5486 -1.4845  0.3023
  133SAPE  H11Y14409   5.975   3.062   9.111 -0.4163  2.1984  3.0548
  133SAPE  C31214410   5.972   3.075   8.888 -0.4243  0.1088 -0.7674
  133SAPE  H12X14411   6.072   3.032   8.867 -0.2928  0.0058  0.0670
  133SAPE  H12Y14412   5.941   3.154   8.816  0.5324  1.0303 -0.1966
  133SAPE  C31314413   5.880   2.955   8.884  0.6758 -0.4256 -0.3677
  133SAPE  H13X14414   5.775   2.985   8.903  0.6957  0.5861 -1.6755
  133SAPE  H13Y14415   5.912   2.893   8.970 -0.1278 -3.2099 -1.9674
  133SAPE  C31414416   5.884   2.875   8.750 -0.2036 -0.1482  0.3220
  133SAPE  H14X14417   5.833   2.777   8.762 -2.3633  0.4049 -3.0597
  133SAPE  H14Y14418   5.988   2.858   8.715 -0.4316  0.4562 -0.6964
  133SAPE  C31514419   5.805   2.952   8.640 -0.1758  0.2821  0.2686
  133SAPE  H15X14420   5.824   3.061   8.639 -2.2864  0.7442  1.8948
  133SAPE  H15Y14421   5.695   2.939   8.655 -0.2362 -0.9096 -0.9282
  133SAPE  C31614422   5.838   2.895   8.501 -0.2369  0.0119 -0.2387
  133SAPE  H16X14423   5.793   2.794   8.511  0.3716 -0.0771  2.0878
  133SAPE  H16Y14424   5.944   2.911   8.471 -0.5161  1.2561 -0.6239
  133SAPE  C31714425   5.754   2.957   8.388 -0.0139 -0.3559 -0.9471
  133SAPE  H17X14426   5.792   3.057   8.359  2.0991 -0.1765  2.0461
  133SAPE  H17Y14427   5.651   2.962   8.431  0.1041 -0.0795 -0.6961
  133SAPE  C31814428   5.771   2.875   8.255 -0.6107 -0.0603  0.1747
  133SAPE  H18X14429   5.868   2.897   8.207 -0.7095 -2.8798 -1.5230
  133SAPE  H18Y14430   5.686   2.884   8.184  1.6815 -1.7950 -3.0412
  133SAPE  H18Z14431   5.759   2.768   8.284  1.3384 -0.1061  0.9670
  134SAPE     N14432   0.851   2.206  11.015 -0.0822  0.3541  0.2620
  134SAPE   HN114433   0.873   2.177  11.113  0.9577  0.3102  0.0293
  134SAPE   HN214434   0.923   2.274  10.983 -1.6839  2.1359  0.2492
  134SAPE   HN314435   0.762   2.259  11.024 -1.0664 -1.4484  2.2761
  134SAPE   C1214436   0.814   2.106  10.918  0.3820 -0.4414  0.6631
  134SAPE  H12A14437   0.794   2.152  10.818  0.5460 -0.4554  0.6240
  134SAPE  H12B14438   0.719   2.061  10.954  0.7706 -1.1604  0.8058
  134SAPE   C1114439   0.927   2.000  10.906 -0.4197  0.3957 -0.0003
  134SAPE  H11A14440   0.877   1.913  10.858 -0.3014  1.1635 -1.5841
  134SAPE  H11B14441   0.967   1.960  11.001 -1.5897 -0.2407  0.2516
  134SAPE     P14442   1.066   1.992  10.688 -0.0125 -0.2543  0.1271
  134SAPE   O1314443   1.188   2.054  10.636  0.0338  0.4088 -0.4513
  134SAPE   O1414444   1.074   1.844  10.688  0.0894  0.1736 -0.7481
  134SAPE   O1214445   1.042   2.051  10.835  0.8987  0.7507  0.4477
  134SAPE   O1114446   0.941   2.042  10.606 -0.5586  0.3695 -0.2580
  134SAPE    C114447   0.928   2.171  10.554 -0.4190 -0.1284 -0.1835
  134SAPE    HA14448   0.823   2.205  10.544  0.9427  4.2900 -2.1167
  134SAPE    HB14449   0.990   2.239  10.616  1.8084 -0.2930 -2.0688
  134SAPE    C214450   0.987   2.168  10.410  0.2202 -0.7047 -0.2139
  134SAPE    HS14451   1.096   2.146  10.415  0.1330 -1.1211 -0.0943
  134SAPE   O2114452   0.973   2.290  10.342 -0.3907 -0.1957  0.3532
  134SAPE   C2114453   1.046   2.397  10.387  0.6873 -0.2271  0.1668
  134SAPE   O2214454   1.126   2.399  10.477 -0.0188  0.3089 -0.1661
  134SAPE   C2214455   1.016   2.521  10.291 -0.0847  0.2812 -1.2448
  134SAPE   H2R14456   1.009   2.478  10.189 -1.0918  0.4979 -1.2804
  134SAPE   H2S14457   0.913   2.546  10.326  0.1753 -0.1947 -0.1131
  134SAPE    C314458   0.911   2.057  10.331 -0.9842 -0.0038  1.0710
  134SAPE    HX14459   0.800   2.062  10.332 -0.9748  0.1226  1.6851
  134SAPE    HY14460   0.946   1.967  10.386 -0.7206 -0.1470  0.6758
  134SAPE   O3114461   0.950   2.054  10.190  0.5256 -0.1931  0.2819
  134SAPE   C3114462   1.058   1.989  10.156 -0.1413 -0.0258 -0.4346
  134SAPE   O3214463   1.135   1.932  10.231  0.0214 -0.0264  0.2225
  134SAPE   C3214464   1.074   2.007  10.003  0.1188  0.6381  0.0297
  134SAPE   H2X14465   1.060   2.114   9.974 -3.3175 -0.0609 -1.2927
  134SAPE   H2Y14466   0.989   1.954   9.956  0.0481  1.7293 -1.1365
  134SAPE   C2314467   1.108   2.636  10.304 -0.3611  0.2593  0.1916
  134SAPE   H3R14468   1.132   2.669  10.407  1.6887  0.1092 -0.1900
  134SAPE   H3S14469   1.062   2.725  10.256  1.5763  0.0622 -2.2377
  134SAPE   C2414470   1.242   2.610  10.233  0.5148  0.2273  0.2561
  134SAPE   H4R14471   1.212   2.597  10.127  1.1228 -1.4608  0.2496
  134SAPE   H4S14472   1.287   2.512  10.261  1.3273  0.4856 -0.1124
  134SAPE   C2514473   1.343   2.721  10.255  0.1103 -0.3005 -0.4115
  134SAPE   H5R14474   1.362   2.738  10.362  0.1548  1.0477 -0.6170
  134SAPE   C2614475   1.402   2.801  10.167  0.0864 -0.1113 -0.6707
  134SAPE   H6R14476   1.470   2.879  10.205  1.2188 -0.9120 -0.9859
  134SAPE   C2714477   1.388   2.797  10.014  0.5096 -0.2595  0.1357
  134SAPE   H7R14478   1.307   2.727   9.983  1.1407 -0.0442 -2.2318
  134SAPE   H7S14479   1.479   2.746   9.976  3.0448  2.3088  2.3829
  134SAPE   C2814480   1.380   2.942   9.966  0.9768 -0.2747  0.5685
  134SAPE   H8R14481   1.347   3.009  10.047  0.9787 -1.7741  1.8539
  134SAPE   C2914482   1.420   2.987   9.851 -0.2538 -0.4068  0.6977
  134SAPE   H9R14483   1.388   3.088   9.820 -0.6153 -0.1664  1.7964
  134SAPE  C21014484   1.491   2.892   9.750  0.1023  0.6352  0.5988
  134SAPE  H10R14485   1.559   2.821   9.801  0.4430  2.0923  2.3051
  134SAPE  H10S14486   1.565   2.945   9.686 -0.0081 -0.5239 -0.5315
  134SAPE  C21114487   1.396   2.801   9.673 -0.3983 -0.2538 -0.6156
  134SAPE  H11R14488   1.303   2.788   9.731  1.0214 -0.1487  1.7870
  134SAPE  C21214489   1.412   2.752   9.547  0.5403 -0.4153  0.1615
  134SAPE  H12R14490   1.339   2.676   9.515  0.3716 -1.0996  2.0393
  134SAPE  C21314491   1.527   2.788   9.450 -0.1779 -0.0870  0.2119
  134SAPE  H13R14492   1.615   2.833   9.500 -0.7804  0.9266  0.4111
  134SAPE  H13S14493   1.485   2.867   9.384  0.0514 -1.6111 -1.8464
  134SAPE  C21414494   1.580   2.677   9.359  0.9412 -0.3708 -0.1810
  134SAPE  H14R14495   1.664   2.624   9.406  0.4299 -0.1978  0.9471
  134SAPE  C21514496   1.532   2.646   9.241  0.5486  0.6892  1.2112
  134SAPE  H15R14497   1.583   2.571   9.179  1.6593  1.0115  1.7053
  134SAPE  C21614498   1.414   2.703   9.157 -0.2062 -0.0605 -0.5434
  134SAPE  H16R14499   1.365   2.786   9.214  0.1905 -0.5673  0.5674
  134SAPE  H16S14500   1.339   2.623   9.142 -1.5004  1.0655 -0.3562
  134SAPE  C21714501   1.470   2.760   9.022  0.6869 -0.3001 -0.7087
  134SAPE  H17R14502   1.560   2.819   9.048 -0.2295 -0.5603  3.9066
  134SAPE  H17S14503   1.390   2.827   8.984  0.0719  0.1362  1.2742
  134SAPE  C21814504   1.496   2.647   8.920  0.0255  0.3745  0.5365
  134SAPE  H18R14505   1.409   2.578   8.919 -0.1244  0.4824  2.4201
  134SAPE  H18S14506   1.572   2.579   8.966 -0.1936 -0.1153  0.1851
  134SAPE  C21914507   1.544   2.697   8.783 -0.0012 -0.7292 -0.1489
  134SAPE  H19R14508   1.635   2.760   8.790 -1.2469  1.1356 -0.0173
  134SAPE  H19S14509   1.471   2.770   8.742  1.0167  0.9943  0.9822
  134SAPE  C22014510   1.559   2.580   8.689  0.5319  0.3103 -0.7056
  134SAPE  H20R14511   1.622   2.597   8.599  0.5643 -2.0312 -1.2083
  134SAPE  H20S14512   1.461   2.549   8.645  0.2274  2.3412 -1.5894
  134SAPE  H20T14513   1.605   2.492   8.739 -2.4988 -1.5672 -0.9129
  134SAPE   C3314514   1.218   1.962   9.958  0.5598  0.1106  0.4891
  134SAPE   H3X14515   1.217   1.851   9.959  0.9060 -0.0662 -3.2550
  134SAPE   H3Y14516   1.304   1.992  10.021  0.1732  1.2516  0.4926
  134SAPE   C3414517   1.249   2.008   9.813 -0.4568  0.2121 -0.1918
  134SAPE   H4X14518   1.358   2.011   9.791  0.1252  0.6039  2.3987
  134SAPE   H4Y14519   1.224   2.116   9.822  0.0025  0.1481  2.7258
  134SAPE   C3514520   1.176   1.930   9.706  0.1886  0.4781  0.0618
  134SAPE   H5X14521   1.069   1.933   9.735  0.2136  0.5083  0.1495
  134SAPE   H5Y14522   1.208   1.824   9.715 -0.5796  0.4129  2.5788
  134SAPE   C3614523   1.203   2.002   9.572  0.4133  0.6032 -0.0559
  134SAPE   H6X14524   1.310   1.999   9.544  0.2583  1.9804 -0.8758
  134SAPE   H6Y14525   1.169   2.107   9.577  2.1736  1.2492 -0.7768
  134SAPE   C3714526   1.136   1.922   9.457 -0.1614  0.1644  0.4602
  134SAPE   H7X14527   1.027   1.927   9.474 -0.4340 -0.9006 -0.8215
  134SAPE   H7Y14528   1.172   1.817   9.460  0.4970  0.3369 -0.5515
  134SAPE   C3814529   1.158   1.978   9.316  0.1970  0.3427 -0.0319
  134SAPE   H8X14530   1.267   1.978   9.295 -0.2595  2.3087 -3.0791
  134SAPE   H8Y14531   1.127   2.084   9.314  1.6255  0.8283  1.4396
  134SAPE   C3914532   1.109   1.887   9.201  0.2607 -0.3370 -0.5410
  134SAPE   H9X14533   1.003   1.867   9.229  0.2761  0.2789 -0.0306
  134SAPE   H9Y14534   1.160   1.788   9.201  0.4298 -0.2754 -1.9035
  134SAPE  C31014535   1.124   1.959   9.067  0.1357 -0.2009  0.2502
  134SAPE  H10X14536   1.230   1.986   9.044  0.2064 -0.5616  0.1457
  134SAPE  H10Y14537   1.075   2.059   9.064 -0.2053 -0.3899 -1.8484
  134SAPE  C31114538   1.061   1.873   8.953 -0.3627 -0.2487 -0.0910
  134SAPE  H11X14539   0.959   1.846   8.987  0.0628 -0.1154  1.3540
  134SAPE  H11Y14540   1.120   1.780   8.936  0.0215  0.0265 -0.2860
  134SAPE  C31214541   1.071   1.958   8.824 -0.3263 -0.3113 -0.4677
  134SAPE  H12X14542   1.174   1.985   8.792 -0.6492  1.5547 -0.0518
  134SAPE  H12Y14543   1.034   2.058   8.854 -1.7650 -0.8796 -0.2602
  134SAPE  C31314544   0.974   1.904   8.718 -0.4919  0.4334 -0.0322
  134SAPE  H13X14545   0.907   1.986   8.683  0.7284  0.6689 -1.9573
  134SAPE  H13Y14546   0.898   1.834   8.759 -1.6947  0.0442 -2.7148
  134SAPE  C31414547   1.047   1.836   8.611 -0.4276  0.1958  0.1821
  134SAPE  H14X14548   1.094   1.747   8.659  0.2989  1.3297  1.6624
  134SAPE  H14Y14549   1.136   1.888   8.569  0.2268  0.0035  1.2964
  134SAPE  C31514550   0.962   1.794   8.490  0.1706  0.2203 -0.3076
  134SAPE  H15X14551   0.876   1.728   8.517  0.0110  0.8041  0.6564
  134SAPE  H15Y14552   1.026   1.734   8.422  2.3181  0.1260  1.6581
  134SAPE  C31614553   0.898   1.906   8.420 -0.0198 -0.2992  0.6015
  134SAPE  H16X14554   0.984   1.971   8.392 -1.8953  1.2174 -2.1926
  134SAPE  H16Y14555   0.815   1.963   8.468 -0.0043  0.2112  0.0332
  134SAPE  C31714556   0.835   1.869   8.286  0.0363  0.3419 -0.1314
  134SAPE  H17X14557   0.752   1.797   8.301  0.7624 -0.1610  1.6677
  134SAPE  H17Y14558   0.909   1.810   8.228 -1.3470 -2.7392  1.0325
  134SAPE  C31814559   0.803   1.980   8.184  0.2356 -0.5896 -0.4314
  134SAPE  H18X14560   0.737   2.062   8.220  2.5272  1.1273  0.1435
  134SAPE  H18Y14561   0.761   1.935   8.091  0.3002 -1.9956  0.2022
  134SAPE  H18Z14562   0.900   2.027   8.155 -0.1056  0.1428 -0.4263
  135SAPE     N14563   6.745   3.812  10.448  0.4913 -0.2193  0.6021
  135SAPE   HN114564   6.655   3.821  10.397  0.9848 -0.1822 -0.2894
  135SAPE   HN214565   6.740   3.741  10.524  2.4451 -2.5144 -1.2462
  135SAPE   HN314566   6.756   3.904  10.494  1.6572  0.4762 -0.9740
  135SAPE   C1214567   6.863   3.762  10.362 -0.5872 -0.4598 -0.4242
  135SAPE  H12A14568   6.877   3.839  10.283  2.2839 -0.1901  0.2545
  135SAPE  H12B14569   6.837   3.662  10.323 -1.6927  0.7243 -2.9725
  135SAPE   C1114570   6.990   3.762  10.447 -0.0379  0.1668 -0.5597
  135SAPE  H11A14571   7.078   3.733  10.385 -0.1291 -0.9053 -0.2186
  135SAPE  H11B14572   6.984   3.680  10.522  2.5677 -0.6056 -1.0599
  135SAPE     P14573   7.126   3.900  10.613  0.0826  0.5327  0.2293
  135SAPE   O1314574   7.074   3.913  10.750 -0.5829 -0.2043 -0.1472
  135SAPE   O1414575   7.231   3.794  10.590  0.0051  0.5190  0.0598
  135SAPE   O1214576   7.003   3.884  10.516  0.6189 -0.0783  0.2729
  135SAPE   O1114577   7.184   4.030  10.566  0.0206 -0.2754 -0.4031
  135SAPE    C114578   7.161   4.087  10.435 -1.0863 -0.0230 -0.3893
  135SAPE    HA14579   7.062   4.063  10.392 -1.0574 -1.0453  0.0932
  135SAPE    HB14580   7.183   4.196  10.444  0.1278 -0.2600 -0.3443
  135SAPE    C214581   7.269   4.048  10.333 -0.0629  0.2122 -0.8353
  135SAPE    HS14582   7.276   4.135  10.265  1.5197  0.7227 -0.0565
  135SAPE   O2114583   7.234   3.926  10.270 -0.8364  0.1915  0.1322
  135SAPE   C2114584   7.241   3.932  10.140 -0.0073 -0.3372  0.0688
  135SAPE   O2214585   7.262   4.030  10.073 -0.8455  0.3078 -0.4025
  135SAPE   C2214586   7.190   3.798  10.067 -0.4202 -0.2364  0.7315
  135SAPE   H2R14587   7.222   3.714  10.132  0.7057  0.2422  0.8087
  135SAPE   H2S14588   7.079   3.799  10.069 -0.6077  3.8525 -1.2625
  135SAPE    C314589   7.412   4.044  10.395  0.0891  0.0000 -0.1392
  135SAPE    HX14590   7.424   3.945  10.443 -0.6557 -0.5216 -1.0040
  135SAPE    HY14591   7.426   4.119  10.475  1.5948  1.1644 -1.4179
  135SAPE   O3114592   7.516   4.079  10.299  0.4413 -0.1524  0.1945
  135SAPE   C3114593   7.596   3.982  10.253 -0.4063  0.3332 -0.0918
  135SAPE   O3214594   7.585   3.865  10.280 -0.3862  0.2600 -0.3418
  135SAPE   C3214595   7.697   4.036  10.151 -0.5380 -0.6231  0.2821
  135SAPE   H2X14596   7.783   3.965  10.145  0.5215  0.6242  0.3168
  135SAPE   H2Y14597   7.742   4.129  10.191 -1.4230 -0.1397  0.1676
  135SAPE   C2314598   7.224   3.782   9.918 -0.2255  0.2728  0.2061
  135SAPE   H3R14599   7.329   3.818   9.910  0.3196 -1.3499 -0.3596
  135SAPE   H3S14600   7.154   3.843   9.857 -0.9329 -1.9416 -1.3025
  135SAPE   C2414601   7.219   3.644   9.856 -0.3203  0.1346  0.0533
  135SAPE   H4R14602   7.309   3.586   9.885 -0.6292  0.3777  1.5786
  135SAPE   H4S14603   7.232   3.676   9.750  1.3533 -2.2791 -0.5510
  135SAPE   C2514604   7.087   3.585   9.884  0.1286  0.2156 -0.1788
  135SAPE   H5R14605   7.067   3.563   9.990  0.7374  1.8503  0.3024
  135SAPE   C2614606   6.979   3.568   9.798  0.3217 -0.1680 -0.1520
  135SAPE   H6R14607   6.896   3.506   9.834  0.3759 -1.9628 -2.7982
  135SAPE   C2714608   6.973   3.609   9.653  0.1720  0.2124 -0.4369
  135SAPE   H7R14609   7.017   3.529   9.590  0.4181  0.8410 -1.0780
  135SAPE   H7S14610   7.037   3.695   9.624 -2.0935  1.2456 -2.7618
  135SAPE   C2814611   6.832   3.640   9.607  0.0848 -0.0702 -0.3991
  135SAPE   H8R14612   6.783   3.722   9.662 -1.5501  0.0563 -1.9430
  135SAPE   C2914613   6.765   3.580   9.513 -0.6901 -0.0763  0.3175
  135SAPE   H9R14614   6.661   3.611   9.498 -1.1237 -0.1937  2.6670
  135SAPE  C21014615   6.813   3.475   9.416  0.7019 -0.9787  0.2643
  135SAPE  H10R14616   6.775   3.382   9.464  4.8688 -0.9523  4.3332
  135SAPE  H10S14617   6.924   3.470   9.410  0.7531 -1.0508  1.1549
  135SAPE  C21114618   6.755   3.503   9.277  0.3685 -0.1907 -0.2585
  135SAPE  H11R14619   6.770   3.609   9.253 -0.4348 -0.6813 -3.2236
  135SAPE  C21214620   6.706   3.412   9.188 -0.2414 -0.5613 -0.0239
  135SAPE  H12R14621   6.664   3.450   9.094  1.2394 -2.7531 -1.6735
  135SAPE  C21314622   6.688   3.263   9.204 -0.4292  0.0952 -0.4237
  135SAPE  H13R14623   6.685   3.223   9.307  0.4638 -1.8191 -1.0800
  135SAPE  H13S14624   6.778   3.208   9.168 -0.9106 -1.6104  0.8436
  135SAPE  C21414625   6.559   3.222   9.122  0.3118 -0.0551 -0.0473
  135SAPE  H14R14626   6.460   3.267   9.135  0.6607  0.5643  0.5632
  135SAPE  C21514627   6.568   3.127   9.027  0.8859  0.1028 -0.5100
  135SAPE  H15R14628   6.479   3.104   8.967  0.2995  0.7323  0.1073
  135SAPE  C21614629   6.679   3.042   8.980 -1.1270 -0.1496  0.8981
  135SAPE  H16R14630   6.631   2.949   8.944 -1.0007  0.4136 -0.7972
  135SAPE  H16S14631   6.748   3.018   9.064  0.6358  1.8624  0.1114
  135SAPE  C21714632   6.761   3.112   8.861 -0.6701 -0.1626  0.3723
  135SAPE  H17R14633   6.851   3.052   8.837 -1.2542 -0.7466 -0.4518
  135SAPE  H17S14634   6.795   3.215   8.885 -1.4939  0.0990  0.4722
  135SAPE  C21814635   6.688   3.121   8.730 -0.3279  0.7551  0.7754
  135SAPE  H18R14636   6.600   3.189   8.728 -2.9670 -2.3790 -1.5195
  135SAPE  H18S14637   6.638   3.024   8.709  2.6751 -0.9875  1.1615
  135SAPE  C21914638   6.785   3.159   8.613  0.7913 -0.5382 -0.4277
  135SAPE  H19R14639   6.872   3.091   8.602  0.2522 -0.9753 -2.6310
  135SAPE  H19S14640   6.832   3.258   8.634  3.6174 -1.7708 -0.4450
  135SAPE  C22014641   6.712   3.191   8.481  0.0771 -0.0892  0.3682
  135SAPE  H20R14642   6.635   3.271   8.492 -1.6779 -1.7897  0.9948
  135SAPE  H20S14643   6.661   3.104   8.435 -0.1343 -0.0243  0.4759
  135SAPE  H20T14644   6.775   3.229   8.398 -2.1936 -0.6239 -1.6972
  135SAPE   C3314645   7.621   4.063  10.017  0.2731  0.3304 -0.3476
  135SAPE   H3X14646   7.578   4.166  10.016 -1.3957 -0.3351 -0.3601
  135SAPE   H3Y14647   7.542   3.990   9.989 -0.8300  1.3414  0.0099
  135SAPE   C3414648   7.724   4.072   9.899 -0.9721 -0.2938 -0.3531
  135SAPE   H4X14649   7.769   3.971   9.908  0.7326  0.6230  2.5521
  135SAPE   H4Y14650   7.801   4.145   9.931 -0.2590 -1.1434 -0.1084
  135SAPE   C3514651   7.660   4.111   9.765  0.3114 -0.4832 -0.3126
  135SAPE   H5X14652   7.621   4.214   9.780 -0.0765 -0.6739  0.0145
  135SAPE   H5Y14653   7.582   4.037   9.737  0.4412 -1.1761  1.0681
  135SAPE   C3614654   7.749   4.109   9.643  0.0273 -0.3289  0.0474
  135SAPE   H6X14655   7.813   4.018   9.648 -0.4951 -0.8099 -1.6114
  135SAPE   H6Y14656   7.817   4.197   9.638 -1.7867  1.1556  0.3418
  135SAPE   C3714657   7.679   4.105   9.505  0.1019  0.4673 -0.2072
  135SAPE   H7X14658   7.607   4.189   9.496  0.7135  0.8585 -1.7617
  135SAPE   H7Y14659   7.616   4.014   9.496  1.1237 -0.3257  0.4468
  135SAPE   C3814660   7.776   4.109   9.388 -0.4111  0.0395 -0.1200
  135SAPE   H8X14661   7.837   4.016   9.382  1.2092  1.0562 -0.1050
  135SAPE   H8Y14662   7.845   4.194   9.406 -1.1887  0.8708 -1.0154
  135SAPE   C3914663   7.700   4.121   9.254  0.3229 -0.9652  0.2580
  135SAPE   H9X14664   7.629   4.205   9.270  0.1621 -1.0245 -0.1381
  135SAPE   H9Y14665   7.638   4.038   9.216 -1.2239  0.4258 -0.3998
  135SAPE  C31014666   7.799   4.162   9.138  0.6167  0.2117 -0.2168
  135SAPE  H10X14667   7.846   4.257   9.173  0.2898  0.4076 -0.3089
  135SAPE  H10Y14668   7.734   4.181   9.050  0.0167  1.0418  0.3921
  135SAPE  C31114669   7.888   4.054   9.095 -0.0713  0.4349  0.6651
  135SAPE  H11X14670   7.819   3.984   9.044  1.3656 -0.8471  0.3972
  135SAPE  H11Y14671   7.948   4.008   9.176  3.4385  2.7464 -0.3596
  135SAPE  C31214672   7.990   4.109   8.986 -0.6494 -0.2581 -0.7021
  135SAPE  H12X14673   8.063   4.177   9.034  0.8382 -2.8413  0.9670
  135SAPE  H12Y14674   7.942   4.155   8.897  0.2935  0.5046 -0.8337
  135SAPE  C31314675   8.071   3.990   8.928 -0.9145 -0.3259  0.2866
  135SAPE  H13X14676   7.998   3.920   8.882  1.2148 -1.6188 -1.3283
  135SAPE  H13Y14677   8.119   3.942   9.016 -0.0913 -1.3824 -0.7028
  135SAPE  C31414678   8.176   4.012   8.819  0.2441 -0.3285 -0.5072
  135SAPE  H14X14679   8.259   4.070   8.865 -0.4163  0.0484  0.2386
  135SAPE  H14Y14680   8.141   4.078   8.737 -0.3866 -1.0892 -0.8584
  135SAPE  C31514681   8.242   3.883   8.775  0.3522  0.1253  0.0331
  135SAPE  H15X14682   8.166   3.815   8.731  0.0459  0.4135  0.1138
  135SAPE  H15Y14683   8.296   3.828   8.856  0.6087  1.4453  0.8033
  135SAPE  C31614684   8.356   3.918   8.676  0.4787 -0.6479 -0.5948
  135SAPE  H16X14685   8.431   3.984   8.725 -0.8668  0.3532  0.1980
  135SAPE  H16Y14686   8.306   3.991   8.609 -1.4892 -0.8217  0.6126
  135SAPE  C31714687   8.415   3.791   8.604 -0.6082 -0.4825  0.6820
  135SAPE  H17X14688   8.330   3.749   8.547  0.4074  0.4171 -1.6419
  135SAPE  H17Y14689   8.445   3.710   8.674 -4.0020 -1.2166  1.4769
  135SAPE  C31814690   8.516   3.832   8.494  0.3184  1.1543 -0.1558
  135SAPE  H18X14691   8.597   3.898   8.534 -0.1334  1.9409 -0.5173
  135SAPE  H18Y14692   8.463   3.888   8.415 -1.6748 -1.0746 -0.4800
  135SAPE  H18Z14693   8.553   3.740   8.445 -0.9191  0.3659  0.3568
  136SAPE     N14694   5.586   0.405  10.907  0.1595 -0.1227  0.0773
  136SAPE   HN114695   5.584   0.499  10.951 -0.9817  0.9000 -1.9952
  136SAPE   HN214696   5.636   0.415  10.816 -0.7903 -0.4237 -0.4941
  136SAPE   HN314697   5.487   0.375  10.896  0.0252 -0.4231  1.8527
  136SAPE   C1214698   5.651   0.290  10.981  0.5025 -0.3339  0.3541
  136SAPE  H12A14699   5.608   0.292  11.083 -2.1125  1.3117 -0.7038
  136SAPE  H12B14700   5.760   0.312  10.987  0.7220 -1.2480 -0.0488
  136SAPE   C1114701   5.620   0.153  10.911  0.4814 -0.3854  0.2676
  136SAPE  H11A14702   5.510   0.143  10.924  0.3689 -1.9431 -1.4719
  136SAPE  H11B14703   5.666   0.073  10.973 -0.2355 -2.0018 -1.1921
  136SAPE     P14704   5.717   0.018  10.714 -0.0019  0.1120 -0.5520
  136SAPE   O1314705   5.684   0.022  10.569 -0.0178  0.5471 -0.1843
  136SAPE   O1414706   5.859   0.015  10.753 -0.0981  0.5494  0.4471
  136SAPE   O1214707   5.657   0.154  10.771 -0.7371  0.1814 -0.0872
  136SAPE   O1114708   5.645  -0.096  10.794  0.3219 -0.0525 -0.4572
  136SAPE    C114709   5.506  -0.115  10.805 -0.9486 -0.2107 -0.0874
  136SAPE    HA14710   5.484  -0.141  10.911 -0.2520  1.5474  0.5299
  136SAPE    HB14711   5.454  -0.021  10.775 -0.4849 -0.1344 -0.6651
  136SAPE    C214712   5.454  -0.220  10.716  0.2877 -0.0077  0.5085
  136SAPE    HS14713   5.530  -0.301  10.728  0.5832  0.4798  2.2423
  136SAPE   O2114714   5.446  -0.161  10.586  0.2049  0.5251 -1.0094
  136SAPE   C2114715   5.502  -0.234  10.491 -0.2437 -0.2858 -0.5695
  136SAPE   O2214716   5.555  -0.343  10.509 -0.0941  0.5651 -0.3981
  136SAPE   C2214717   5.471  -0.172  10.348 -1.0047 -0.1832 -0.1069
  136SAPE   H2R14718   5.365  -0.139  10.344 -1.4992 -1.5821  0.6371
  136SAPE   H2S14719   5.529  -0.078  10.353 -2.1888  0.5882 -0.4545
  136SAPE    C314720   5.311  -0.268  10.759 -0.4048 -0.0067  0.0890
  136SAPE    HX14721   5.260  -0.170  10.748  1.8185  1.3527  1.1505
  136SAPE    HY14722   5.324  -0.308  10.861 -1.6202  0.8541  0.6037
  136SAPE   O3114723   5.268  -0.371  10.661  0.3368 -0.2379 -0.2489
  136SAPE   C3114724   5.192  -0.335  10.562 -0.0055  0.0839  0.3263
  136SAPE   O3214725   5.145  -0.223  10.548 -0.4850 -0.7742  0.0728
  136SAPE   C3214726   5.145  -0.456  10.478 -0.3096 -0.7080 -0.6634
  136SAPE   H2X14727   5.100  -0.536  10.542  0.3782 -0.5416  0.0404
  136SAPE   H2Y14728   5.235  -0.504  10.434  0.9654 -0.4513  1.4857
  136SAPE   C2314729   5.512  -0.264  10.227  0.0311 -0.5667 -0.2716
  136SAPE   H3R14730   5.605  -0.320  10.249  0.1132 -0.7014 -0.9413
  136SAPE   H3S14731   5.533  -0.200  10.139  1.2899 -1.3276 -0.5502
  136SAPE   C2414732   5.395  -0.354  10.179 -0.1335  0.1678  0.1506
  136SAPE   H4R14733   5.348  -0.413  10.261  1.5839 -0.6500  0.5951
  136SAPE   H4S14734   5.434  -0.424  10.102 -0.4325  0.8727 -0.6518
  136SAPE   C2514735   5.286  -0.275  10.111 -0.3164  0.2503 -0.0490
  136SAPE   H5R14736   5.195  -0.245  10.165 -0.1253  3.1879 -1.1386
  136SAPE   C2614737   5.295  -0.239   9.980 -0.2778  0.3609  0.5992
  136SAPE   H6R14738   5.220  -0.173   9.935 -1.5461 -0.1537  1.8745
  136SAPE   C2714739   5.407  -0.267   9.887 -0.0254 -0.4687 -0.1963
  136SAPE   H7R14740   5.501  -0.310   9.929  0.4183  1.7540  1.3035
  136SAPE   H7S14741   5.447  -0.167   9.859 -0.4938 -0.8135 -2.2211
  136SAPE   C2814742   5.367  -0.335   9.767 -0.3253 -0.0485 -0.0191
  136SAPE   H8R14743   5.416  -0.429   9.738 -1.4979 -1.1375  1.3627
  136SAPE   C2914744   5.279  -0.302   9.670 -0.2506  0.3857 -0.3243
  136SAPE   H9R14745   5.267  -0.369   9.583  0.4877  1.2451 -1.1044
  136SAPE  C21014746   5.208  -0.168   9.657  0.4647 -0.8501 -0.2427
  136SAPE  H10R14747   5.260  -0.106   9.580 -0.8937 -0.4001 -0.8269
  136SAPE  H10S14748   5.207  -0.109   9.751 -1.9369 -0.8582 -0.2029
  136SAPE  C21114749   5.063  -0.189   9.613  0.2146  0.9240  0.3748
  136SAPE  H11R14750   4.994  -0.222   9.693  0.6142 -1.2785 -0.1082
  136SAPE  C21214751   5.012  -0.171   9.484  0.0962 -0.6846 -0.1881
  136SAPE  H12R14752   4.908  -0.190   9.456 -0.3703 -1.0595  1.7124
  136SAPE  C21314753   5.090  -0.125   9.364 -0.0149  0.5243  0.1305
  136SAPE  H13R14754   5.176  -0.068   9.404 -1.6996  3.5764 -0.2768
  136SAPE  H13S14755   5.035  -0.043   9.312  0.2177  0.8922  0.4556
  136SAPE  C21414756   5.115  -0.239   9.267  0.0594 -0.1167  0.3856
  136SAPE  H14R14757   5.198  -0.309   9.281  0.5538  0.3882  0.0493
  136SAPE  C21514758   5.047  -0.255   9.151 -0.2309  0.0355 -0.6203
  136SAPE  H15R14759   5.086  -0.330   9.081  0.7056  0.7939 -0.9312
  136SAPE  C21614760   4.956  -0.155   9.086 -0.6295  0.1214 -0.8253
  136SAPE  H16R14761   4.902  -0.092   9.160  3.5596  1.4078  1.4548
  136SAPE  H16S14762   4.871  -0.211   9.041 -1.4566  1.0310 -0.4308
  136SAPE  C21714763   5.006  -0.065   8.975 -0.7051 -0.5104 -0.9307
  136SAPE  H17R14764   4.927   0.006   8.941 -0.8708  0.1853  0.8088
  136SAPE  H17S14765   5.055  -0.122   8.893 -0.8281 -3.0044  0.6253
  136SAPE  C21814766   5.115   0.034   9.026 -0.4428 -0.3734 -0.2145
  136SAPE  H18R14767   5.215  -0.013   9.027 -0.2901 -0.0720  1.3655
  136SAPE  H18S14768   5.076   0.060   9.127 -0.0741  0.0542 -0.1778
  136SAPE  C21914769   5.120   0.168   8.940  0.3515 -0.1303 -0.6666
  136SAPE  H19R14770   5.207   0.228   8.976  0.1099 -0.0702 -0.1619
  136SAPE  H19S14771   5.023   0.218   8.963 -0.0040 -1.4139  0.7713
  136SAPE  C22014772   5.133   0.133   8.790 -0.3266 -0.3231 -0.1676
  136SAPE  H20R14773   5.138   0.228   8.732  0.1669 -0.8928 -1.0701
  136SAPE  H20S14774   5.042   0.077   8.760 -1.1986  1.3528 -0.8172
  136SAPE  H20T14775   5.225   0.073   8.775 -0.4016 -1.1650  2.3027
  136SAPE   C3314776   5.046  -0.410  10.366 -0.2585  0.0820  0.5092
  136SAPE   H3X14777   5.087  -0.320  10.315  0.1709  0.1485  0.9685
  136SAPE   H3Y14778   4.948  -0.383  10.410 -0.1509 -2.2985  2.3804
  136SAPE   C3414779   5.036  -0.533  10.265 -0.3440 -0.1746  0.1578
  136SAPE   H4X14780   5.001  -0.620  10.324  2.4068 -2.0702 -0.8308
  136SAPE   H4Y14781   5.139  -0.555  10.231 -0.4047 -1.3260  0.6690
  136SAPE   C3514782   4.950  -0.493  10.146  0.3767 -0.4004  0.9002
  136SAPE   H5X14783   4.995  -0.410  10.088 -1.6536 -0.3082 -0.6363
  136SAPE   H5Y14784   4.846  -0.465  10.174  0.2936  0.1497  0.0586
  136SAPE   C3614785   4.937  -0.610  10.051  0.2807  0.2147  0.4453
  136SAPE   H6X14786   4.868  -0.691  10.081  1.6396 -2.0795 -2.0793
  136SAPE   H6Y14787   5.037  -0.656  10.031  0.0298  0.1277 -0.6699
  136SAPE   C3714788   4.885  -0.568   9.910  0.0343 -0.6007  0.1205
  136SAPE   H7X14789   4.957  -0.489   9.881 -1.1678 -0.2100 -1.9808
  136SAPE   H7Y14790   4.790  -0.512   9.918  1.0099  1.0226  0.9388
  136SAPE   C3814791   4.869  -0.676   9.807 -0.1915  0.2970  0.3916
  136SAPE   H8X14792   4.781  -0.741   9.824 -1.3412  1.6734 -0.0254
  136SAPE   H8Y14793   4.958  -0.742   9.810  0.5495  1.1187 -1.4947
  136SAPE   C3914794   4.866  -0.624   9.658 -0.0222  1.1702 -0.5806
  136SAPE   H9X14795   4.785  -0.549   9.648 -0.6425  0.6122  0.0904
  136SAPE   H9Y14796   4.841  -0.711   9.593  1.6970  2.4437 -3.1177
  136SAPE  C31014797   5.001  -0.563   9.617 -0.5897 -0.0042 -0.4016
  136SAPE  H10X14798   5.086  -0.626   9.653  0.2120  0.2962 -1.6892
  136SAPE  H10Y14799   5.032  -0.470   9.669  3.1108 -2.1690  1.7204
  136SAPE  C31114800   5.024  -0.551   9.465  0.4337 -0.1603  0.2956
  136SAPE  H11X14801   5.082  -0.457   9.453  0.5467  0.3716  3.7939
  136SAPE  H11Y14802   4.919  -0.544   9.428 -0.5382 -3.6166  1.9678
  136SAPE  C31214803   5.111  -0.660   9.404 -0.0649 -0.2606 -0.3180
  136SAPE  H12X14804   5.074  -0.764   9.416 -0.4436  0.0271  1.2319
  136SAPE  H12Y14805   5.207  -0.666   9.458 -0.4582 -0.1899  0.3958
  136SAPE  C31314806   5.141  -0.627   9.257 -0.1210  0.0888  0.1127
  136SAPE  H13X14807   5.185  -0.524   9.256  1.4444 -0.5406  0.9812
  136SAPE  H13Y14808   5.046  -0.626   9.199  0.1510 -2.2487 -0.4564
  136SAPE  C31414809   5.235  -0.716   9.184 -0.4139 -0.8851  0.5666
  136SAPE  H14X14810   5.203  -0.822   9.197 -0.9451 -0.5436  2.2790
  136SAPE  H14Y14811   5.340  -0.711   9.221 -0.6829 -1.4197  1.4255
  136SAPE  C31514812   5.243  -0.677   9.035 -0.1255 -0.1999  0.6032
  136SAPE  H15X14813   5.265  -0.568   9.040 -0.8549  0.0149 -0.4500
  136SAPE  H15Y14814   5.143  -0.680   8.986  1.1592 -0.1666 -2.1807
  136SAPE  C31614815   5.341  -0.764   8.958 -0.4076  0.5609  0.2418
  136SAPE  H16X14816   5.324  -0.874   8.964 -0.0396  0.4935  0.0335
  136SAPE  H16Y14817   5.445  -0.741   8.989  0.4297  2.5287 -3.4754
  136SAPE  C31714818   5.344  -0.735   8.807 -0.6739  0.4792  0.1792
  136SAPE  H17X14819   5.405  -0.641   8.802  2.8213 -1.6486 -1.0311
  136SAPE  H17Y14820   5.243  -0.719   8.765 -0.9043 -1.4221 -0.0624
  136SAPE  C31814821   5.433  -0.837   8.734 -0.7093 -0.3678 -0.1632
  136SAPE  H18X14822   5.451  -0.806   8.629  1.6340 -3.0210 -0.6611
  136SAPE  H18Y14823   5.376  -0.933   8.732  0.4258 -1.0779 -2.6456
  136SAPE  H18Z14824   5.533  -0.845   8.781 -0.2599  2.4753 -0.4847
  137SAPE     N14825   1.246   4.215  11.003 -0.1397 -0.9255 -0.1744
  137SAPE   HN114826   1.300   4.268  10.932 -0.1774 -0.1699  0.3383
  137SAPE   HN214827   1.188   4.147  10.950  0.5736 -0.4207 -1.6362
  137SAPE   HN314828   1.183   4.285  11.048  0.8655 -0.8334  1.1794
  137SAPE   C1214829   1.330   4.134  11.097 -0.1981  0.5044  0.7899
  137SAPE  H12A14830   1.261   4.064  11.149 -3.0104  2.1612 -0.4526
  137SAPE  H12B14831   1.363   4.205  11.175 -0.0757  1.4445 -0.0881
  137SAPE   C1114832   1.442   4.060  11.028 -0.4479 -0.7014  0.9649
  137SAPE  H11A14833   1.399   4.022  10.933  0.5416  2.1343 -0.7479
  137SAPE  H11B14834   1.469   3.975  11.095 -1.3809 -1.8212 -0.0404
  137SAPE     P14835   1.699   4.110  10.994  0.1892  0.3586 -0.6926
  137SAPE   O1314836   1.753   4.121  11.132  0.6885  0.5242 -0.1198
  137SAPE   O1414837   1.709   3.972  10.933 -0.3267  0.3577 -0.2646
  137SAPE   O1214838   1.541   4.154  10.990 -0.0225  0.3658 -0.1798
  137SAPE   O1114839   1.756   4.222  10.894  0.1539 -0.2602  0.2642
  137SAPE    C114840   1.684   4.270  10.775 -0.0003  0.6378  0.3057
  137SAPE    HA14841   1.601   4.202  10.744  0.4376 -0.6846  1.8832
  137SAPE    HB14842   1.648   4.372  10.797 -0.7083  0.2048  1.1997
  137SAPE    C214843   1.773   4.277  10.646 -0.7778  0.5344  1.0258
  137SAPE    HS14844   1.842   4.365  10.646 -0.2656  0.1378  0.9620
  137SAPE   O2114845   1.691   4.274  10.526  0.0044  0.5014 -0.4008
  137SAPE   C2114846   1.623   4.395  10.508  0.2545  0.2354 -0.4515
  137SAPE   O2214847   1.619   4.484  10.594  0.2627 -0.3109  0.3792
  137SAPE   C2214848   1.556   4.403  10.372 -0.5911  0.8847 -0.0193
  137SAPE   H2R14849   1.531   4.301  10.335  0.5744  0.5786 -0.0163
  137SAPE   H2S14850   1.462   4.460  10.383 -0.9847  0.6358 -1.7863
  137SAPE    C314851   1.862   4.154  10.647  0.5788 -0.3597 -0.0155
  137SAPE    HX14852   1.799   4.062  10.642  0.8857 -0.7336  2.0847
  137SAPE    HY14853   1.921   4.148  10.741  1.3890 -0.5720 -0.5255
  137SAPE   O3114854   1.948   4.163  10.530 -0.4959 -0.1207 -0.1724
  137SAPE   C3114855   1.932   4.080  10.432 -0.1357  0.5752  0.1989
  137SAPE   O3214856   1.857   3.983  10.430  0.2168  0.2543  0.3440
  137SAPE   C3214857   2.030   4.120  10.319  0.3471 -0.5622  0.3771
  137SAPE   H2X14858   2.103   4.036  10.328 -0.7983 -1.4320  1.9552
  137SAPE   H2Y14859   2.065   4.222  10.344  0.5499 -0.5596  0.0936
  137SAPE   C2314860   1.643   4.475  10.260 -0.0453 -0.3817  0.2866
  137SAPE   H3R14861   1.742   4.427  10.244  0.2335  0.5328 -0.8455
  137SAPE   H3S14862   1.681   4.568  10.306  1.1491 -0.1668 -1.0543
  137SAPE   C2414863   1.572   4.488  10.125 -0.7438 -0.4977  0.0193
  137SAPE   H4R14864   1.641   4.555  10.070 -0.0190 -1.4275 -0.2406
  137SAPE   H4S14865   1.469   4.528  10.136 -1.1710 -2.1144  2.5722
  137SAPE   C2514866   1.565   4.353  10.059  0.3668  0.6649  0.0001
  137SAPE   H5R14867   1.583   4.263  10.120  2.0586  0.6693 -0.4538
  137SAPE   C2614868   1.557   4.331   9.923  0.5948  0.3889 -0.3135
  137SAPE   H6R14869   1.578   4.226   9.897  0.1806 -0.8946  3.8944
  137SAPE   C2714870   1.548   4.447   9.818 -0.1982 -0.7350  0.2546
  137SAPE   H7R14871   1.481   4.526   9.856 -1.6459  0.0600 -3.4788
  137SAPE   H7S14872   1.510   4.414   9.719  2.4307 -1.9228 -0.4507
  137SAPE   C2814873   1.694   4.495   9.792  0.1246  0.3584  0.2749
  137SAPE   H8R14874   1.732   4.570   9.863  0.5230 -1.3392  1.9440
  137SAPE   C2914875   1.768   4.472   9.680  0.4257 -0.1839  0.7892
  137SAPE   H9R14876   1.872   4.506   9.690  0.0276  1.4662 -0.2897
  137SAPE  C21014877   1.728   4.386   9.560 -0.1746  0.4993  0.5256
  137SAPE  H10R14878   1.666   4.308   9.609  0.2382 -0.6908 -0.7873
  137SAPE  H10S14879   1.809   4.317   9.526 -0.1236 -0.1030  1.7792
  137SAPE  C21114880   1.646   4.457   9.453 -0.2562  0.0958 -0.5553
  137SAPE  H11R14881   1.682   4.560   9.440 -1.2419  0.6366  0.7638
  137SAPE  C21214882   1.536   4.410   9.392 -0.0444  1.1752 -0.1311
  137SAPE  H12R14883   1.490   4.471   9.312  2.4322  0.2932 -2.3883
  137SAPE  C21314884   1.487   4.263   9.400  0.4239  0.2048  0.1533
  137SAPE  H13R14885   1.386   4.252   9.444  0.6832  0.5272  0.8514
  137SAPE  H13S14886   1.544   4.196   9.467 -1.4076 -1.8812 -0.2764
  137SAPE  C21414887   1.490   4.204   9.266  0.8951  1.0629  0.5266
  137SAPE  H14R14888   1.391   4.168   9.234  1.3024 -0.0330  0.4736
  137SAPE  C21514889   1.597   4.176   9.186  0.0465 -0.2468 -0.0239
  137SAPE  H15R14890   1.575   4.108   9.102 -1.9005  0.0519  0.2049
  137SAPE  C21614891   1.747   4.215   9.211  0.4456  0.5306  0.3178
  137SAPE  H16R14892   1.795   4.156   9.293  1.3735  0.5630 -0.1858
  137SAPE  H16S14893   1.739   4.321   9.245 -0.8737  1.2659 -2.0895
  137SAPE  C21714894   1.824   4.232   9.079 -0.4308  0.6243  0.3004
  137SAPE  H17R14895   1.910   4.301   9.096 -0.7727  1.7115 -2.0080
  137SAPE  H17S14896   1.746   4.270   9.010  0.5616  2.9151  0.3332
  137SAPE  C21814897   1.878   4.103   9.020  0.2718 -0.6787  0.7905
  137SAPE  H18R14898   1.794   4.033   9.036 -1.4660  1.3339  0.9302
  137SAPE  H18S14899   1.978   4.078   9.062  0.7345  0.3632  0.3483
  137SAPE  C21914900   1.887   4.114   8.865 -0.6214 -0.1621  0.2213
  137SAPE  H19R14901   1.946   4.207   8.852  1.2259 -1.4680 -1.3397
  137SAPE  H19S14902   1.785   4.136   8.827 -0.3029 -0.3505 -0.7604
  137SAPE  C22014903   1.958   4.001   8.789 -0.4167  0.3783 -0.1705
  137SAPE  H20R14904   1.909   3.902   8.805 -1.3538  0.8344 -0.1558
  137SAPE  H20S14905   2.065   3.995   8.820 -1.0301  0.9600  2.3585
  137SAPE  H20T14906   1.959   4.011   8.679  0.0718 -4.0333 -0.7635
  137SAPE   C3314907   1.965   4.142  10.175 -0.2543 -0.2908  0.0625
  137SAPE   H3X14908   1.864   4.186  10.187  0.2395  0.7928  0.2988
  137SAPE   H3Y14909   1.952   4.044  10.124 -0.7990 -0.6390  0.8586
  137SAPE   C3414910   2.053   4.221  10.079 -0.0933  0.2817 -0.5678
  137SAPE   H4X14911   2.144   4.158  10.068 -1.5168 -2.2776  1.2519
  137SAPE   H4Y14912   2.084   4.316  10.126  0.2927 -0.0832 -0.0765
  137SAPE   C3514913   1.997   4.243   9.938  1.0806 -0.1770  0.2315
  137SAPE   H5X14914   1.969   4.349   9.925  1.3315 -0.3800 -2.6784
  137SAPE   H5Y14915   1.898   4.192   9.936  0.3032  1.2734  0.0562
  137SAPE   C3614916   2.099   4.200   9.838 -0.1883  0.5115 -0.1587
  137SAPE   H6X14917   2.119   4.091   9.837 -2.8260 -0.0494 -0.8398
  137SAPE   H6Y14918   2.197   4.252   9.846  0.7733 -1.1869 -0.4018
  137SAPE   C3714919   2.062   4.227   9.689  0.2727 -0.3048 -0.1195
  137SAPE   H7X14920   2.015   4.328   9.685 -0.2871 -0.4653  1.7478
  137SAPE   H7Y14921   1.986   4.157   9.647 -0.5018 -0.5027  1.5236
  137SAPE   C3814922   2.183   4.234   9.590 -0.0371  0.4374  0.0992
  137SAPE   H8X14923   2.216   4.129   9.600 -1.7882 -0.1003  0.7310
  137SAPE   H8Y14924   2.254   4.307   9.634  0.8234 -1.7877  2.7348
  137SAPE   C3914925   2.137   4.255   9.445 -0.1786 -0.2556 -0.1822
  137SAPE   H9X14926   2.079   4.350   9.451  1.2166  0.5397  2.0986
  137SAPE   H9Y14927   2.062   4.179   9.417  0.7178 -1.2717  0.1079
  137SAPE  C31014928   2.256   4.255   9.348 -0.2647 -0.1067  0.2180
  137SAPE  H10X14929   2.300   4.153   9.344  2.8133  1.1302 -0.9115
  137SAPE  H10Y14930   2.330   4.326   9.391  0.9741 -1.2156  0.0073
  137SAPE  C31114931   2.221   4.312   9.212 -0.4035  0.2585  0.1677
  137SAPE  H11X14932   2.223   4.423   9.222  1.9730  0.4316 -1.3568
  137SAPE  H11Y14933   2.113   4.293   9.196 -1.0082  1.0496  2.7342
  137SAPE  C31214934   2.318   4.275   9.099 -0.4923  0.5689 -0.0397
  137SAPE  H12X14935   2.278   4.180   9.057  0.6468 -0.4145  1.0156
  137SAPE  H12Y14936   2.416   4.247   9.143 -0.5734  1.0810  0.4886
  137SAPE  C31314937   2.341   4.381   8.990 -0.3701 -0.7092  0.0668
  137SAPE  H13X14938   2.403   4.461   9.036 -0.8980 -0.0190 -0.4022
  137SAPE  H13Y14939   2.242   4.425   8.965 -0.4768 -1.8365 -1.6237
  137SAPE  C31414940   2.398   4.324   8.862 -0.1703 -0.1804 -0.1473
  137SAPE  H14X14941   2.328   4.246   8.827  0.9855 -2.0410  1.4737
  137SAPE  H14Y14942   2.493   4.270   8.879 -1.1056 -1.7535  0.2216
  137SAPE  C31514943   2.419   4.446   8.762  0.4663  0.2815  0.1513
  137SAPE  H15X14944   2.497   4.517   8.798 -1.4444  3.5650 -1.7477
  137SAPE  H15Y14945   2.329   4.510   8.773 -0.7047 -1.3441  0.4744
  137SAPE  C31614946   2.447   4.394   8.618 -0.1122  0.0405 -0.3007
  137SAPE  H16X14947   2.375   4.317   8.582 -1.8529  1.5548 -0.2111
  137SAPE  H16Y14948   2.548   4.348   8.611  0.0850  0.6225 -1.6300
  137SAPE  C31714949   2.446   4.498   8.504 -0.2866  0.3831 -0.4745
  137SAPE  H17X14950   2.521   4.577   8.527  1.9727 -1.7712 -0.0259
  137SAPE  H17Y14951   2.356   4.559   8.528  0.3976  0.3454  2.7465
  137SAPE  C31814952   2.449   4.445   8.364 -0.1991  0.1339  0.5108
  137SAPE  H18X14953   2.352   4.397   8.339 -0.5906 -0.4390  2.8342
  137SAPE  H18Y14954   2.535   4.375   8.359 -0.1227  0.2584  0.0326
  137SAPE  H18Z14955   2.463   4.530   8.294 -4.0040  2.3246  2.0657
  138SAPE     N14956   4.965   6.810  11.035 -0.0603  0.1575 -1.0228
  138SAPE   HN114957   4.876   6.855  11.063  0.1339 -0.3446  0.5466
  138SAPE   HN214958   5.018   6.802  11.125 -0.6467  0.8217 -0.6153
  138SAPE   HN314959   5.029   6.874  10.984 -2.7343  2.0699 -2.1804
  138SAPE   C1214960   4.954   6.678  10.965 -0.4951  0.1667  0.8455
  138SAPE  H12A14961   4.949   6.699  10.856  1.5831 -0.6923  0.5417
  138SAPE  H12B14962   4.852   6.639  10.985 -0.2255 -1.1070 -0.0948
  138SAPE   C1114963   5.065   6.570  10.996 -0.4441  0.1570  0.1738
  138SAPE  H11A14964   5.150   6.638  11.017 -1.7147  2.5785 -2.0550
  138SAPE  H11B14965   5.095   6.519  10.902 -0.5272  0.9182 -0.2702
  138SAPE     P14966   4.907   6.403  11.129  0.0886  0.0100 -0.0343
  138SAPE   O1314967   4.937   6.304  11.234 -0.2236  0.0740 -0.0521
  138SAPE   O1414968   4.799   6.497  11.151 -0.1724 -0.6155 -0.1313
  138SAPE   O1214969   5.040   6.481  11.106  0.3969 -0.4445 -0.0088
  138SAPE   O1114970   4.896   6.340  10.987 -0.1756 -0.1791  0.2326
  138SAPE    C114971   4.954   6.209  10.967  0.0783 -0.0438  0.0786
  138SAPE    HA14972   5.062   6.216  10.994 -0.2178 -2.3162  2.2019
  138SAPE    HB14973   4.908   6.134  11.036 -0.7124  0.5129  0.1667
  138SAPE    C214974   4.947   6.158  10.813 -0.6658 -0.0855  0.3946
  138SAPE    HS14975   5.047   6.179  10.769 -1.6132  1.6834 -1.0596
  138SAPE   O2114976   4.859   6.235  10.734  0.1226  0.2569 -0.1988
  138SAPE   C2114977   4.738   6.249  10.775  0.0895 -0.0101 -0.1089
  138SAPE   O2214978   4.680   6.184  10.863  0.2140  0.3788  0.2666
  138SAPE   C2214979   4.677   6.361  10.701  0.1547 -0.8140 -0.4666
  138SAPE   H2R14980   4.605   6.416  10.764  1.1140 -0.5596  0.4282
  138SAPE   H2S14981   4.752   6.434  10.662  0.2962 -1.0069 -0.5554
  138SAPE    C314982   4.926   6.009  10.791 -0.5355 -0.3501  0.1807
  138SAPE    HX14983   4.841   5.990  10.860 -0.9359 -0.9414 -0.4582
  138SAPE    HY14984   5.014   5.956  10.832  2.5087  4.6296  0.9342
  138SAPE   O3114985   4.896   5.975  10.659 -0.3008  0.1017  0.0064
  138SAPE   C3114986   4.992   5.976  10.575 -0.0674 -0.4688 -0.2701
  138SAPE   O3214987   5.105   6.030  10.598  0.1835  0.3937  0.4147
  138SAPE   C3214988   4.947   5.921  10.447  0.0056 -0.2088 -0.3317
  138SAPE   H2X14989   4.902   6.006  10.391  0.1132  2.3840  3.1877
  138SAPE   H2Y14990   4.875   5.839  10.469  1.0527 -0.5400  2.2744
  138SAPE   C2314991   4.583   6.296  10.595  0.0188 -0.3673  0.5951
  138SAPE   H3R14992   4.500   6.364  10.568 -1.0129 -0.7540  2.5627
  138SAPE   H3S14993   4.524   6.220  10.650 -2.2828  0.3320 -0.8042
  138SAPE   C2414994   4.664   6.250  10.473  0.2836  0.2411 -0.5457
  138SAPE   H4R14995   4.756   6.194  10.499  0.9114  0.7968 -1.4844
  138SAPE   H4S14996   4.712   6.333  10.415  0.1695  0.7568  0.0843
  138SAPE   C2514997   4.579   6.156  10.391  0.1417 -0.1302  0.0786
  138SAPE   H5R14998   4.551   6.067  10.450  1.3939 -0.0885  0.7808
  138SAPE   C2614999   4.515   6.171  10.274 -0.3474  0.2697 -0.6463
  138SAPE   H6R15000   4.485   6.076  10.229  0.6160 -1.7094  2.5617
  138SAPE   C2715001   4.532   6.295  10.184 -0.2830  0.8328  0.1037
  138SAPE   H7R15002   4.577   6.254  10.091  0.7609  0.8544  0.5851
  138SAPE   H7S15003   4.593   6.371  10.237  0.0684 -0.5945  1.8590
  138SAPE   C2815004   4.397   6.362  10.151 -0.0062  0.1255  0.3232
  138SAPE   H8R15005   4.314   6.344  10.222  0.0708 -0.3399  0.2970
  138SAPE   C2915006   4.377   6.425  10.034  0.1425 -0.5170  0.8323
  138SAPE   H9R15007   4.285   6.486  10.027  1.3595  1.2311 -1.2317
  138SAPE  C21015008   4.471   6.453   9.918 -0.0867 -0.2243  0.0931
  138SAPE  H10R15009   4.407   6.474   9.830 -0.5644 -0.6332  0.3333
  138SAPE  H10S15010   4.531   6.361   9.900  2.3092  1.4901 -1.2108
  138SAPE  C21115011   4.564   6.571   9.941  0.0789  0.9718  0.2957
  138SAPE  H11R15012   4.565   6.602  10.046  0.5401 -4.1284  2.0716
  138SAPE  C21215013   4.633   6.634   9.844 -0.3786  0.0170 -0.3678
  138SAPE  H12R15014   4.694   6.722   9.869 -2.2411  1.2524  0.0041
  138SAPE  C21315015   4.629   6.597   9.696  0.0435  0.2386  0.3669
  138SAPE  H13R15016   4.535   6.541   9.679  0.1147 -0.0114  0.7732
  138SAPE  H13S15017   4.708   6.518   9.684  0.4255 -0.1387  4.1280
  138SAPE  C21415018   4.634   6.716   9.602  0.7750  0.1873 -0.8239
  138SAPE  H14R15019   4.641   6.817   9.645  0.1628  0.6223 -1.7294
  138SAPE  C21515020   4.641   6.714   9.467  0.1145 -0.5255 -0.3579
  138SAPE  H15R15021   4.646   6.812   9.417  1.1365 -1.7162 -2.7634
  138SAPE  C21615022   4.638   6.597   9.375 -0.0758  0.2249 -0.2237
  138SAPE  H16R15023   4.623   6.503   9.431 -1.7910 -0.2127 -1.3352
  138SAPE  H16S15024   4.730   6.596   9.312  1.1560 -0.4861  1.5147
  138SAPE  C21715025   4.522   6.616   9.285  0.2819 -0.0073 -0.9219
  138SAPE  H17R15026   4.526   6.713   9.231 -2.0364 -0.8093 -2.7270
  138SAPE  H17S15027   4.426   6.627   9.342  0.5892  0.6801 -0.5211
  138SAPE  C21815028   4.500   6.505   9.179  0.0121  0.1498  0.8781
  138SAPE  H18R15029   4.483   6.412   9.237  1.2535  0.5405  1.9281
  138SAPE  H18S15030   4.597   6.488   9.127 -0.8920 -0.5765 -0.6001
  138SAPE  C21915031   4.392   6.527   9.071  0.2442 -0.7054 -0.5976
  138SAPE  H19R15032   4.295   6.536   9.124  0.4687 -2.1640  0.1123
  138SAPE  H19S15033   4.392   6.448   8.993 -4.4202  0.9780 -2.6955
  138SAPE  C22015034   4.414   6.650   8.980 -0.1056  0.3404  0.1080
  138SAPE  H20R15035   4.386   6.732   9.049 -0.1214  0.5621 -0.1602
  138SAPE  H20S15036   4.353   6.642   8.887  1.9442  0.0042 -1.2841
  138SAPE  H20T15037   4.515   6.660   8.936 -0.9400 -0.2928 -2.0861
  138SAPE   C3315038   5.060   5.851  10.367 -0.8802  0.9125 -0.4464
  138SAPE   H3X15039   5.094   5.756  10.413  2.5068  0.7663 -2.8798
  138SAPE   H3Y15040   5.146   5.919  10.352  0.1246 -0.7328 -2.6479
  138SAPE   C3415041   5.013   5.822  10.223  0.7736 -0.1409  0.1460
  138SAPE   H4X15042   5.006   5.919  10.169 -0.4739  1.0221  2.2732
  138SAPE   H4Y15043   4.913   5.776  10.234 -0.2483  1.9451  0.0321
  138SAPE   C3515044   5.094   5.720  10.149 -0.6571  0.1484 -1.0435
  138SAPE   H5X15045   5.102   5.619  10.196 -0.3491  0.3447 -0.6658
  138SAPE   H5Y15046   5.196   5.761  10.165 -1.4958  1.4219  1.4927
  138SAPE   C3615047   5.045   5.709  10.003  0.3930 -0.4513 -0.1769
  138SAPE   H6X15048   4.937   5.691   9.984  0.6446 -0.1303 -2.0958
  138SAPE   H6Y15049   5.107   5.630   9.955  0.2805  0.4862 -1.9457
  138SAPE   C3715050   5.065   5.842   9.926 -0.4648 -1.4128 -0.1795
  138SAPE   H7X15051   5.162   5.890   9.953 -1.4950 -0.6269  2.4385
  138SAPE   H7Y15052   4.980   5.909   9.953 -0.4622 -2.1055  1.7172
  138SAPE   C3815053   5.074   5.812   9.777 -0.1405 -0.5382  0.5071
  138SAPE   H8X15054   5.128   5.716   9.763  0.3994 -0.0498 -0.9160
  138SAPE   H8Y15055   5.124   5.899   9.730  0.1771 -0.5358  0.8496
  138SAPE   C3915056   4.936   5.787   9.701 -0.2332 -0.2211  0.1915
  138SAPE   H9X15057   4.885   5.886   9.697  1.8816  0.8898 -1.7081
  138SAPE   H9Y15058   4.876   5.710   9.754  1.4449 -1.3548  0.5197
  138SAPE  C31015059   4.974   5.747   9.557 -0.3714 -0.0410  0.5358
  138SAPE  H10X15060   5.036   5.655   9.555 -0.5146 -0.1966 -2.4814
  138SAPE  H10Y15061   5.029   5.831   9.509  0.3450 -1.4983 -1.3057
  138SAPE  C31115062   4.858   5.716   9.470 -0.3789 -0.5754 -0.1956
  138SAPE  H11X15063   4.775   5.789   9.462 -0.5179 -0.8153 -1.0670
  138SAPE  H11Y15064   4.813   5.618   9.499  2.2574 -1.3139  1.8010
  138SAPE  C31215065   4.906   5.689   9.327 -0.0319  0.7742 -0.2330
  138SAPE  H12X15066   4.983   5.609   9.329 -0.4627  0.3696  1.8276
  138SAPE  H12Y15067   4.955   5.780   9.285  2.7735 -0.5003  0.0394
  138SAPE  C31315068   4.789   5.663   9.238  0.4707  0.5658  0.6223
  138SAPE  H13X15069   4.707   5.736   9.255 -0.0795  0.0092  0.4228
  138SAPE  H13Y15070   4.737   5.566   9.250 -0.5762  1.0397  0.0971
  138SAPE  C31415071   4.816   5.683   9.084 -0.2609  0.9378 -0.1582
  138SAPE  H14X15072   4.740   5.640   9.015  0.3391  1.5410 -1.2313
  138SAPE  H14Y15073   4.911   5.628   9.067 -0.4165  0.3762  0.7434
  138SAPE  C31515074   4.835   5.829   9.048  0.3710 -0.1221 -0.5582
  138SAPE  H15X15075   4.893   5.892   9.119  2.5479 -0.7959 -1.6540
  138SAPE  H15Y15076   4.732   5.873   9.047 -0.4722 -1.8316  1.8167
  138SAPE  C31615077   4.907   5.842   8.919  0.6556 -0.0998  0.3740
  138SAPE  H16X15078   4.886   5.748   8.864 -1.2582 -0.5108  1.7246
  138SAPE  H16Y15079   5.017   5.835   8.937  1.0884 -1.7980 -2.5039
  138SAPE  C31715080   4.847   5.955   8.826  0.1678 -0.1948 -0.1314
  138SAPE  H17X15081   4.737   5.968   8.833  0.4286  3.4152 -0.5887
  138SAPE  H17Y15082   4.862   5.924   8.721  1.5139 -1.8799  0.5098
  138SAPE  C31815083   4.914   6.088   8.853 -0.7264  0.3719 -0.2250
  138SAPE  H18X15084   4.897   6.121   8.958 -0.1397  0.7731 -0.2496
  138SAPE  H18Y15085   4.879   6.170   8.786 -0.1383  0.5054 -0.3810
  138SAPE  H18Z15086   5.023   6.071   8.837 -0.7615 -1.4343  1.1780
  139SAPE     N15087   5.508   3.079  10.446  0.7259  0.4205 -0.7782
  139SAPE   HN115088   5.599   3.035  10.425  0.6235 -0.5151  0.6420
  139SAPE   HN215089   5.445   3.000  10.470  0.7295  1.1818  2.0903
  139SAPE   HN315090   5.478   3.132  10.362 -0.8518 -1.1208 -1.2491
  139SAPE   C1215091   5.531   3.167  10.564 -0.6875 -0.3524  0.2086
  139SAPE  H12A15092   5.470   3.260  10.559 -0.6916 -0.4391 -1.9202
  139SAPE  H12B15093   5.638   3.195  10.557 -0.6222 -0.9693 -2.1334
  139SAPE   C1115094   5.490   3.096  10.699  0.4341 -0.0220 -0.1969
  139SAPE  H11A15095   5.502   3.171  10.781 -2.4428  1.9239 -1.4146
  139SAPE  H11B15096   5.562   3.011  10.706 -2.5457 -2.7478 -0.6019
  139SAPE     P15097   5.237   3.152  10.728 -0.1261 -0.7039 -0.2088
  139SAPE   O1315098   5.120   3.072  10.747 -0.0659 -0.3893  0.3377
  139SAPE   O1415099   5.278   3.245  10.831 -1.1708 -0.4688 -0.0415
  139SAPE   O1215100   5.358   3.052  10.702  0.7071  0.2092  0.1054
  139SAPE   O1115101   5.230   3.221  10.586 -0.1656  0.3830 -0.2866
  139SAPE    C115102   5.112   3.285  10.541  0.4635 -0.1611 -0.7476
  139SAPE    HA15103   5.032   3.214  10.510 -1.4022  1.6079 -0.2174
  139SAPE    HB15104   5.068   3.346  10.623 -0.4674 -0.1319 -1.2463
  139SAPE    C215105   5.144   3.365  10.411  0.3196 -0.3502 -0.7882
  139SAPE    HS15106   5.058   3.429  10.382  1.4562  1.0044 -1.3067
  139SAPE   O2115107   5.181   3.282  10.303  0.0640  0.8189  0.6014
  139SAPE   C2115108   5.102   3.274  10.204 -0.1567  0.7864  0.4652
  139SAPE   O2215109   4.989   3.317  10.200  0.3414  0.1072  0.4803
  139SAPE   C2215110   5.181   3.213  10.081 -0.4914  0.6926  0.6828
  139SAPE   H2R15111   5.288   3.240  10.095 -0.6078  1.0122  0.9675
  139SAPE   H2S15112   5.179   3.103  10.075  0.2505  0.7437 -1.1944
  139SAPE    C315113   5.267   3.464  10.434  0.2975 -0.2222  0.0678
  139SAPE    HX15114   5.370   3.427  10.418  0.9308  2.3023 -2.5114
  139SAPE    HY15115   5.265   3.490  10.542 -0.9673 -3.6021  0.9910
  139SAPE   O3115116   5.231   3.586  10.363 -0.2222  0.0667 -0.1080
  139SAPE   C3115117   5.278   3.596  10.242  0.0957 -0.4736 -0.6124
  139SAPE   O3215118   5.358   3.516  10.197 -0.2182 -0.3989  0.1117
  139SAPE   C3215119   5.225   3.721  10.171 -0.2224  0.8322  0.4468
  139SAPE   H2X15120   5.230   3.809  10.239 -1.0351  0.7257  0.6621
  139SAPE   H2Y15121   5.122   3.695  10.138  0.0178 -0.1249  0.4268
  139SAPE   C2315122   5.131   3.270   9.950  0.0318 -0.2713  0.4669
  139SAPE   H3R15123   5.149   3.378   9.931  2.2252 -1.0238 -2.4282
  139SAPE   H3S15124   5.021   3.259   9.942  0.2470 -2.0656 -0.6236
  139SAPE   C2415125   5.188   3.190   9.828 -0.5697  0.1882 -0.0909
  139SAPE   H4R15126   5.131   3.212   9.736 -1.4074  2.8501  0.9782
  139SAPE   H4S15127   5.169   3.083   9.854  1.1203 -0.1534 -0.1527
  139SAPE   C2515128   5.341   3.199   9.815  0.0259  0.1858  0.2351
  139SAPE   H5R15129   5.396   3.161   9.902 -1.1612 -1.0294  0.4862
  139SAPE   C2615130   5.402   3.217   9.700 -0.7341 -0.1641  0.1922
  139SAPE   H6R15131   5.511   3.208   9.705 -0.7547 -1.2783 -0.8517
  139SAPE   C2715132   5.345   3.244   9.559  0.4333  0.2496  0.0852
  139SAPE   H7R15133   5.425   3.291   9.498  0.1292  2.7155  1.4520
  139SAPE   H7S15134   5.261   3.313   9.582 -0.1166 -1.3645  3.7035
  139SAPE   C2815135   5.313   3.115   9.491  0.0130 -0.0539  0.7197
  139SAPE   H8R15136   5.206   3.091   9.481 -0.1719  0.5989  1.1248
  139SAPE   C2915137   5.395   3.045   9.406  0.5545 -0.2942 -0.5669
  139SAPE   H9R15138   5.363   2.949   9.362 -1.5147  0.2308 -0.3123
  139SAPE  C21015139   5.539   3.087   9.379 -0.2201 -0.2380 -0.1207
  139SAPE  H10R15140   5.593   3.082   9.476  0.3302  4.1540  0.0209
  139SAPE  H10S15141   5.543   3.197   9.364 -0.2316 -0.0138  1.3621
  139SAPE  C21115142   5.613   3.015   9.276  0.1579  0.5013  0.4020
  139SAPE  H11R15143   5.669   2.923   9.303  1.6042  1.0861 -0.4999
  139SAPE  C21215144   5.622   3.041   9.143 -0.0247 -0.3988  0.4576
  139SAPE  H12R15145   5.681   2.977   9.075 -2.5535 -0.6672 -1.6521
  139SAPE  C21315146   5.553   3.146   9.067 -0.7539  0.5019  0.3711
  139SAPE  H13R15147   5.613   3.176   8.978  1.1847 -1.3758  0.9817
  139SAPE  H13S15148   5.543   3.242   9.123  0.9593  1.2662 -0.5484
  139SAPE  C21415149   5.414   3.098   9.025  0.0954  0.2753  1.1163
  139SAPE  H14R15150   5.346   3.109   9.111 -1.3650 -0.2843  0.0708
  139SAPE  C21515151   5.361   3.059   8.909 -0.2601  0.1367  0.0558
  139SAPE  H15R15152   5.257   3.023   8.906 -0.0177 -0.5241 -1.4017
  139SAPE  C21615153   5.449   3.041   8.787  0.2800  0.2462 -0.8044
  139SAPE  H16R15154   5.554   3.014   8.814 -0.0073 -1.1970 -1.0317
  139SAPE  H16S15155   5.466   3.140   8.739  1.5762  2.3848  3.5469
  139SAPE  C21715156   5.386   2.942   8.688 -0.6494  0.3077 -0.1642
  139SAPE  H17R15157   5.433   2.939   8.587  0.7950  0.7139  0.4577
  139SAPE  H17S15158   5.280   2.967   8.667 -0.8488 -0.3522  0.0654
  139SAPE  C21815159   5.393   2.794   8.738  0.1563 -0.0809  0.3181
  139SAPE  H18R15160   5.346   2.783   8.838 -1.8164  0.6150 -0.4840
  139SAPE  H18S15161   5.500   2.766   8.747  0.6276  0.2659 -2.9675
  139SAPE  C21915162   5.323   2.694   8.647  0.4776  0.2208 -0.1633
  139SAPE  H19R15163   5.286   2.763   8.568 -1.3876  0.9345  1.2470
  139SAPE  H19S15164   5.233   2.654   8.699  0.3460  0.4425 -0.2167
  139SAPE  C22015165   5.413   2.589   8.583 -0.5413 -0.1158  0.4107
  139SAPE  H20R15166   5.514   2.629   8.558 -0.3348  0.1632  1.6469
  139SAPE  H20S15167   5.364   2.573   8.485  1.5389 -1.0765 -0.5476
  139SAPE  H20T15168   5.413   2.493   8.640 -1.6879 -1.0234 -1.0323
  139SAPE   C3315169   5.326   3.740  10.053 -0.1849  0.6151  0.5935
  139SAPE   H3X15170   5.316   3.659   9.978  1.5850  2.4528 -1.7795
  139SAPE   H3Y15171   5.433   3.733  10.081  0.1437 -2.3290 -0.9954
  139SAPE   C3415172   5.314   3.875   9.976 -0.2858 -0.4087  0.3245
  139SAPE   H4X15173   5.403   3.910   9.919 -1.2450 -0.1803 -1.0697
  139SAPE   H4Y15174   5.304   3.952  10.056 -0.2439 -1.2290  1.1410
  139SAPE   C3515175   5.186   3.886   9.886  0.0541  0.1018  0.0516
  139SAPE   H5X15176   5.142   3.988   9.882 -0.5324 -0.0007  2.5284
  139SAPE   H5Y15177   5.106   3.830   9.939 -1.3033  2.5393  0.7245
  139SAPE   C3615178   5.203   3.825   9.749  0.1717 -0.3706  0.3268
  139SAPE   H6X15179   5.231   3.717   9.750 -0.0176 -0.4277 -0.3667
  139SAPE   H6Y15180   5.296   3.866   9.705  0.1196  1.2050  1.6002
  139SAPE   C3715181   5.100   3.852   9.637 -0.7466 -0.0107 -0.0246
  139SAPE   H7X15182   5.087   3.962   9.629 -0.1865  0.2636  2.1454
  139SAPE   H7Y15183   5.009   3.799   9.671 -0.4330 -0.8156 -0.4300
  139SAPE   C3815184   5.150   3.809   9.501 -0.4977  0.7595  0.4902
  139SAPE   H8X15185   5.126   3.702   9.486  0.4973  0.4560  0.9696
  139SAPE   H8Y15186   5.258   3.828   9.487 -0.6636  1.4459  0.0881
  139SAPE   C3915187   5.071   3.884   9.389  0.0851  0.2688  0.3717
  139SAPE   H9X15188   5.074   3.995   9.386  1.1711  0.2592 -2.8573
  139SAPE   H9Y15189   4.964   3.860   9.406 -0.5556  3.0838  0.8673
  139SAPE  C31015190   5.114   3.844   9.247  0.9178  0.8928 -1.0064
  139SAPE  H10X15191   5.130   3.734   9.250 -1.6473  0.4461  2.7136
  139SAPE  H10Y15192   5.217   3.886   9.237  1.2088  0.9021  1.4333
  139SAPE  C31115193   5.036   3.883   9.118  0.3003 -0.2086 -0.0721
  139SAPE  H11X15194   5.023   3.994   9.116 -2.3349 -0.4431  0.6262
  139SAPE  H11Y15195   4.939   3.828   9.118  0.7478 -1.0056  0.1013
  139SAPE  C31215196   5.119   3.848   8.997  0.4915  0.4058  0.2239
  139SAPE  H12X15197   5.080   3.759   8.942  0.3544  0.9379 -0.5602
  139SAPE  H12Y15198   5.221   3.831   9.037 -0.2374 -2.2578  1.1867
  139SAPE  C31315199   5.128   3.962   8.898  0.3480  1.0000  0.7310
  139SAPE  H13X15200   5.163   4.044   8.965 -2.6166  1.7943  1.4368
  139SAPE  H13Y15201   5.025   3.979   8.862  0.0026 -2.7339 -0.4309
  139SAPE  C31415202   5.212   3.941   8.769  0.1766 -1.0966  0.8323
  139SAPE  H14X15203   5.316   3.907   8.789  0.5548 -0.2583  0.3599
  139SAPE  H14Y15204   5.224   4.041   8.723  4.1535 -1.2637  1.1085
  139SAPE  C31515205   5.148   3.840   8.672  0.1503  0.0652 -0.0356
  139SAPE  H15X15206   5.038   3.854   8.669 -0.3248 -2.4573  1.7901
  139SAPE  H15Y15207   5.163   3.736   8.708  0.6424  0.0704 -0.2268
  139SAPE  C31615208   5.185   3.841   8.521 -0.4893  0.4070  0.4534
  139SAPE  H16X15209   5.294   3.819   8.527  0.3961  4.4212  3.5570
  139SAPE  H16Y15210   5.131   3.760   8.467 -0.1142 -0.5084  1.4246
  139SAPE  C31715211   5.162   3.972   8.449  0.2915 -0.0901  0.1435
  139SAPE  H17X15212   5.231   4.044   8.498 -0.3025 -0.3289  1.3719
  139SAPE  H17Y15213   5.055   3.994   8.468  0.4372  0.1144  0.7655
  139SAPE  C31815214   5.208   3.958   8.302 -0.0637 -0.5052 -0.1041
  139SAPE  H18X15215   5.312   3.918   8.295 -0.6677 -2.4270  1.0305
  139SAPE  H18Y15216   5.215   4.055   8.249 -1.5919  0.7837  1.9312
  139SAPE  H18Z15217   5.144   3.885   8.248 -0.6545  0.4823 -0.7758
  140SAPE     N15218   6.794   2.549  10.762  0.1072 -0.1665  0.1556
  140SAPE   HN115219   6.736   2.463  10.770  2.3076 -1.7300 -0.1147
  140SAPE   HN215220   6.794   2.589  10.666  1.5136  0.7343  0.5005
  140SAPE   HN315221   6.890   2.513  10.779  0.1580  0.1399  0.5528
  140SAPE   C1215222   6.738   2.653  10.857  0.1763 -0.1132 -0.1502
  140SAPE  H12A15223   6.790   2.749  10.840  2.1072 -1.0964 -0.0142
  140SAPE  H12B15224   6.754   2.621  10.962 -3.1013 -0.3029  0.4078
  140SAPE   C1115225   6.586   2.675  10.835 -0.0875  0.7406 -0.1646
  140SAPE  H11A15226   6.548   2.575  10.867  2.3448 -0.2161 -0.0562
  140SAPE  H11B15227   6.552   2.690  10.731  1.5274 -0.3140 -0.8736
  140SAPE     P15228   6.567   2.930  10.885  0.2896 -0.3704 -0.3241
  140SAPE   O1315229   6.465   3.019  10.942 -0.3864 -0.2127  0.1929
  140SAPE   O1415230   6.706   2.953  10.942  0.6325 -0.4440  0.2015
  140SAPE   O1215231   6.525   2.779  10.921 -0.2610 -0.1514  0.6066
  140SAPE   O1115232   6.573   2.931  10.729  0.0342 -0.7030 -0.0077
  140SAPE    C115233   6.463   2.934  10.639  0.0981  0.1178  1.3091
  140SAPE    HA15234   6.394   2.849  10.655  2.0617 -2.1739 -1.5172
  140SAPE    HB15235   6.415   3.034  10.649  0.5536  0.3393  1.3146
  140SAPE    C215236   6.503   2.907  10.496  0.1971 -0.4071  0.0341
  140SAPE    HS15237   6.417   2.941  10.435 -1.5413 -1.1201  1.9591
  140SAPE   O2115238   6.526   2.768  10.471 -0.3676 -0.4889  0.4114
  140SAPE   C2115239   6.414   2.704  10.434 -0.2307 -0.2370  0.1851
  140SAPE   O2215240   6.302   2.746  10.430  0.5588 -0.1797  0.4016
  140SAPE   C2215241   6.459   2.564  10.390 -0.3662  0.1881 -0.3636
  140SAPE   H2R15242   6.554   2.574  10.334 -0.1756 -0.2137 -0.1101
  140SAPE   H2S15243   6.477   2.500  10.479  0.6074  0.3265 -0.4490
  140SAPE    C315244   6.625   2.978  10.438 -0.0454 -0.4016 -0.8650
  140SAPE    HX15245   6.691   2.994  10.525  0.3888  0.8717 -1.4044
  140SAPE    HY15246   6.606   3.084  10.410  2.1256 -0.3979 -2.5431
  140SAPE   O3115247   6.690   2.892  10.345  0.1656  0.0459 -0.0734
  140SAPE   C3115248   6.642   2.904  10.218  0.0693  0.5131  0.5227
  140SAPE   O3215249   6.542   2.967  10.193 -0.1737  0.0991 -0.0826
  140SAPE   C3215250   6.730   2.829  10.109 -0.0369  0.7557 -0.6004
  140SAPE   H2X15251   6.687   2.727  10.114 -2.7986  1.8731  0.9508
  140SAPE   H2Y15252   6.837   2.839  10.135  0.3275  0.2129 -1.8098
  140SAPE   C2315253   6.353   2.493  10.309 -0.6311  0.3093 -0.0659
  140SAPE   H3R15254   6.329   2.566  10.228  0.0984  0.6147 -0.0086
  140SAPE   H3S15255   6.261   2.486  10.372 -0.9655  1.4816 -0.4006
  140SAPE   C2415256   6.405   2.362  10.237  0.1040  0.2848  0.1785
  140SAPE   H4R15257   6.311   2.309  10.214 -1.6736  2.7119  1.4038
  140SAPE   H4S15258   6.475   2.308  10.305  0.5619  0.2873 -0.2828
  140SAPE   C2515259   6.486   2.391  10.113  0.4637 -0.3462  0.3970
  140SAPE   H5R15260   6.592   2.413  10.130  0.2735  0.6724  0.3017
  140SAPE   C2615261   6.451   2.381   9.987 -0.2259 -0.4922 -0.3468
  140SAPE   H6R15262   6.526   2.401   9.909 -1.7970  1.8928 -1.3639
  140SAPE   C2715263   6.325   2.345   9.922  0.4421 -0.0878  0.7924
  140SAPE   H7R15264   6.333   2.381   9.817  1.3930 -0.4915  0.7161
  140SAPE   H7S15265   6.234   2.399   9.955 -0.3011 -0.4352 -0.6006
  140SAPE   C2815266   6.298   2.198   9.939 -0.2096 -0.1825  0.3359
  140SAPE   H8R15267   6.260   2.170  10.039  0.8964 -1.7258  0.3586
  140SAPE   C2915268   6.302   2.105   9.843 -0.9182  0.2591 -0.4934
  140SAPE   H9R15269   6.285   2.000   9.871 -0.1534  0.3524  0.3766
  140SAPE  C21015270   6.339   2.129   9.704  0.3970 -0.6732  0.0072
  140SAPE  H10R15271   6.259   2.197   9.668 -0.1215 -1.4465 -0.3307
  140SAPE  H10S15272   6.320   2.038   9.642  0.2351  0.3608 -1.4991
  140SAPE  C21115273   6.479   2.166   9.670 -0.9821 -0.0597 -0.3433
  140SAPE  H11R15274   6.558   2.102   9.713 -0.4232  0.9165  0.1090
  140SAPE  C21215275   6.518   2.274   9.599  0.2610  0.0798 -0.1816
  140SAPE  H12R15276   6.625   2.281   9.576  0.3727  0.4980  0.4591
  140SAPE  C21315277   6.433   2.377   9.530  0.1355 -0.2699  0.1398
  140SAPE  H13R15278   6.356   2.412   9.602 -0.0253 -0.4920  0.0771
  140SAPE  H13S15279   6.389   2.332   9.438  2.2108 -0.7915 -0.6658
  140SAPE  C21415280   6.519   2.482   9.470 -0.7694 -0.1566 -0.1680
  140SAPE  H14R15281   6.608   2.440   9.420 -0.3922  0.3671  0.0551
  140SAPE  C21515282   6.500   2.620   9.468 -0.7421  0.5079 -0.4218
  140SAPE  H15R15283   6.572   2.685   9.414 -0.3383  2.2661  2.0590
  140SAPE  C21615284   6.383   2.688   9.536  0.1754  0.1582 -0.0198
  140SAPE  H16R15285   6.296   2.619   9.540 -0.0074  0.4001  0.2179
  140SAPE  H16S15286   6.345   2.769   9.470 -0.0288  1.3939  1.5701
  140SAPE  C21715287   6.407   2.749   9.670 -0.0298  0.2860  0.3639
  140SAPE  H17R15288   6.490   2.821   9.660  0.1528 -0.1844 -1.9979
  140SAPE  H17S15289   6.437   2.676   9.748 -2.2472  0.2179  1.2307
  140SAPE  C21815290   6.284   2.829   9.712  0.5814 -0.1780 -0.4577
  140SAPE  H18R15291   6.203   2.755   9.731  1.6025 -1.1307  0.3638
  140SAPE  H18S15292   6.260   2.899   9.630 -2.0897 -0.9059 -0.3871
  140SAPE  C21915293   6.301   2.922   9.838 -0.2624 -0.4264 -0.2107
  140SAPE  H19R15294   6.205   2.971   9.863  1.1573  0.9449  3.2107
  140SAPE  H19S15295   6.368   3.006   9.808  1.6508 -1.7648  0.1162
  140SAPE  C22015296   6.347   2.840   9.956  0.5602 -0.3815  0.2201
  140SAPE  H20R15297   6.283   2.749   9.960  1.6245 -1.1664 -0.1112
  140SAPE  H20S15298   6.349   2.890  10.055  0.6366 -1.7492  0.9312
  140SAPE  H20T15299   6.447   2.794   9.944 -0.4651 -2.7579  0.2144
  140SAPE   C3315300   6.703   2.877   9.967  0.3050 -0.3957 -0.2282
  140SAPE   H3X15301   6.601   2.921   9.958  0.4509  0.1543  0.6690
  140SAPE   H3Y15302   6.720   2.799   9.890  1.0125  1.8522 -2.5015
  140SAPE   C3415303   6.798   2.991   9.958 -0.3519  0.5485 -0.3274
  140SAPE   H4X15304   6.900   2.951   9.978 -1.6883 -1.8481  2.5881
  140SAPE   H4Y15305   6.777   3.071  10.032 -0.7063 -0.1033  0.2898
  140SAPE   C3515306   6.788   3.057   9.819 -0.5326  0.3801 -0.0758
  140SAPE   H5X15307   6.682   3.067   9.789 -0.6030 -3.3316 -1.6436
  140SAPE   H5Y15308   6.820   2.985   9.740  0.2488  0.2138  0.3794
  140SAPE   C3615309   6.877   3.186   9.794  0.8738  0.3324 -0.0610
  140SAPE   H6X15310   6.872   3.257   9.879  0.9165  1.7718 -1.2281
  140SAPE   H6Y15311   6.839   3.239   9.705 -0.7266  0.0173  0.4003
  140SAPE   C3715312   7.026   3.168   9.760 -0.0749  0.4734 -0.4848
  140SAPE   H7X15313   7.085   3.114   9.837 -0.3923 -2.5736 -2.2273
  140SAPE   H7Y15314   7.073   3.269   9.756  2.6009 -0.7178 -1.7905
  140SAPE   C3815315   7.056   3.100   9.620  0.5732 -0.2716 -0.5049
  140SAPE   H8X15316   6.990   3.011   9.618  0.6677 -0.3332 -0.8978
  140SAPE   H8Y15317   7.164   3.088   9.598  0.6798  0.5175 -0.4246
  140SAPE   C3915318   7.005   3.194   9.504 -0.2071 -0.3409  0.4513
  140SAPE   H9X15319   7.010   3.302   9.529 -0.1839  0.4689 -2.6220
  140SAPE   H9Y15320   6.904   3.155   9.478  1.3098 -2.7471 -2.5404
  140SAPE  C31015321   7.082   3.171   9.378 -0.2174 -0.0021 -0.3721
  140SAPE  H10X15322   7.192   3.182   9.391 -0.2738 -0.5715  0.6994
  140SAPE  H10Y15323   7.053   3.248   9.303 -2.0789  0.0338  0.3369
  140SAPE  C31115324   7.051   3.034   9.316  0.1545  0.8162  0.2580
  140SAPE  H11X15325   6.943   3.040   9.290 -0.7978  1.4802  3.7902
  140SAPE  H11Y15326   7.057   2.945   9.383 -2.8989  1.0206  0.9610
  140SAPE  C31215327   7.159   3.020   9.203  0.0805 -0.2561  0.2706
  140SAPE  H12X15328   7.257   3.013   9.255  0.5047  0.6663 -0.3819
  140SAPE  H12Y15329   7.161   3.112   9.141  1.3068 -0.5151 -0.1078
  140SAPE  C31315330   7.137   2.906   9.102  0.7339  0.4982 -0.0408
  140SAPE  H13X15331   7.040   2.907   9.047  0.7542  1.8503 -0.0891
  140SAPE  H13Y15332   7.140   2.811   9.160  0.5302  0.3248 -0.3117
  140SAPE  C31415333   7.256   2.916   9.007 -0.8345 -0.1233  0.0062
  140SAPE  H14X15334   7.345   2.877   9.059 -0.0807  0.4134 -0.8453
  140SAPE  H14Y15335   7.280   3.023   8.987 -1.5429  0.3336  1.4771
  140SAPE  C31515336   7.234   2.837   8.877 -0.3331  0.2138  0.0956
  140SAPE  H15X15337   7.206   2.730   8.886  0.4440 -0.3307 -2.7338
  140SAPE  H15Y15338   7.327   2.837   8.815 -0.8010 -0.3844 -0.6276
  140SAPE  C31615339   7.146   2.912   8.778  0.3273 -0.0476  1.0061
  140SAPE  H16X15340   7.124   3.017   8.808 -0.8257 -0.1715  0.6595
  140SAPE  H16Y15341   7.046   2.863   8.776  1.1451 -1.7669 -0.5491
  140SAPE  C31715342   7.207   2.934   8.634 -0.6164 -0.1993 -0.2812
  140SAPE  H17X15343   7.216   2.837   8.580 -2.0645  0.0863 -1.0907
  140SAPE  H17Y15344   7.306   2.983   8.637 -0.8809  0.4335 -1.5181
  140SAPE  C31815345   7.134   3.027   8.538  0.2022  0.2110  0.3908
  140SAPE  H18X15346   7.034   2.989   8.506 -0.1240  0.8668  0.6087
  140SAPE  H18Y15347   7.198   3.039   8.448 -0.7191  1.0834 -0.1772
  140SAPE  H18Z15348   7.114   3.130   8.576  1.7301 -0.0064  1.9216
  141SAPE     N15349   1.270   3.221  10.898 -0.1511 -0.2004 -0.1413
  141SAPE   HN115350   1.234   3.153  10.968 -1.7781  0.1706 -0.5731
  141SAPE   HN215351   1.298   3.179  10.807  1.2082  2.9093 -1.3209
  141SAPE   HN315352   1.355   3.269  10.935  0.2304 -0.0521 -1.1684
  141SAPE   C1215353   1.163   3.321  10.883 -0.5636  0.5073 -0.1619
  141SAPE  H12A15354   1.201   3.419  10.846 -1.7404  1.3669  0.8385
  141SAPE  H12B15355   1.116   3.340  10.981  1.1581 -1.6753  1.1690
  141SAPE   C1115356   1.057   3.270  10.785 -0.4682 -0.0116 -0.0647
  141SAPE  H11A15357   1.108   3.250  10.688 -1.0544 -1.3989 -0.1069
  141SAPE  H11B15358   0.987   3.350  10.753  1.0076  0.4681 -2.3471
  141SAPE     P15359   0.855   3.158  10.891 -0.1600  0.0729 -0.0936
  141SAPE   O1315360   0.803   3.019  10.915  0.1119 -0.3935  0.1482
  141SAPE   O1415361   0.877   3.236  11.018  0.3510  0.4066  0.5900
  141SAPE   O1215362   0.999   3.148  10.827 -0.1482 -0.1507  0.2343
  141SAPE   O1115363   0.766   3.239  10.783  0.4724  0.5185 -0.2235
  141SAPE    C115364   0.694   3.158  10.687 -0.1723  0.2012 -0.5244
  141SAPE    HA15365   0.673   3.053  10.714 -1.8914  0.3386 -1.1880
  141SAPE    HB15366   0.592   3.199  10.666  0.3810  1.4374 -0.9502
  141SAPE    C215367   0.784   3.163  10.558 -0.0768  0.0352  0.6450
  141SAPE    HS15368   0.881   3.116  10.587 -0.8126 -1.9387  0.0658
  141SAPE   O2115369   0.806   3.295  10.509 -0.6095 -0.1399 -0.2857
  141SAPE   C2115370   0.916   3.315  10.438  0.7672  0.1846 -0.5681
  141SAPE   O2215371   1.009   3.238  10.431 -1.1485 -0.3888 -0.8116
  141SAPE   C2215372   0.900   3.440  10.360  0.0216 -0.0921 -0.2875
  141SAPE   H2R15373   0.849   3.519  10.419  1.2105  0.3402  0.2092
  141SAPE   H2S15374   1.003   3.469  10.330  0.3854 -2.7050 -1.8610
  141SAPE    C315375   0.730   3.068  10.447  0.0692 -0.1417 -0.3643
  141SAPE    HX15376   0.624   3.098  10.428  0.2024  0.4136 -0.2404
  141SAPE    HY15377   0.732   2.965  10.489  1.5252  0.3437  0.8363
  141SAPE   O3115378   0.811   3.072  10.330 -1.0855 -0.2283  0.4842
  141SAPE   C3115379   0.828   2.964  10.259  0.3657 -0.1683 -0.5594
  141SAPE   O3215380   0.789   2.850  10.284 -0.3328  0.1693 -0.4169
  141SAPE   C3215381   0.910   3.004  10.140  0.2311  0.2086  0.1671
  141SAPE   H2X15382   1.017   2.975  10.153  0.5791  1.0148 -0.8614
  141SAPE   H2Y15383   0.892   3.111  10.119  1.6630  0.3934 -0.2592
  141SAPE   C2315384   0.839   3.421  10.219  0.6148  0.0038  0.6188
  141SAPE   H3R15385   0.735   3.383  10.222  0.3456  0.7718  1.2546
  141SAPE   H3S15386   0.889   3.342  10.159 -0.6763  0.2130 -0.7983
  141SAPE   C2415387   0.850   3.548  10.127 -0.3116 -0.1686 -0.2467
  141SAPE   H4R15388   0.820   3.639  10.184  1.7165  0.7190 -0.4800
  141SAPE   H4S15389   0.778   3.521  10.048 -1.4197 -0.9840  0.9976
  141SAPE   C2515390   0.983   3.581  10.068  0.1951 -0.4134  0.6472
  141SAPE   H5R15391   1.042   3.649  10.131  1.0224  1.5461 -2.0663
  141SAPE   C2615392   1.044   3.527   9.954  0.7263 -0.2017 -0.6656
  141SAPE   H6R15393   1.144   3.556   9.916  0.6828 -0.9966 -1.4128
  141SAPE   C2715394   0.979   3.423   9.868 -0.7016  0.3528  0.5791
  141SAPE   H7R15395   0.892   3.469   9.816 -0.7857 -0.0065  0.3990
  141SAPE   H7S15396   0.939   3.348   9.939  2.2217 -1.6084  0.3268
  141SAPE   C2815397   1.079   3.350   9.770 -0.2411  0.4293 -0.2985
  141SAPE   H8R15398   1.133   3.264   9.812 -0.1597  1.4602  1.8418
  141SAPE   C2915399   1.108   3.391   9.647 -0.0775 -0.1810  0.1850
  141SAPE   H9R15400   1.178   3.325   9.593 -1.0732 -0.9874 -0.1402
  141SAPE  C21015401   1.043   3.503   9.573 -0.0902 -0.1168  0.2612
  141SAPE  H10R15402   1.090   3.595   9.613  0.3276  0.5462 -1.6481
  141SAPE  H10S15403   0.939   3.502   9.613 -0.0468 -0.5937  0.3625
  141SAPE  C21115404   1.052   3.481   9.427  0.3641 -0.4885  0.3996
  141SAPE  H11R15405   1.107   3.392   9.392 -0.7960 -0.4336 -1.7466
  141SAPE  C21215406   0.983   3.545   9.328 -0.3287  0.2192 -0.6880
  141SAPE  H12R15407   1.006   3.517   9.224  3.8135 -1.1182  0.3494
  141SAPE  C21315408   0.896   3.665   9.339  0.1777  0.5597 -0.2114
  141SAPE  H13R15409   0.947   3.758   9.307 -2.3441  1.3071 -2.5677
  141SAPE  H13S15410   0.884   3.669   9.449  1.3013 -1.6016  0.0380
  141SAPE  C21415411   0.764   3.690   9.267 -0.1829 -1.0704  0.4950
  141SAPE  H14R15412   0.675   3.678   9.330  0.2054  2.6737  2.0225
  141SAPE  C21515413   0.757   3.723   9.134  0.0800 -0.0517 -0.2255
  141SAPE  H15R15414   0.657   3.728   9.088  0.9175 -2.3159 -2.4890
  141SAPE  C21615415   0.872   3.723   9.038  0.4111 -0.6787  0.0047
  141SAPE  H16R15416   0.970   3.704   9.086 -0.8597 -3.3814  1.7679
  141SAPE  H16S15417   0.869   3.824   8.991 -1.7137 -1.3376 -1.4560
  141SAPE  C21715418   0.844   3.614   8.938  0.6703  0.0119 -0.1908
  141SAPE  H17R15419   0.759   3.641   8.873  0.8834 -0.9530 -0.8905
  141SAPE  H17S15420   0.802   3.517   8.973 -1.2205  0.5856 -0.7540
  141SAPE  C21815421   0.959   3.598   8.831  0.7125  0.0090  0.5322
  141SAPE  H18R15422   0.929   3.514   8.766 -1.7751  0.4300  1.0323
  141SAPE  H18S15423   1.049   3.579   8.893  0.7858  1.4408  0.8981
  141SAPE  C21915424   0.974   3.726   8.746  0.6397  0.1381  0.5100
  141SAPE  H19R15425   1.003   3.811   8.811  1.7620 -0.2239  0.5030
  141SAPE  H19S15426   0.875   3.743   8.699  0.4177 -1.9181  0.1305
  141SAPE  C22015427   1.083   3.705   8.633  0.4263 -0.2389 -0.2011
  141SAPE  H20R15428   1.179   3.697   8.688 -0.0644  0.7269  0.8366
  141SAPE  H20S15429   1.082   3.792   8.564  1.5858 -1.3594 -1.6946
  141SAPE  H20T15430   1.068   3.621   8.562 -0.1154 -0.0838 -0.2722
  141SAPE   C3315431   0.873   2.931  10.006 -1.1938 -0.1933 -0.5822
  141SAPE   H3X15432   0.764   2.944   9.988 -1.0178 -0.1417 -1.6821
  141SAPE   H3Y15433   0.894   2.823  10.018  1.9483  0.2758 -0.8313
  141SAPE   C3415434   0.973   2.957   9.892 -0.4167 -0.4869 -0.0390
  141SAPE   H4X15435   1.075   2.918   9.917 -0.9394 -3.6510 -2.2937
  141SAPE   H4Y15436   0.975   3.068   9.883  0.1822 -0.3210  1.7567
  141SAPE   C3515437   0.943   2.894   9.753 -0.1130 -0.0789 -0.1670
  141SAPE   H5X15438   0.849   2.943   9.720 -0.2582 -0.8718 -0.9798
  141SAPE   H5Y15439   0.932   2.784   9.746 -1.5154  0.0517 -0.2276
  141SAPE   C3615440   1.037   2.938   9.638 -0.9501  0.7807  0.3314
  141SAPE   H6X15441   1.134   2.908   9.682 -0.4061  2.4422  0.3559
  141SAPE   H6Y15442   1.049   3.049   9.630 -2.2338  0.8036 -2.6144
  141SAPE   C3715443   1.029   2.855   9.506  0.4092  0.4104  0.1182
  141SAPE   H7X15444   0.922   2.835   9.482 -0.0868 -1.3436  3.3017
  141SAPE   H7Y15445   1.068   2.751   9.516  1.1588  0.5842 -0.8642
  141SAPE   C3815446   1.100   2.917   9.391 -0.8784 -0.4504  0.5708
  141SAPE   H8X15447   1.207   2.915   9.420 -0.1997  1.1139 -1.5608
  141SAPE   H8Y15448   1.077   3.024   9.373  2.0141  0.1485  0.0412
  141SAPE   C3915449   1.061   2.830   9.270 -0.2996 -0.1252  0.4725
  141SAPE   H9X15450   0.952   2.813   9.279 -0.3366 -0.9159 -1.1004
  141SAPE   H9Y15451   1.115   2.734   9.282  0.4190  0.2557  0.3946
  141SAPE  C31015452   1.092   2.909   9.149 -0.2431  0.2159  0.5214
  141SAPE  H10X15453   1.196   2.947   9.157 -1.4622  3.7859  1.2686
  141SAPE  H10Y15454   1.044   3.009   9.145 -2.5580 -0.8534 -0.5399
  141SAPE  C31115455   1.069   2.828   9.017 -0.5553 -0.3513 -0.5191
  141SAPE  H11X15456   0.959   2.813   9.012 -0.5390 -0.1128 -2.1363
  141SAPE  H11Y15457   1.115   2.727   9.013  0.9207  0.3185 -1.7284
  141SAPE  C31215458   1.112   2.899   8.883  0.1620 -0.0584  0.2033
  141SAPE  H12X15459   1.219   2.926   8.896 -0.1277  0.8660  0.7181
  141SAPE  H12Y15460   1.049   2.989   8.869 -2.1922 -1.2120  2.4997
  141SAPE  C31315461   1.106   2.800   8.763 -0.1511 -0.0505  1.0738
  141SAPE  H13X15462   1.003   2.761   8.743  0.8193 -2.1297 -0.2958
  141SAPE  H13Y15463   1.173   2.712   8.771 -1.1139 -1.0353 -0.8314
  141SAPE  C31415464   1.144   2.868   8.632  0.3298 -0.3812 -0.3100
  141SAPE  H14X15465   1.248   2.906   8.641  0.0497  1.3034 -3.1214
  141SAPE  H14Y15466   1.086   2.963   8.625  0.0468 -0.5956 -0.9395
  141SAPE  C31515467   1.132   2.788   8.502 -0.3958  0.8755  0.3686
  141SAPE  H15X15468   1.029   2.758   8.474 -1.1032  1.5971  2.0832
  141SAPE  H15Y15469   1.187   2.692   8.506 -1.4034  0.2947  0.5039
  141SAPE  C31615470   1.191   2.879   8.392  0.3442 -0.4792 -0.2922
  141SAPE  H16X15471   1.298   2.855   8.410  0.0028 -0.3985  2.2483
  141SAPE  H16Y15472   1.173   2.988   8.395 -2.7795 -0.8698 -1.4816
  141SAPE  C31715473   1.174   2.826   8.251  0.4328  0.5745 -0.2008
  141SAPE  H17X15474   1.224   2.726   8.247 -1.2276 -0.4033  1.5970
  141SAPE  H17Y15475   1.223   2.893   8.178 -0.3792  1.1772 -0.2038
  141SAPE  C31815476   1.023   2.817   8.225  0.2649 -0.1977 -0.0251
  141SAPE  H18X15477   1.003   2.812   8.116  0.6022  2.7797 -0.2957
  141SAPE  H18Y15478   0.978   2.913   8.256 -0.8973 -0.1884 -1.6216
  141SAPE  H18Z15479   0.966   2.732   8.269  1.6747 -0.6662  0.9630
  142SAPE     N15480   6.314   0.730  11.154  0.5788 -0.0420 -0.5855
  142SAPE   HN115481   6.317   0.712  11.051 -0.1342  0.6878 -0.7470
  142SAPE   HN215482   6.369   0.816  11.172  0.9217 -0.4817  0.5131
  142SAPE   HN315483   6.358   0.650  11.204  0.4117 -0.7245 -1.4981
  142SAPE   C1215484   6.169   0.727  11.195  0.0951  0.1591  0.5507
  142SAPE  H12A15485   6.156   0.764  11.299  2.3766  1.1738  0.5387
  142SAPE  H12B15486   6.132   0.622  11.201 -1.8107  0.8141  0.8190
  142SAPE   C1115487   6.068   0.812  11.105 -0.3125  0.3536 -0.0177
  142SAPE  H11A15488   5.968   0.814  11.154 -0.3394  0.2183 -0.0647
  142SAPE  H11B15489   6.063   0.761  11.006 -0.0763 -0.6051  0.4513
  142SAPE     P15490   6.019   1.030  10.974 -0.0454 -0.0828  0.0184
  142SAPE   O1315491   5.911   0.945  10.929  0.3930  0.1376  0.1866
  142SAPE   O1415492   5.984   1.160  11.040  0.5576 -0.2768  0.2877
  142SAPE   O1215493   6.102   0.948  11.091 -0.1028  0.2771  0.4520
  142SAPE   O1115494   6.130   1.046  10.859 -0.2008 -0.5407  0.1404
  142SAPE    C115495   6.210   0.937  10.807 -0.4905 -0.3240 -0.5028
  142SAPE    HA15496   6.318   0.964  10.805 -0.8739  1.6929  1.5744
  142SAPE    HB15497   6.205   0.845  10.869  1.7938 -0.6702 -0.7264
  142SAPE    C215498   6.177   0.913  10.658 -0.1929 -0.2894 -0.4409
  142SAPE    HS15499   6.248   0.832  10.634  1.4365  0.4777  1.5289
  142SAPE   O2115500   6.186   1.042  10.588  0.2886 -0.2794 -0.5691
  142SAPE   C2115501   6.294   1.055  10.517 -0.1932  0.4443  0.0071
  142SAPE   O2215502   6.394   0.979  10.507  0.3174  0.2856  0.3204
  142SAPE   C2215503   6.273   1.181  10.431 -0.4674  0.2999 -0.3509
  142SAPE   H2R15504   6.165   1.178  10.402 -0.7008 -2.2818  0.5436
  142SAPE   H2S15505   6.285   1.271  10.496  3.4798 -0.0035 -0.4518
  142SAPE    C315506   6.037   0.848  10.639 -0.3483 -0.3236 -0.8109
  142SAPE    HX15507   5.955   0.921  10.654 -0.3312 -0.6242  0.8703
  142SAPE    HY15508   6.038   0.767  10.715 -1.8987 -1.1401 -1.5928
  142SAPE   O3115509   6.022   0.786  10.511  0.8574  0.2755  0.3941
  142SAPE   C3115510   5.924   0.701  10.510 -0.6664  0.8891  0.0751
  142SAPE   O3215511   5.833   0.700  10.587 -0.5569  0.0323 -0.1226
  142SAPE   C3215512   5.962   0.588  10.401 -0.1829 -0.0728  0.3063
  142SAPE   H2X15513   5.996   0.510  10.472 -0.9016  0.1424  0.9025
  142SAPE   H2Y15514   6.046   0.614  10.333 -0.2240 -0.3771  0.1350
  142SAPE   C2315515   6.369   1.183  10.311  0.1657 -0.1741  0.2702
  142SAPE   H3R15516   6.338   1.110  10.233 -0.2875 -0.6552  0.8943
  142SAPE   H3S15517   6.475   1.152  10.324  0.0873 -1.2522 -1.3290
  142SAPE   C2415518   6.380   1.329  10.248 -0.1148  0.5549  0.2241
  142SAPE   H4R15519   6.410   1.401  10.328  0.1751 -1.0544  1.6215
  142SAPE   H4S15520   6.278   1.361  10.220  0.2338  0.5515 -1.1203
  142SAPE   C2515521   6.482   1.338  10.136 -0.0875 -0.4394 -0.2323
  142SAPE   H5R15522   6.575   1.285  10.162  0.6517  1.2839  0.8218
  142SAPE   C2615523   6.475   1.410  10.020  0.1653  0.1536  0.2522
  142SAPE   H6R15524   6.559   1.422   9.950  0.6060  1.3130  0.9427
  142SAPE   C2715525   6.363   1.502   9.985 -0.6175 -0.0880 -0.0462
  142SAPE   H7R15526   6.401   1.606   9.970 -0.2222 -0.0193  1.2940
  142SAPE   H7S15527   6.300   1.504  10.077  0.3500  2.7387  0.6657
  142SAPE   C2815528   6.285   1.463   9.862 -0.5634  0.6341 -0.0770
  142SAPE   H8R15529   6.207   1.390   9.888  0.8180 -0.7029  0.4960
  142SAPE   C2915530   6.315   1.495   9.733  0.0244 -0.2317 -0.0039
  142SAPE   H9R15531   6.248   1.456   9.655 -0.8258  1.3333 -0.1100
  142SAPE  C21015532   6.414   1.595   9.679  0.1860  0.5909  0.3498
  142SAPE  H10R15533   6.423   1.679   9.752 -0.1623  1.1909 -0.2791
  142SAPE  H10S15534   6.374   1.642   9.586  0.3845 -1.7688 -0.9984
  142SAPE  C21115535   6.543   1.544   9.630 -0.1036 -0.0732 -0.0269
  142SAPE  H11R15536   6.598   1.490   9.708 -0.2222  0.3265  0.3391
  142SAPE  C21215537   6.602   1.558   9.512 -0.0331 -0.1571  0.5521
  142SAPE  H12R15538   6.704   1.516   9.512  0.5394  1.1772 -0.1905
  142SAPE  C21315539   6.552   1.631   9.385 -0.0370  0.1044 -0.1518
  142SAPE  H13R15540   6.638   1.662   9.321 -1.0010  1.2493 -0.9285
  142SAPE  H13S15541   6.508   1.726   9.420 -2.0372 -0.0873 -1.9258
  142SAPE  C21415542   6.462   1.556   9.288 -0.2089 -0.6889 -0.0497
  142SAPE  H14R15543   6.458   1.447   9.302  1.9113 -1.0175 -1.4376
  142SAPE  C21515544   6.398   1.609   9.185 -0.3109  0.3066 -0.2688
  142SAPE  H15R15545   6.339   1.544   9.117  0.4178 -0.5643 -0.0886
  142SAPE  C21615546   6.412   1.751   9.142 -0.3968  0.0573  0.0720
  142SAPE  H16R15547   6.497   1.803   9.190 -1.9335  1.1456  1.7527
  142SAPE  H16S15548   6.322   1.800   9.185  1.1583  0.7235  2.7845
  142SAPE  C21715549   6.396   1.784   8.992 -0.2223  0.1544  0.2690
  142SAPE  H17R15550   6.397   1.895   8.980 -0.4094  0.1065 -0.2066
  142SAPE  H17S15551   6.300   1.746   8.953  0.6211 -1.8744  0.0632
  142SAPE  C21815552   6.508   1.739   8.896 -0.0223  0.6769  0.4740
  142SAPE  H18R15553   6.509   1.628   8.883  2.4468  0.8036 -0.9188
  142SAPE  H18S15554   6.599   1.761   8.956  0.5819  0.4356 -0.3467
  142SAPE  C21915555   6.519   1.810   8.762 -0.4265 -0.1015  0.3332
  142SAPE  H19R15556   6.519   1.921   8.769 -1.8503 -0.0882  0.4018
  142SAPE  H19S15557   6.433   1.762   8.709  0.8216 -2.7408  0.5134
  142SAPE  C22015558   6.652   1.768   8.689  0.7207  0.6567  0.1660
  142SAPE  H20R15559   6.659   1.816   8.589  0.5673  1.2460  0.4398
  142SAPE  H20S15560   6.660   1.657   8.684 -0.1126  0.6396 -1.0234
  142SAPE  H20T15561   6.744   1.794   8.746  1.2396  1.0233 -0.8203
  142SAPE   C3315562   5.837   0.535  10.325 -0.2696 -0.3861  0.1023
  142SAPE   H3X15563   5.751   0.541  10.395  0.1786  0.5739  0.5877
  142SAPE   H3Y15564   5.847   0.428  10.297 -1.4910 -0.4750 -0.0829
  142SAPE   C3415565   5.801   0.613  10.200  0.4985  0.8761 -0.4381
  142SAPE   H4X15566   5.895   0.620  10.141 -0.3269 -1.7357 -2.2272
  142SAPE   H4Y15567   5.751   0.708  10.229 -1.3612  0.3080 -1.6196
  142SAPE   C3515568   5.706   0.531  10.110  0.0145 -0.7955 -0.2068
  142SAPE   H5X15569   5.612   0.532  10.171  0.2412 -0.1342  0.1458
  142SAPE   H5Y15570   5.749   0.429  10.107 -0.9642 -1.1897 -1.8921
  142SAPE   C3615571   5.670   0.603   9.979 -0.3079 -0.0922 -0.5454
  142SAPE   H6X15572   5.626   0.703   9.994  1.0300  0.3584  0.6022
  142SAPE   H6Y15573   5.599   0.536   9.927 -0.5365 -0.6105  0.4105
  142SAPE   C3715574   5.775   0.621   9.874 -0.1824  1.1991  0.4864
  142SAPE   H7X15575   5.799   0.520   9.835 -0.4560  1.3947 -0.2079
  142SAPE   H7Y15576   5.865   0.673   9.912 -0.6327  2.2040  0.2265
  142SAPE   C3815577   5.724   0.697   9.751  0.5128  0.1892  0.0862
  142SAPE   H8X15578   5.713   0.804   9.778 -0.1985  0.3924 -0.9206
  142SAPE   H8Y15579   5.620   0.667   9.724 -0.3116  2.3427  0.6668
  142SAPE   C3915580   5.818   0.671   9.629 -0.0419 -0.1959 -0.2158
  142SAPE   H9X15581   5.805   0.565   9.598 -2.3497 -0.2935  0.9077
  142SAPE   H9Y15582   5.921   0.673   9.672  1.3191 -1.9721 -3.0881
  142SAPE  C31015583   5.781   0.756   9.512  0.0106  0.0539 -0.0384
  142SAPE  H10X15584   5.774   0.866   9.531 -0.6446  0.2174 -1.1562
  142SAPE  H10Y15585   5.685   0.717   9.471 -0.7186  0.4806  1.1959
  142SAPE  C31115586   5.892   0.751   9.403  0.7394  0.5503 -0.3713
  142SAPE  H11X15587   5.925   0.646   9.388 -0.1661  0.1273  0.4984
  142SAPE  H11Y15588   5.980   0.801   9.448  2.4188 -0.9614 -1.7998
  142SAPE  C31215589   5.852   0.821   9.269 -1.0673 -0.1040  0.4149
  142SAPE  H12X15590   5.790   0.909   9.295  0.4700  1.2512 -0.3208
  142SAPE  H12Y15591   5.789   0.759   9.202  1.9325 -0.8026 -2.0318
  142SAPE  C31315592   5.975   0.861   9.180  0.2394  0.0401 -0.4983
  142SAPE  H13X15593   6.017   0.764   9.147  0.3603 -0.0742 -0.0182
  142SAPE  H13Y15594   6.048   0.913   9.247  1.0187 -0.6756 -0.7858
  142SAPE  C31415595   5.931   0.933   9.052 -0.1937  0.0968 -0.3508
  142SAPE  H14X15596   5.873   1.020   9.091 -2.7682 -2.3932  1.7785
  142SAPE  H14Y15597   5.865   0.874   8.985  1.5004 -0.5955 -1.4696
  142SAPE  C31515598   6.053   0.985   8.976  0.3744 -0.1982  0.9480
  142SAPE  H15X15599   6.130   0.906   8.980 -0.1598 -0.7215  1.0822
  142SAPE  H15Y15600   6.089   1.080   9.021 -0.8044 -0.0376  1.6239
  142SAPE  C31615601   6.021   1.022   8.829  0.6014 -0.2133 -0.1661
  142SAPE  H16X15602   5.929   1.084   8.832  0.7583  0.1681 -2.0342
  142SAPE  H16Y15603   6.003   0.933   8.764  0.1056  0.2822 -0.7238
  142SAPE  C31715604   6.122   1.105   8.751  0.6748 -0.5851  0.1950
  142SAPE  H17X15605   6.152   1.185   8.822 -0.1603 -0.2232  0.1628
  142SAPE  H17Y15606   6.070   1.163   8.671 -1.9146 -0.4926  1.8238
  142SAPE  C31815607   6.239   1.031   8.703 -0.3130  0.1397 -0.3457
  142SAPE  H18X15608   6.318   1.098   8.663  0.4213 -0.5982 -0.1682
  142SAPE  H18Y15609   6.210   0.944   8.640 -1.8395 -0.0828  0.6279
  142SAPE  H18Z15610   6.288   0.968   8.781  0.4716 -0.2138 -1.1070
  143SAPE     N15611   3.408   5.806  11.016 -0.0104 -0.0745 -0.0673
  143SAPE   HN115612   3.347   5.781  11.096  1.5171 -0.8433  0.9063
  143SAPE   HN215613   3.435   5.716  10.970 -2.3148  0.2376 -2.2817
  143SAPE   HN315614   3.492   5.857  11.051  0.8892 -0.1144 -2.0350
  143SAPE   C1215615   3.336   5.900  10.924  0.0801  0.4577 -0.0809
  143SAPE  H12A15616   3.404   5.926  10.840  1.2242  0.3529  0.7911
  143SAPE  H12B15617   3.313   5.995  10.977  0.9556  0.5091  0.2242
  143SAPE   C1115618   3.203   5.847  10.882 -0.9230  0.1149  0.0188
  143SAPE  H11A15619   3.228   5.777  10.798 -0.7354  0.7229 -0.4394
  143SAPE  H11B15620   3.151   5.941  10.854  0.7515  0.7813 -1.0360
  143SAPE     P15621   3.043   5.662  10.966  0.0776 -0.4314 -0.1558
  143SAPE   O1315622   3.118   5.531  10.977  0.3652  0.1737 -0.2925
  143SAPE   O1415623   2.931   5.684  11.067  0.2269 -0.2880  0.1462
  143SAPE   O1215624   3.134   5.790  10.992  0.6515  0.3236  0.3335
  143SAPE   O1115625   2.991   5.694  10.823 -0.0556 -0.4543 -0.2579
  143SAPE    C115626   2.885   5.800  10.804 -0.5939 -0.2059  0.6072
  143SAPE    HA15627   2.796   5.757  10.854 -1.5719  1.8362  0.7237
  143SAPE    HB15628   2.906   5.893  10.861  1.3918 -0.7957  0.9309
  143SAPE    C215629   2.861   5.834  10.653  0.2992 -0.2199  0.0458
  143SAPE    HS15630   2.775   5.904  10.645 -0.5818 -1.1196  1.2764
  143SAPE   O2115631   2.826   5.720  10.578  0.2169 -0.1600  0.1358
  143SAPE   C2115632   2.695   5.686  10.580 -0.5071  0.1029  0.3717
  143SAPE   O2215633   2.610   5.752  10.635  0.1377  0.4733  0.3540
  143SAPE   C2215634   2.679   5.568  10.482 -0.0943 -0.0170 -0.4175
  143SAPE   H2R15635   2.775   5.559  10.427  0.9813  0.6259  1.2823
  143SAPE   H2S15636   2.670   5.480  10.550  1.5799 -0.0384 -0.1849
  143SAPE    C315637   2.983   5.899  10.583 -0.2053 -0.2220  0.4514
  143SAPE    HX15638   3.074   5.835  10.589  0.2074  0.3247  0.2106
  143SAPE    HY15639   3.009   5.986  10.647 -2.7786  1.6851 -0.9219
  143SAPE   O3115640   2.954   5.948  10.456 -0.1042 -0.2071  1.0347
  143SAPE   C3115641   2.961   5.861  10.356  0.5445 -0.1469 -0.1851
  143SAPE   O3215642   3.008   5.752  10.360  0.3970  0.2563 -0.2122
  143SAPE   C3215643   2.911   5.924  10.226 -0.0317  0.3815 -0.3921
  143SAPE   H2X15644   2.918   6.035  10.233 -1.2978  0.4247  0.6220
  143SAPE   H2Y15645   2.808   5.884  10.232 -1.0227  2.8788  3.8377
  143SAPE   C2315646   2.557   5.587  10.388  0.2340 -0.3114  0.2224
  143SAPE   H3R15647   2.551   5.695  10.361 -0.2699 -0.9564 -2.5602
  143SAPE   H3S15648   2.458   5.568  10.436 -0.0483 -1.6376 -0.8363
  143SAPE   C2415649   2.554   5.499  10.265  0.2514 -0.5342  0.7151
  143SAPE   H4R15650   2.462   5.526  10.210  0.9478  2.1555  0.7249
  143SAPE   H4S15651   2.548   5.389  10.275 -0.8983 -0.6228 -0.7143
  143SAPE   C2515652   2.665   5.535  10.161  0.3269 -0.0312  0.0974
  143SAPE   H5R15653   2.768   5.523  10.196 -0.4583 -2.4246  1.7786
  143SAPE   C2615654   2.645   5.589  10.037  0.3528 -0.0293 -0.2033
  143SAPE   H6R15655   2.727   5.618   9.970 -1.6205  0.7433 -2.3783
  143SAPE   C2715656   2.509   5.620   9.973 -0.1035 -0.5994 -0.1774
  143SAPE   H7R15657   2.436   5.655  10.049 -2.2249  1.3542 -2.9242
  143SAPE   H7S15658   2.455   5.533   9.931 -3.1302 -0.1021  2.3583
  143SAPE   C2815659   2.528   5.752   9.883  0.0016 -0.2705 -0.4663
  143SAPE   H8R15660   2.532   5.837   9.952 -1.2477  1.1798 -2.0753
  143SAPE   C2915661   2.533   5.767   9.749 -0.0014  0.8141  0.0329
  143SAPE   H9R15662   2.544   5.869   9.708 -2.5172  1.3451  0.5094
  143SAPE  C21015663   2.526   5.650   9.649  0.0028  0.0507  0.2793
  143SAPE  H10R15664   2.476   5.560   9.689 -0.5084 -0.2485 -0.9947
  143SAPE  H10S15665   2.632   5.635   9.618 -0.0018  0.1288  0.2257
  143SAPE  C21115666   2.444   5.694   9.528  0.1771  0.0066 -0.0824
  143SAPE  H11R15667   2.341   5.723   9.551  0.2507 -1.0311  1.7116
  143SAPE  C21215668   2.478   5.685   9.400  0.2102 -0.0346  0.8897
  143SAPE  H12R15669   2.407   5.715   9.321  0.8228 -0.9207 -0.0280
  143SAPE  C21315670   2.608   5.645   9.341  0.1199  0.3269 -0.5481
  143SAPE  H13R15671   2.684   5.663   9.421  0.4564 -2.4496 -0.1499
  143SAPE  H13S15672   2.639   5.718   9.263 -3.2929  0.3573 -2.0439
  143SAPE  C21415673   2.606   5.496   9.310  0.1154  0.1832  0.2773
  143SAPE  H14R15674   2.564   5.430   9.387 -1.4581  0.8798  0.0625
  143SAPE  C21515675   2.656   5.441   9.199 -0.2074  0.2356 -0.2388
  143SAPE  H15R15676   2.655   5.331   9.201 -1.1377  0.1855  3.6678
  143SAPE  C21615677   2.731   5.505   9.084 -0.4884 -0.1187  0.1373
  143SAPE  H16R15678   2.840   5.481   9.091 -0.0904  1.7350  1.0318
  143SAPE  H16S15679   2.738   5.614   9.100  1.1308 -0.2887  0.7862
  143SAPE  C21715680   2.677   5.461   8.951 -0.0081 -0.3200  0.4495
  143SAPE  H17R15681   2.570   5.487   8.941  0.3749  0.7097 -1.6167
  143SAPE  H17S15682   2.691   5.351   8.957 -0.6760 -0.6300 -2.3387
  143SAPE  C21815683   2.757   5.513   8.830 -1.0416 -0.1152  0.5938
  143SAPE  H18R15684   2.866   5.531   8.844 -0.6423 -1.9633  0.1527
  143SAPE  H18S15685   2.710   5.610   8.803  1.3401  1.0955  0.5965
  143SAPE  C21915686   2.758   5.422   8.708  0.5246  0.4912  0.1435
  143SAPE  H19R15687   2.659   5.394   8.667  0.2619  0.0332  1.0908
  143SAPE  H19S15688   2.803   5.325   8.736  1.0193  1.0712  1.4095
  143SAPE  C22015689   2.844   5.483   8.592 -0.4061  0.2526 -0.6423
  143SAPE  H20R15690   2.849   5.411   8.508  1.2548  0.8803 -1.1241
  143SAPE  H20S15691   2.949   5.501   8.625 -0.7199  0.1167  0.4619
  143SAPE  H20T15692   2.794   5.576   8.558  0.1073  0.4802 -0.7862
  143SAPE   C3315693   2.979   5.874  10.099  0.1503  0.3118  0.8062
  143SAPE   H3X15694   2.989   5.763  10.098 -1.6948  0.1308  0.4867
  143SAPE   H3Y15695   3.083   5.914  10.105  0.5712 -0.1515 -2.0157
  143SAPE   C3415696   2.913   5.920   9.969  0.1076 -0.2391 -0.1290
  143SAPE   H4X15697   2.923   6.031   9.967  1.3052 -0.2102  2.5457
  143SAPE   H4Y15698   2.810   5.882   9.953 -0.2526  0.7144 -0.0960
  143SAPE   C3515699   2.993   5.885   9.846  0.5211 -0.2092 -0.0520
  143SAPE   H5X15700   3.023   5.779   9.837  1.5576  0.1112 -0.4779
  143SAPE   H5Y15701   3.091   5.936   9.862  1.2394 -0.2295 -3.5492
  143SAPE   C3615702   2.931   5.923   9.708 -0.0460  0.3689 -0.5025
  143SAPE   H6X15703   2.917   6.033   9.713  3.5299  0.9564 -0.4067
  143SAPE   H6Y15704   2.829   5.882   9.695 -1.4592  3.2994  0.4286
  143SAPE   C3715705   3.034   5.879   9.599  0.1808  0.0511  0.0001
  143SAPE   H7X15706   3.055   5.773   9.624  1.5424  0.0066 -1.2691
  143SAPE   H7Y15707   3.125   5.937   9.621  0.2581 -0.0109 -0.1567
  143SAPE   C3815708   2.955   5.887   9.466 -0.6589  0.2593  0.2423
  143SAPE   H8X15709   2.915   5.991   9.457  0.2785  0.4921 -2.0594
  143SAPE   H8Y15710   2.877   5.808   9.473 -0.8133  0.4860  1.1323
  143SAPE   C3915711   3.048   5.874   9.346 -0.1204  0.1612 -1.3720
  143SAPE   H9X15712   3.120   5.792   9.367  1.4006  1.6243 -0.6898
  143SAPE   H9Y15713   3.103   5.969   9.328 -2.0649  1.2581 -1.8503
  143SAPE  C31015714   2.972   5.827   9.224 -0.2139  0.2241 -0.1824
  143SAPE  H10X15715   2.897   5.905   9.197 -0.4771 -0.6415 -2.1280
  143SAPE  H10Y15716   2.919   5.737   9.263  0.3103  0.1787  0.4297
  143SAPE  C31115717   3.066   5.789   9.101 -0.0332  0.1632 -0.0427
  143SAPE  H11X15718   3.018   5.733   9.018  1.7763  0.9665 -1.6951
  143SAPE  H11Y15719   3.154   5.727   9.130  1.0163  1.1825 -0.9516
  143SAPE  C31215720   3.122   5.911   9.027  0.0592  0.3871  0.2398
  143SAPE  H12X15721   3.179   5.975   9.098 -0.9499  0.2661  1.1910
  143SAPE  H12Y15722   3.037   5.975   8.995 -0.5612 -1.1951 -1.4391
  143SAPE  C31315723   3.206   5.860   8.899 -0.7277 -0.3063  0.2789
  143SAPE  H13X15724   3.143   5.790   8.841 -0.9186 -0.6883  0.9312
  143SAPE  H13Y15725   3.290   5.799   8.939  0.0408 -0.1264 -1.0028
  143SAPE  C31415726   3.259   5.977   8.819 -0.1366  0.3878  0.7083
  143SAPE  H14X15727   3.183   6.022   8.752  2.1490  3.4910  0.0243
  143SAPE  H14Y15728   3.328   5.923   8.752 -0.4856 -2.8168  2.6921
  143SAPE  C31515729   3.344   6.086   8.889 -0.3072 -0.2664  0.1951
  143SAPE  H15X15730   3.303   6.099   8.992  3.0206 -0.7686  1.7117
  143SAPE  H15Y15731   3.329   6.180   8.832  0.8059  1.3958  2.4582
  143SAPE  C31615732   3.491   6.049   8.910  0.3255  0.2327  0.3743
  143SAPE  H16X15733   3.531   6.016   8.812  2.0167 -1.4429  1.5628
  143SAPE  H16Y15734   3.482   5.959   8.975 -1.2291  0.8344  1.0466
  143SAPE  C31715735   3.588   6.150   8.976  0.2800  0.4511 -0.4516
  143SAPE  H17X15736   3.561   6.174   9.081  0.1907 -2.0855  0.1591
  143SAPE  H17Y15737   3.589   6.237   8.907  1.2550  0.1562 -0.8245
  143SAPE  C31815738   3.732   6.101   8.978 -0.0986  0.3772  0.0596
  143SAPE  H18X15739   3.781   6.113   8.879  0.5387  0.2288  0.3480
  143SAPE  H18Y15740   3.742   5.997   9.015 -0.0895 -0.1587 -1.3851
  143SAPE  H18Z15741   3.791   6.166   9.047  3.3279 -0.8535 -1.4763
  144SAPE     N15742   5.044   0.965  10.979  0.4492 -0.7292 -0.1560
  144SAPE   HN115743   4.984   0.931  11.056  0.7700  0.7820  0.8077
  144SAPE   HN215744   5.083   1.051  11.021 -0.2396 -0.2692 -0.4404
  144SAPE   HN315745   4.976   0.972  10.900 -1.6817 -1.0411  1.5647
  144SAPE   C1215746   5.154   0.892  10.922  0.6062 -0.8910 -0.1799
  144SAPE  H12A15747   5.110   0.834  10.838  0.5375 -1.3281  0.1566
  144SAPE  H12B15748   5.201   0.828  11.000  2.0019  0.3921  0.0769
  144SAPE   C1115749   5.263   0.984  10.865  0.0142  0.4794 -0.2953
  144SAPE  H11A15750   5.206   1.050  10.797  0.6921  1.3428 -0.0468
  144SAPE  H11B15751   5.340   0.921  10.816  0.3170 -0.4572  1.3170
  144SAPE     P15752   5.470   1.049  11.007 -0.0850  0.6252 -0.2157
  144SAPE   O1315753   5.511   1.150  11.106 -0.0490 -0.2473 -0.3152
  144SAPE   O1415754   5.502   0.909  11.044 -0.2186  0.4387  0.5559
  144SAPE   O1215755   5.314   1.063  10.974  0.0057  0.6013 -0.3083
  144SAPE   O1115756   5.533   1.074  10.868 -0.6594 -0.3436 -0.4795
  144SAPE    C115757   5.630   1.180  10.855  0.2684 -0.2760  0.6616
  144SAPE    HA15758   5.590   1.277  10.893  1.2815  0.0811  0.8330
  144SAPE    HB15759   5.723   1.157  10.911  0.2245 -1.8595  0.1254
  144SAPE    C215760   5.655   1.195  10.697 -0.3573  0.0346  0.0815
  144SAPE    HS15761   5.713   1.290  10.696 -0.4528  0.1464  1.8829
  144SAPE   O2115762   5.532   1.198  10.620 -0.3758  0.0476  0.1935
  144SAPE   C2115763   5.459   1.311  10.625  0.0876 -0.3944 -0.4339
  144SAPE   O2215764   5.494   1.406  10.696 -0.1060  0.2416 -0.2952
  144SAPE   C2215765   5.353   1.308  10.523  0.5276 -0.2156 -1.2058
  144SAPE   H2R15766   5.288   1.219  10.541 -1.5848  0.8739 -2.9780
  144SAPE   H2S15767   5.289   1.398  10.535  0.9395 -0.1348  0.6930
  144SAPE    C315768   5.738   1.078  10.654 -0.4314  0.1676  0.2942
  144SAPE    HX15769   5.709   0.977  10.691 -0.3749  0.1002  0.1566
  144SAPE    HY15770   5.837   1.102  10.700 -1.3554 -0.1185  2.5698
  144SAPE   O3115771   5.755   1.066  10.513  0.0607 -0.1130 -0.5261
  144SAPE   C3115772   5.830   1.146  10.446 -0.4365  0.2840 -0.4464
  144SAPE   O3215773   5.883   1.245  10.489 -0.0575 -0.5055 -0.6017
  144SAPE   C3215774   5.851   1.094  10.302  1.0550  0.3259 -0.7523
  144SAPE   H2X15775   5.880   1.177  10.234 -1.5258 -0.5429 -3.1320
  144SAPE   H2Y15776   5.754   1.059  10.260  1.2310 -1.0988 -0.0478
  144SAPE   C2315777   5.415   1.300  10.376 -0.2165 -0.6020  0.3875
  144SAPE   H3R15778   5.332   1.282  10.305  0.7303 -2.2997 -0.3537
  144SAPE   H3S15779   5.481   1.211  10.369  1.0445  0.3697 -0.8823
  144SAPE   C2415780   5.496   1.418  10.327  0.3393  0.3936  0.4828
  144SAPE   H4R15781   5.548   1.390  10.233 -0.8694  1.8940 -0.6926
  144SAPE   H4S15782   5.574   1.426  10.406  2.0586 -2.8836 -0.7138
  144SAPE   C2515783   5.405   1.536  10.323  0.2761 -0.3393 -0.2273
  144SAPE   H5R15784   5.380   1.589  10.415  1.3909 -0.9407  0.4401
  144SAPE   C2615785   5.336   1.578  10.214 -0.5550 -0.4624  0.4693
  144SAPE   H6R15786   5.281   1.673  10.218 -0.0379 -0.0880 -0.7749
  144SAPE   C2715787   5.335   1.513  10.078  0.0110 -0.0357  0.1263
  144SAPE   H7R15788   5.381   1.413  10.084  2.3792  1.0297  1.0769
  144SAPE   H7S15789   5.391   1.578  10.007 -1.6947 -0.2844 -1.5450
  144SAPE   C2815790   5.204   1.491  10.011 -0.3439  0.0522  0.1539
  144SAPE   H8R15791   5.176   1.385  10.025  0.5793 -0.2599 -0.2289
  144SAPE   C2915792   5.130   1.575   9.936 -0.1285  1.0953  0.2873
  144SAPE   H9R15793   5.035   1.532   9.900  0.3264  0.4734 -0.1959
  144SAPE  C21015794   5.157   1.713   9.895 -0.4479 -0.7881 -0.5963
  144SAPE  H10R15795   5.190   1.705   9.789  3.0949 -3.0718  0.4945
  144SAPE  H10S15796   5.243   1.751   9.953 -2.1127  0.5774  1.0904
  144SAPE  C21115797   5.044   1.807   9.892  0.0305  0.2104  0.0399
  144SAPE  H11R15798   4.983   1.827   9.981 -2.7489  1.8950 -2.0695
  144SAPE  C21215799   5.007   1.876   9.782  0.0634 -0.2464 -0.2586
  144SAPE  H12R15800   4.917   1.939   9.791 -0.6748 -1.2973 -0.0801
  144SAPE  C21315801   5.057   1.867   9.640 -0.9225  0.1244 -0.3661
  144SAPE  H13R15802   4.982   1.811   9.581 -1.8376  0.6129  0.2963
  144SAPE  H13S15803   5.152   1.811   9.628  0.6237  2.0936  1.8244
  144SAPE  C21415804   5.079   2.003   9.581 -0.3944  0.1734  0.0108
  144SAPE  H14R15805   5.121   2.073   9.655  2.4770  1.2148 -2.3731
  144SAPE  C21515806   5.064   2.037   9.449  0.6854  0.3641 -0.4216
  144SAPE  H15R15807   5.095   2.140   9.424  1.6591  0.8537  2.4382
  144SAPE  C21615808   5.024   1.948   9.331  0.4535 -0.1727  0.3457
  144SAPE  H16R15809   4.985   1.849   9.364  0.8364  0.1099  1.7174
  144SAPE  H16S15810   5.121   1.928   9.279  1.5653  1.9924  1.4538
  144SAPE  C21715811   4.928   2.020   9.236  0.5563 -0.1735 -0.2815
  144SAPE  H17R15812   4.843   2.045   9.303  0.4421 -0.1991 -0.4160
  144SAPE  H17S15813   4.885   1.960   9.152  0.8372 -0.7875  0.0018
  144SAPE  C21815814   4.994   2.144   9.170 -1.0513 -0.3495  0.6405
  144SAPE  H18R15815   5.080   2.109   9.108 -1.7974  0.5026 -0.9230
  144SAPE  H18S15816   5.046   2.207   9.245 -1.3252 -0.6431  1.0760
  144SAPE  C21915817   4.905   2.229   9.069  0.1972  0.0505 -0.6479
  144SAPE  H19R15818   4.814   2.269   9.118  0.2685 -0.5715 -0.0078
  144SAPE  H19S15819   4.877   2.163   8.984 -1.5396 -0.5609  0.3717
  144SAPE  C22015820   4.977   2.348   8.999  0.2673 -0.1021 -0.2256
  144SAPE  H20R15821   4.901   2.393   8.931  2.0122  2.3189 -0.7050
  144SAPE  H20S15822   5.065   2.323   8.936 -0.6317 -0.2366 -1.4667
  144SAPE  H20T15823   5.001   2.420   9.080 -2.4960  0.1794  0.4585
  144SAPE   C3315824   5.949   0.978  10.282 -0.4725  0.3481 -0.5319
  144SAPE   H3X15825   5.894   0.882  10.279 -0.6591  0.4260  0.2101
  144SAPE   H3Y15826   6.015   0.974  10.371 -3.8388  0.5962  2.1853
  144SAPE   C3415827   6.034   0.994  10.158 -0.0491  0.7401  0.5842
  144SAPE   H4X15828   6.099   0.906  10.141 -0.5997  0.7017 -1.6524
  144SAPE   H4Y15829   6.093   1.088  10.157 -0.7841  1.2344 -1.3551
  144SAPE   C3515830   5.951   0.990  10.028  0.5278  0.7315 -0.4987
  144SAPE   H5X15831   5.858   1.051  10.029  0.0412  0.0399 -1.6083
  144SAPE   H5Y15832   5.912   0.886  10.026  1.2128  0.4178  1.1351
  144SAPE   C3615833   6.043   1.031   9.905 -0.0063 -0.7119 -0.8548
  144SAPE   H6X15834   6.119   0.950   9.893 -0.7101 -1.7379  1.1348
  144SAPE   H6Y15835   6.096   1.128   9.901 -1.2209 -0.0861 -2.5864
  144SAPE   C3715836   5.963   1.023   9.774 -0.2635  0.1605 -0.3386
  144SAPE   H7X15837   5.885   1.102   9.779  1.5284  2.0349 -0.5992
  144SAPE   H7Y15838   5.925   0.920   9.759  0.0632  0.3705 -3.1430
  144SAPE   C3815839   6.054   1.047   9.657 -0.1152  0.0138 -0.7208
  144SAPE   H8X15840   5.991   1.045   9.565  2.0385 -2.4284 -2.2827
  144SAPE   H8Y15841   6.130   0.967   9.644 -0.0985 -0.3176  1.1162
  144SAPE   C3915842   6.132   1.179   9.655  0.6426 -0.2479  0.0498
  144SAPE   H9X15843   6.207   1.177   9.736  0.4892 -0.1023  0.1958
  144SAPE   H9Y15844   6.056   1.254   9.685  1.2882  0.4767 -0.0987
  144SAPE  C31015845   6.181   1.216   9.515  0.1640 -0.0807 -0.4209
  144SAPE  H10X15846   6.255   1.141   9.479  1.4081  0.7733  0.2781
  144SAPE  H10Y15847   6.233   1.314   9.515 -0.6046  0.3380  0.1065
  144SAPE  C31115848   6.073   1.235   9.404  0.2553  0.1154  0.2865
  144SAPE  H11X15849   5.988   1.291   9.448  0.2901 -0.6136  1.3167
  144SAPE  H11Y15850   6.038   1.134   9.375  0.6394  0.0493  0.0409
  144SAPE  C31215851   6.141   1.304   9.282  0.3679  0.4559 -0.1788
  144SAPE  H12X15852   6.221   1.240   9.238  1.5960  1.6373  0.2605
  144SAPE  H12Y15853   6.173   1.404   9.317 -0.1314 -0.3796  2.9123
  144SAPE  C31315854   6.031   1.341   9.173 -0.1132 -0.3722 -0.2361
  144SAPE  H13X15855   5.946   1.395   9.220 -0.3282 -1.2192  0.3735
  144SAPE  H13Y15856   5.998   1.242   9.133 -0.4568  0.2911 -1.6630
  144SAPE  C31415857   6.090   1.419   9.051 -0.2692 -0.1406  0.1375
  144SAPE  H14X15858   6.173   1.361   9.007  1.7336  3.0777 -0.6732
  144SAPE  H14Y15859   6.135   1.512   9.093  1.7111 -1.7728  1.7821
  144SAPE  C31515860   5.994   1.447   8.940  0.2426 -0.9993  0.1444
  144SAPE  H15X15861   5.896   1.492   8.966  1.0067  1.1434 -0.4793
  144SAPE  H15Y15862   5.974   1.354   8.885  1.2247 -1.6480  0.8363
  144SAPE  C31615863   6.045   1.544   8.839 -1.3781 -0.2862 -0.4995
  144SAPE  H16X15864   6.145   1.519   8.797 -1.0669 -2.1026  1.1572
  144SAPE  H16Y15865   6.065   1.641   8.889 -1.9204 -0.8275  0.7933
  144SAPE  C31715866   5.953   1.561   8.720 -0.0266  0.0376  0.1450
  144SAPE  H17X15867   5.850   1.536   8.753  0.0923 -0.1843  0.3475
  144SAPE  H17Y15868   5.971   1.491   8.635  2.6572  1.1537 -0.2885
  144SAPE  C31815869   5.959   1.698   8.656  0.6937 -0.1264 -0.4786
  144SAPE  H18X15870   5.964   1.768   8.742 -3.6335 -0.4209  0.2322
  144SAPE  H18Y15871   5.863   1.730   8.609 -0.0340  0.3725  1.2921
  144SAPE  H18Z15872   6.043   1.717   8.585 -0.3190  0.3376 -1.5850
  145SAPE     N15873   3.045   2.998  11.414  0.6664 -0.3033 -0.0917
  145SAPE   HN115874   3.059   3.098  11.390  0.0012 -0.2215 -0.1790
  145SAPE   HN215875   2.952   2.974  11.372  1.3625  0.7027 -2.3572
  145SAPE   HN315876   3.028   2.969  11.513  0.0823 -0.6390 -0.2822
  145SAPE   C1215877   3.133   2.910  11.330 -0.3168  0.0879 -0.2527
  145SAPE  H12A15878   3.099   2.805  11.336 -1.9160  0.5711 -0.5734
  145SAPE  H12B15879   3.237   2.922  11.369 -0.5645 -1.7447  1.1055
  145SAPE   C1115880   3.150   2.974  11.184  0.5850  0.4044 -0.6624
  145SAPE  H11A15881   3.047   2.986  11.144 -0.1337 -2.6756 -0.0009
  145SAPE  H11B15882   3.195   2.901  11.112  0.3895 -0.6628  0.2586
  145SAPE     P15883   3.367   3.116  11.175 -0.2256  0.0830  0.2519
  145SAPE   O1315884   3.433   3.144  11.304  0.3485 -0.0148 -0.1142
  145SAPE   O1415885   3.427   3.007  11.094  0.0240  0.1933 -0.2741
  145SAPE   O1215886   3.209   3.099  11.195  0.0030 -0.3329  0.0426
  145SAPE   O1115887   3.374   3.257  11.101  0.1376 -0.6575 -0.4335
  145SAPE    C115888   3.487   3.295  11.023 -0.0905  0.1393 -0.3933
  145SAPE    HA15889   3.493   3.405  11.031  0.3584 -0.0160  4.3124
  145SAPE    HB15890   3.585   3.256  11.060  0.0234 -0.8024 -1.5968
  145SAPE    C215891   3.488   3.247  10.874  0.0716  0.3428  0.5331
  145SAPE    HS15892   3.497   3.136  10.866 -2.1174  0.1857 -0.6495
  145SAPE   O2115893   3.589   3.308  10.795 -0.0079 -0.1673  0.8961
  145SAPE   C2115894   3.715   3.282  10.820 -0.2841  0.1237 -0.7413
  145SAPE   O2215895   3.757   3.194  10.899  0.3338 -0.2885 -0.3083
  145SAPE   C2215896   3.805   3.376  10.744  0.3448  0.0770  0.1999
  145SAPE   H2R15897   3.804   3.484  10.769 -0.2845  0.6051 -1.9175
  145SAPE   H2S15898   3.909   3.335  10.753  0.0504 -0.7593 -0.0758
  145SAPE    C315899   3.359   3.257  10.795  0.1662 -0.5489  0.2907
  145SAPE    HX15900   3.316   3.360  10.791  1.6692  0.0607 -1.3516
  145SAPE    HY15901   3.295   3.181  10.846 -2.3923 -0.6315 -2.7416
  145SAPE   O3115902   3.389   3.215  10.657  0.5835  0.1694  0.0350
  145SAPE   C3115903   3.299   3.246  10.567 -0.6272 -0.5797  0.1687
  145SAPE   O3215904   3.199   3.314  10.584 -0.1892  0.7382 -0.4764
  145SAPE   C3215905   3.346   3.201  10.425 -0.3827  0.2936 -0.3711
  145SAPE   H2X15906   3.257   3.167  10.369 -1.3007  0.0928  1.1565
  145SAPE   H2Y15907   3.418   3.117  10.436 -0.6025  0.3402  2.0580
  145SAPE   C2315908   3.790   3.373  10.588  0.3118  0.5598  0.3381
  145SAPE   H3R15909   3.685   3.404  10.568  1.0488  3.0488  0.0118
  145SAPE   H3S15910   3.811   3.268  10.559  1.0097  0.9532 -0.6178
  145SAPE   C2415911   3.893   3.458  10.523 -0.1304 -0.2891  0.1293
  145SAPE   H4R15912   3.897   3.426  10.416 -1.2110  0.3132 -0.1071
  145SAPE   H4S15913   3.992   3.437  10.570 -2.0474 -0.5273  4.4525
  145SAPE   C2515914   3.871   3.609  10.536 -0.1025  0.3070  0.5664
  145SAPE   H5R15915   3.896   3.645  10.637  3.0021 -3.2935  1.3119
  145SAPE   C2615916   3.851   3.704  10.441 -0.5650  0.6020  0.8552
  145SAPE   H6R15917   3.827   3.808  10.469 -1.2915  1.5272 -2.7087
  145SAPE   C2715918   3.823   3.667  10.297  0.2454  0.4651 -0.3658
  145SAPE   H7R15919   3.761   3.575  10.290 -0.9929  1.2047  0.4071
  145SAPE   H7S15920   3.919   3.647  10.246  0.3017  0.4221 -0.2442
  145SAPE   C2815921   3.757   3.787  10.230 -0.1890  0.7775 -0.0348
  145SAPE   H8R15922   3.685   3.833  10.299 -0.2893 -0.4814  0.7229
  145SAPE   C2915923   3.778   3.824  10.104  0.4027  0.0179  0.7079
  145SAPE   H9R15924   3.735   3.913  10.057  3.1705  1.1885  0.1611
  145SAPE  C21015925   3.863   3.745  10.006  0.4266  0.6416 -0.0056
  145SAPE  H10R15926   3.970   3.745  10.036  0.3945  1.1640  0.1157
  145SAPE  H10S15927   3.864   3.803   9.911  2.9568 -1.3737 -1.3273
  145SAPE  C21115928   3.815   3.608   9.975  0.3682 -0.4719  0.2046
  145SAPE  H11R15929   3.792   3.548  10.065  2.5045  0.9570  1.7863
  145SAPE  C21215930   3.791   3.556   9.856  0.4588 -0.0765 -0.2828
  145SAPE  H12R15931   3.774   3.447   9.854  1.0821 -0.1877  0.0761
  145SAPE  C21315932   3.804   3.612   9.714 -0.2263  0.6294 -0.5095
  145SAPE  H13R15933   3.738   3.700   9.701 -0.1258  0.5747 -1.4246
  145SAPE  H13S15934   3.759   3.537   9.646  0.0834  0.7672 -0.8673
  145SAPE  C21415935   3.945   3.649   9.669 -0.1657  0.0837 -0.3275
  145SAPE  H14R15936   4.005   3.703   9.743  0.0471  0.8485 -1.0467
  145SAPE  C21515937   4.005   3.628   9.549 -0.0129 -0.1121  0.7319
  145SAPE  H15R15938   4.104   3.675   9.540 -0.4395  0.9928  1.5987
  145SAPE  C21615939   3.953   3.558   9.424 -1.1256  0.2601  0.1028
  145SAPE  H16R15940   3.856   3.508   9.447  0.7889 -2.7780  2.4164
  145SAPE  H16S15941   4.020   3.475   9.396 -2.4253 -0.3894 -1.1892
  145SAPE  C21715942   3.944   3.643   9.301  0.6433  0.1139  0.2608
  145SAPE  H17R15943   4.044   3.685   9.274  1.4411 -0.6058  1.9288
  145SAPE  H17S15944   3.875   3.724   9.334  0.7072 -0.2673  1.3566
  145SAPE  C21815945   3.895   3.580   9.172  0.6248  0.6805 -0.0868
  145SAPE  H18R15946   3.812   3.507   9.184 -1.1694  1.6977 -4.4082
  145SAPE  H18S15947   3.972   3.517   9.123 -0.4329 -1.6471  1.0228
  145SAPE  C21915948   3.845   3.681   9.071 -0.2984  0.9734 -0.7679
  145SAPE  H19R15949   3.926   3.755   9.049  0.0440  1.3414  1.4309
  145SAPE  H19S15950   3.749   3.712   9.118 -1.1636 -0.4991 -1.4961
  145SAPE  C22015951   3.814   3.608   8.939  0.0571  0.4426  0.3568
  145SAPE  H20R15952   3.752   3.517   8.952 -0.7155  1.1252  1.6994
  145SAPE  H20S15953   3.905   3.577   8.884 -0.2578 -1.6375  0.9454
  145SAPE  H20T15954   3.745   3.673   8.880 -1.6057 -2.6080 -1.2747
  145SAPE   C3315955   3.417   3.313  10.355  0.2027 -0.1712 -0.4795
  145SAPE   H3X15956   3.477   3.374  10.426 -1.2761 -0.9382  1.5072
  145SAPE   H3Y15957   3.335   3.374  10.311 -1.9914 -0.2176  3.2004
  145SAPE   C3415958   3.513   3.256  10.249 -0.5978  0.3023  0.5450
  145SAPE   H4X15959   3.469   3.164  10.206  1.0844 -0.8663  1.1725
  145SAPE   H4Y15960   3.604   3.224  10.306 -1.5451 -1.5465  1.1118
  145SAPE   C3515961   3.550   3.359  10.145  0.3788  0.5201  0.5010
  145SAPE   H5X15962   3.626   3.313  10.079 -0.4078  1.9211 -1.4871
  145SAPE   H5Y15963   3.586   3.454  10.192 -1.1882  2.1907 -1.4938
  145SAPE   C3615964   3.435   3.393  10.053 -0.4189 -0.2966  0.5258
  145SAPE   H6X15965   3.364   3.463  10.101 -0.3841 -0.4871  0.8540
  145SAPE   H6Y15966   3.374   3.303  10.031 -2.0973  0.2146  2.8230
  145SAPE   C3715967   3.476   3.455   9.923  0.6395  0.0046 -0.4248
  145SAPE   H7X15968   3.551   3.384   9.881  1.1325  1.3510 -1.9222
  145SAPE   H7Y15969   3.516   3.557   9.942  0.0584  0.4982 -1.7369
  145SAPE   C3815970   3.358   3.463   9.820 -0.0046  0.8206  0.6742
  145SAPE   H8X15971   3.276   3.518   9.871 -0.7076  0.9209 -0.5420
  145SAPE   H8Y15972   3.309   3.364   9.811 -0.0477  0.9336 -0.3782
  145SAPE   C3915973   3.388   3.525   9.684  0.2556 -1.0166  0.1171
  145SAPE   H9X15974   3.445   3.619   9.697 -1.1289 -0.3844  2.1673
  145SAPE   H9Y15975   3.287   3.550   9.643  0.5740 -0.0316 -0.0893
  145SAPE  C31015976   3.449   3.434   9.584 -0.6500 -0.3575  0.2964
  145SAPE  H10X15977   3.385   3.349   9.551  0.0244  0.1356 -2.5505
  145SAPE  H10Y15978   3.547   3.396   9.620 -0.2468 -0.1687 -0.5791
  145SAPE  C31115979   3.483   3.504   9.453 -0.5942 -0.0118  0.2811
  145SAPE  H11X15980   3.528   3.427   9.387 -1.2957 -0.4464  0.2966
  145SAPE  H11Y15981   3.571   3.573   9.451  1.3630 -2.3897  0.5548
  145SAPE  C31215982   3.359   3.573   9.399 -0.6571 -0.1392  0.8260
  145SAPE  H12X15983   3.331   3.661   9.462  1.1147  0.3435  0.9768
  145SAPE  H12Y15984   3.277   3.498   9.402 -0.3258 -0.5188  0.3446
  145SAPE  C31315985   3.372   3.632   9.253 -0.1064  0.2586 -0.0506
  145SAPE  H13X15986   3.432   3.725   9.254 -1.6958  1.4549 -2.7141
  145SAPE  H13Y15987   3.271   3.662   9.217 -0.8409 -1.0352  0.8392
  145SAPE  C31415988   3.433   3.537   9.149 -0.1385 -0.9123  0.5081
  145SAPE  H14X15989   3.383   3.438   9.153  1.5284 -1.7888  0.3108
  145SAPE  H14Y15990   3.539   3.515   9.170 -0.0644 -0.6120  0.4470
  145SAPE  C31515991   3.417   3.598   9.000 -0.4282 -0.2221 -0.5121
  145SAPE  H15X15992   3.506   3.572   8.939  1.2592 -0.6096  1.9621
  145SAPE  H15Y15993   3.413   3.707   9.022  1.8769 -0.8456  4.6319
  145SAPE  C31615994   3.290   3.552   8.932  0.3480  0.0918  0.2634
  145SAPE  H16X15995   3.201   3.562   8.999  0.7489  0.0652  0.8009
  145SAPE  H16Y15996   3.288   3.446   8.902 -1.4282 -1.0815  3.8859
  145SAPE  C31715997   3.251   3.631   8.804 -0.3675 -0.5176  0.1895
  145SAPE  H17X15998   3.305   3.597   8.712 -0.3251  0.6743 -0.2504
  145SAPE  H17Y15999   3.271   3.738   8.826 -0.5651 -0.5207  0.3857
  145SAPE  C31816000   3.102   3.619   8.776 -0.4588 -0.3105 -0.4201
  145SAPE  H18X16001   3.062   3.516   8.775 -3.4621  0.7483 -0.0992
  145SAPE  H18Y16002   3.082   3.659   8.675  1.5728 -0.8497 -1.0893
  145SAPE  H18Z16003   3.045   3.673   8.855  3.3949 -1.3663  3.5370
  146SAPE     N16004   2.082   6.293  11.305  0.2215 -0.1388  0.0675
  146SAPE   HN116005   2.164   6.241  11.343  1.5214  1.0202 -1.0723
  146SAPE   HN216006   2.054   6.376  11.362  0.8834  1.4687 -1.8327
  146SAPE   HN316007   2.002   6.226  11.301 -1.0976  1.4248 -0.9004
  146SAPE   C1216008   2.122   6.336  11.166  0.5276  1.0094 -0.0178
  146SAPE  H12A16009   2.202   6.413  11.171  1.4233  0.0738  0.6726
  146SAPE  H12B16010   2.031   6.387  11.129  0.1269 -0.2165 -0.7730
  146SAPE   C1116011   2.153   6.216  11.066 -0.5473 -0.3538  0.4713
  146SAPE  H11A16012   2.253   6.176  11.092 -0.8082 -0.6959  0.9507
  146SAPE  H11B16013   2.153   6.254  10.961  0.2297 -1.1728  0.1683
  146SAPE     P16014   1.931   6.087  10.998 -0.3442 -0.1562 -0.3348
  146SAPE   O1316015   1.882   5.953  11.036 -0.0616 -0.5544  0.1847
  146SAPE   O1416016   1.841   6.198  11.035 -0.2412  0.3173 -0.2976
  146SAPE   O1216017   2.065   6.106  11.089  0.4951  0.1847 -0.4654
  146SAPE   O1116018   1.982   6.102  10.848  0.5762  0.0308  0.0236
  146SAPE    C116019   1.953   5.985  10.766  0.0794 -0.0739 -0.1237
  146SAPE    HA16020   1.994   5.898  10.821  1.5907  1.3316  1.0662
  146SAPE    HB16021   1.844   5.979  10.746  0.2105 -2.2157 -0.4317
  146SAPE    C216022   2.014   5.994  10.615  0.0750  0.3062  0.2275
  146SAPE    HS16023   2.026   5.889  10.580 -1.5231  0.3550 -0.5614
  146SAPE   O2116024   2.134   6.067  10.600  0.2891  0.0141  0.4186
  146SAPE   C2116025   2.226   6.029  10.685 -0.2023  0.6348  0.7596
  146SAPE   O2216026   2.224   5.920  10.741 -0.2715  0.1768  0.6867
  146SAPE   C2216027   2.321   6.149  10.718 -0.0610  0.8546  0.0087
  146SAPE   H2R16028   2.278   6.240  10.671 -0.6416  1.1587  1.0853
  146SAPE   H2S16029   2.309   6.143  10.828 -1.2372 -3.3728 -0.1565
  146SAPE    C316030   1.901   6.050  10.517 -0.0659 -0.0577  0.1187
  146SAPE    HX16031   1.891   6.155  10.552 -0.5591  0.0068 -0.2123
  146SAPE    HY16032   1.804   5.997  10.528  0.3355 -0.9701 -0.5388
  146SAPE   O3116033   1.942   6.065  10.382  0.1554 -0.0126 -0.0953
  146SAPE   C3116034   1.917   5.951  10.307  0.5989 -0.4724  0.2035
  146SAPE   O3216035   1.855   5.857  10.348  0.3786  0.0914  0.2665
  146SAPE   C3216036   1.968   5.980  10.166 -0.3462 -0.1486  0.3182
  146SAPE   H2X16037   2.077   5.996  10.180 -0.2477 -1.1377  0.7738
  146SAPE   H2Y16038   1.916   6.071  10.128  0.0726 -0.4865 -1.1323
  146SAPE   C2316039   2.460   6.118  10.683 -0.0456 -0.0443 -0.4168
  146SAPE   H3R16040   2.498   6.024  10.729  1.3392 -0.5471 -2.4448
  146SAPE   H3S16041   2.524   6.197  10.728 -0.4841 -0.1044  0.3319
  146SAPE   C2416042   2.497   6.114  10.539  0.1620 -0.7155  0.2973
  146SAPE   H4R16043   2.607   6.102  10.529  0.6150  2.4003  0.8382
  146SAPE   H4S16044   2.464   6.211  10.496  0.3781  0.1061  1.9391
  146SAPE   C2516045   2.442   5.991  10.458  0.2355  0.1621 -0.7632
  146SAPE   H5R16046   2.408   5.904  10.516 -0.9789  0.1287 -1.4949
  146SAPE   C2616047   2.406   5.982  10.326 -0.3224 -0.5554  0.0644
  146SAPE   H6R16048   2.353   5.894  10.286 -0.2980 -0.6375  0.2103
  146SAPE   C2716049   2.412   6.097  10.237  0.3560 -0.4680 -0.0007
  146SAPE   H7R16050   2.407   6.195  10.289 -0.0441 -0.8496  0.6966
  146SAPE   H7S16051   2.323   6.097  10.171  0.1198 -0.8360  0.3099
  146SAPE   C2816052   2.538   6.106  10.154 -0.2549  0.6720 -0.0130
  146SAPE   H8R16053   2.632   6.072  10.200 -0.1276  0.4738 -0.4197
  146SAPE   C2916054   2.557   6.140  10.022 -0.6666  0.3093  0.4352
  146SAPE   H9R16055   2.661   6.135   9.988 -0.9239 -2.3191 -0.1924
  146SAPE  C21016056   2.464   6.187   9.907 -0.3519 -0.2075 -0.8520
  146SAPE  H10R16057   2.511   6.231   9.817 -3.5546  1.1100 -2.0199
  146SAPE  H10S16058   2.398   6.269   9.945  0.4559 -0.4660  1.2455
  146SAPE  C21116059   2.361   6.089   9.863  0.3618 -0.2040 -0.1656
  146SAPE  H11R16060   2.386   5.987   9.896  2.8671  0.5597  0.5174
  146SAPE  C21216061   2.259   6.112   9.783  0.1035 -0.6091  0.0520
  146SAPE  H12R16062   2.196   6.027   9.752  0.4701 -0.6986 -0.4750
  146SAPE  C21316063   2.215   6.239   9.718 -0.0767  0.3616  0.2769
  146SAPE  H13R16064   2.263   6.238   9.618 -1.0292 -3.2198 -0.2863
  146SAPE  H13S16065   2.268   6.319   9.773  1.4860  0.8638 -1.8501
  146SAPE  C21416066   2.067   6.263   9.701  0.2279 -0.7411 -0.2899
  146SAPE  H14R16067   2.001   6.213   9.774  0.4908 -0.7431 -0.0500
  146SAPE  C21516068   2.008   6.330   9.598  1.0964 -0.0933 -0.4452
  146SAPE  H15R16069   1.899   6.345   9.602  0.8406 -1.8663  0.0203
  146SAPE  C21616070   2.085   6.387   9.486  0.5250  0.2769 -0.2904
  146SAPE  H16R16071   2.192   6.397   9.513  0.5195  1.2205 -0.5521
  146SAPE  H16S16072   2.051   6.492   9.467  1.1860  0.1292 -2.5533
  146SAPE  C21716073   2.068   6.301   9.367 -0.1996  1.0209  0.5730
  146SAPE  H17R16074   1.961   6.281   9.345 -0.0098  0.6663 -0.0766
  146SAPE  H17S16075   2.119   6.205   9.387 -0.2096  0.4946 -1.6344
  146SAPE  C21816076   2.148   6.351   9.248 -0.5949 -0.7320 -0.1033
  146SAPE  H18R16077   2.249   6.385   9.281 -1.5754  0.0224  2.3387
  146SAPE  H18S16078   2.110   6.439   9.192  1.6899 -0.1592 -0.8736
  146SAPE  C21916079   2.170   6.243   9.145 -0.0369  0.0086 -0.5414
  146SAPE  H19R16080   2.075   6.189   9.122  0.0516 -0.1682 -0.4939
  146SAPE  H19S16081   2.248   6.171   9.178  0.4690  0.7843 -0.0094
  146SAPE  C22016082   2.222   6.298   9.013 -0.2843 -0.6387 -0.3591
  146SAPE  H20R16083   2.140   6.348   8.957  1.3875  1.0726 -1.4067
  146SAPE  H20S16084   2.276   6.231   8.943 -0.0238 -1.8702  0.9765
  146SAPE  H20T16085   2.283   6.389   9.034 -0.1730 -0.2729 -2.1571
  146SAPE   C3316086   1.944   5.869  10.076 -0.1333  0.2049  0.4812
  146SAPE   H3X16087   1.834   5.854  10.072 -0.1346  0.4427 -2.7990
  146SAPE   H3Y16088   1.997   5.781  10.118  0.6666  1.0850  1.3734
  146SAPE   C3416089   1.988   5.901   9.932 -0.4618 -0.3841 -0.2750
  146SAPE   H4X16090   2.099   5.913   9.928 -0.4059 -0.5563  0.5958
  146SAPE   H4Y16091   1.933   5.985   9.884  0.6331 -0.2518 -1.3479
  146SAPE   C3516092   1.971   5.780   9.842  0.1884  0.3246 -0.0773
  146SAPE   H5X16093   1.863   5.758   9.830  0.7117 -2.8605  0.3003
  146SAPE   H5Y16094   2.012   5.688   9.889 -1.6420 -0.9898 -0.9440
  146SAPE   C3616095   2.039   5.790   9.709  0.3371  0.6644 -0.6315
  146SAPE   H6X16096   2.036   5.690   9.661  1.8838  0.1980  0.1747
  146SAPE   H6Y16097   2.147   5.811   9.720  0.3387  0.1150  0.5316
  146SAPE   C3716098   1.958   5.878   9.611 -0.3558 -0.0307  0.2556
  146SAPE   H7X16099   1.939   5.978   9.657 -5.9230 -1.3766  1.6532
  146SAPE   H7Y16100   1.856   5.837   9.592 -0.4608  0.5505 -0.4985
  146SAPE   C3816101   2.011   5.890   9.463 -0.1789  0.2725 -0.3102
  146SAPE   H8X16102   2.118   5.916   9.476 -0.7933  1.8889  2.3059
  146SAPE   H8Y16103   1.954   5.973   9.416 -1.6193 -0.7021 -0.3568
  146SAPE   C3916104   1.979   5.773   9.371  0.2771  0.6457  0.3710
  146SAPE   H9X16105   1.869   5.759   9.372  0.2127  1.0984 -0.0771
  146SAPE   H9Y16106   2.027   5.678   9.405 -1.1492 -0.0226  0.5606
  146SAPE  C31016107   2.019   5.789   9.222 -0.0747 -0.8463  0.7837
  146SAPE  H10X16108   1.995   5.889   9.182 -2.3305 -1.8084 -0.4238
  146SAPE  H10Y16109   1.956   5.722   9.160 -0.2731 -0.3523  0.4537
  146SAPE  C31116110   2.170   5.763   9.189 -0.4250 -0.6744 -0.3360
  146SAPE  H11X16111   2.188   5.657   9.216 -0.2535 -0.6293 -0.2686
  146SAPE  H11Y16112   2.233   5.831   9.250  1.0877 -0.3661 -2.1480
  146SAPE  C31216113   2.215   5.766   9.042 -0.4775  0.9808 -0.2560
  146SAPE  H12X16114   2.156   5.686   8.992  0.4175 -1.9233  2.9122
  146SAPE  H12Y16115   2.316   5.720   9.046 -1.8937 -2.4521  0.2734
  146SAPE  C31316116   2.208   5.901   8.975  0.1046  0.4448 -0.2109
  146SAPE  H13X16117   2.281   5.967   9.027  0.5428 -1.2624  1.4394
  146SAPE  H13Y16118   2.110   5.952   8.989 -0.3005 -0.4291  0.2153
  146SAPE  C31416119   2.236   5.905   8.821 -0.4860  0.1770  0.0480
  146SAPE  H14X16120   2.179   5.823   8.773  1.6907 -0.2741 -2.0036
  146SAPE  H14Y16121   2.345   5.882   8.811 -0.4185  0.2606  0.5628
  146SAPE  C31516122   2.199   6.029   8.740 -0.0934 -1.1096  0.2434
  146SAPE  H15X16123   2.270   6.112   8.762 -1.7928  0.3558  0.3844
  146SAPE  H15Y16124   2.095   6.056   8.769 -0.3676  0.4892 -2.0219
  146SAPE  C31616125   2.204   6.005   8.584  0.2242 -0.4462  0.0715
  146SAPE  H16X16126   2.147   5.913   8.563  0.3206 -0.2431 -1.1288
  146SAPE  H16Y16127   2.309   6.003   8.548  0.0396  0.8377 -0.6097
  146SAPE  C31716128   2.127   6.118   8.519  0.7682 -0.1251 -0.4439
  146SAPE  H17X16129   2.188   6.210   8.514 -0.7681  1.1622  2.2792
  146SAPE  H17Y16130   2.030   6.134   8.570 -0.9499 -1.9754 -2.8399
  146SAPE  C31816131   2.095   6.080   8.374 -0.0030  0.6010  0.3303
  146SAPE  H18X16132   2.183   6.067   8.308  0.0234  0.9062  0.3036
  146SAPE  H18Y16133   2.017   6.136   8.318  0.6653  0.4512 -0.7729
  146SAPE  H18Z16134   2.051   5.978   8.383  1.4966 -0.1549 -0.6329
  147SAPE     N16135   4.132   1.820   6.287 -0.0798  0.1960 -0.5337
  147SAPE   HN116136   4.229   1.857   6.287 -1.3795  4.0711  0.4739
  147SAPE   HN216137   4.140   1.716   6.282 -0.3975 -0.1259  2.9499
  147SAPE   HN316138   4.092   1.858   6.199  0.4414  2.9549  0.3240
  147SAPE   C1216139   4.051   1.873   6.406  0.6548 -0.3836 -0.2757
  147SAPE  H12A16140   3.970   1.802   6.434 -1.2082  1.5131 -0.5658
  147SAPE  H12B16141   4.005   1.965   6.363 -1.8107 -1.6524 -0.5445
  147SAPE   C1116142   4.114   1.906   6.538 -0.3861 -0.2803 -0.2534
  147SAPE  H11A16143   4.037   1.949   6.607  1.4086  1.1099  0.9817
  147SAPE  H11B16144   4.180   1.993   6.516 -0.0705  0.3637  2.7944
  147SAPE     P16145   4.320   1.739   6.606  0.3288  0.0122  0.2839
  147SAPE   O1316146   4.330   1.604   6.667 -0.4134  0.2858 -0.8814
  147SAPE   O1416147   4.377   1.757   6.467  0.2354  0.1721 -0.1914
  147SAPE   O1216148   4.174   1.792   6.607  0.3614  0.1766  0.0276
  147SAPE   O1116149   4.407   1.841   6.693  0.5062  0.2409 -0.1048
  147SAPE    C116150   4.390   1.853   6.837 -0.7429 -0.3134  0.7749
  147SAPE    HA16151   4.283   1.853   6.866 -0.9275  1.6022  0.2377
  147SAPE    HB16152   4.447   1.769   6.882  1.4790 -1.1314 -3.1358
  147SAPE    C216153   4.437   1.994   6.885 -0.1512 -0.7405 -0.1005
  147SAPE    HS16154   4.535   2.006   6.834  1.1668 -3.6098  1.5063
  147SAPE   O2116155   4.455   2.008   7.030 -0.8107 -0.2912  0.4299
  147SAPE   C2116156   4.554   1.947   7.083 -0.2362  0.0680  0.0076
  147SAPE   O2216157   4.633   1.874   7.023  0.3947  0.4668  0.8523
  147SAPE   C2216158   4.545   1.979   7.225  0.3229  0.4346 -0.6928
  147SAPE   H2R16159   4.609   2.070   7.224  0.3943  0.3814 -1.7017
  147SAPE   H2S16160   4.442   1.997   7.261  0.5516 -0.1309  0.2853
  147SAPE    C316161   4.331   2.105   6.844 -0.6501 -0.0071 -0.8018
  147SAPE    HX16162   4.229   2.066   6.860 -1.2014  1.5539 -0.3509
  147SAPE    HY16163   4.350   2.118   6.735  1.3014  0.5657 -0.4441
  147SAPE   O3116164   4.371   2.231   6.905 -0.2951 -0.2591  0.2458
  147SAPE   C3116165   4.257   2.306   6.930  0.4940  0.0522 -0.1242
  147SAPE   O3216166   4.143   2.268   6.902 -0.3202 -0.0512  0.0399
  147SAPE   C3216167   4.293   2.435   6.993  0.0605  0.1675 -0.3545
  147SAPE   H2X16168   4.199   2.484   7.027 -1.5498 -2.4279 -0.8325
  147SAPE   H2Y16169   4.346   2.504   6.925  1.9518  1.3434  2.1260
  147SAPE   C2316170   4.619   1.881   7.312  0.1707  0.1752  0.3640
  147SAPE   H3R16171   4.709   1.833   7.268  0.8120 -1.3753  3.1466
  147SAPE   H3S16172   4.546   1.803   7.343  1.5574 -2.6924 -2.9166
  147SAPE   C2416173   4.675   1.954   7.440  0.6609  0.2583  0.3222
  147SAPE   H4R16174   4.587   1.983   7.502 -1.7411 -0.9285 -2.3213
  147SAPE   H4S16175   4.726   2.050   7.420  1.7046 -0.6731 -1.8033
  147SAPE   C2516176   4.743   1.873   7.544 -0.9844  0.0482 -0.6536
  147SAPE   H5R16177   4.770   1.779   7.493  2.2454  1.0635 -1.0423
  147SAPE   C2616178   4.787   1.904   7.670  0.0419 -0.2504  0.0755
  147SAPE   H6R16179   4.828   1.820   7.728  1.3336  0.5195  0.3147
  147SAPE   C2716180   4.763   2.025   7.755 -0.5953  0.2799  0.2321
  147SAPE   H7R16181   4.732   1.996   7.857  1.8732  0.0508  0.9912
  147SAPE   H7S16182   4.681   2.089   7.717 -0.8278 -0.9867 -1.5432
  147SAPE   C2816183   4.893   2.103   7.759 -0.4044 -0.0861  0.0264
  147SAPE   H8R16184   4.917   2.161   7.669  0.5748 -2.0469 -1.0495
  147SAPE   C2916185   4.994   2.088   7.842  0.1084 -0.1645 -1.0048
  147SAPE   H9R16186   5.088   2.137   7.811  0.7091 -1.4668 -1.3168
  147SAPE  C21016187   5.008   1.998   7.962  0.3452  0.2049 -0.3603
  147SAPE  H10R16188   5.107   1.949   7.946  0.1017  0.0142 -1.3638
  147SAPE  H10S16189   4.930   1.919   7.957  2.0410 -1.5325 -0.6265
  147SAPE  C21116190   5.017   2.066   8.093  0.3248  0.0957 -0.0029
  147SAPE  H11R16191   4.971   2.166   8.099 -1.8744 -0.8438 -0.3481
  147SAPE  C21216192   5.069   2.010   8.207  1.2566 -0.6119 -0.3439
  147SAPE  H12R16193   5.047   2.071   8.296 -0.5120  0.6663 -1.5769
  147SAPE  C21316194   5.120   1.869   8.234 -0.3273 -0.0910  1.0217
  147SAPE  H13R16195   5.111   1.806   8.143 -1.0646  0.9118  0.3768
  147SAPE  H13S16196   5.060   1.810   8.306 -1.5360 -0.1799 -0.0155
  147SAPE  C21416197   5.261   1.865   8.286  0.2500 -0.0831 -0.4932
  147SAPE  H14R16198   5.338   1.858   8.208 -0.6703  0.4984 -1.4879
  147SAPE  C21516199   5.309   1.870   8.416 -0.3483 -0.6267 -0.1410
  147SAPE  H15R16200   5.416   1.853   8.436 -0.3657 -1.0871 -0.4361
  147SAPE  C21616201   5.218   1.863   8.537 -0.7736 -0.3952  0.7668
  147SAPE  H16R16202   5.117   1.861   8.490 -0.0418  0.4314 -0.9214
  147SAPE  H16S16203   5.223   1.953   8.602  0.3315 -0.0201  0.1796
  147SAPE  C21716204   5.234   1.733   8.612 -0.7480  0.4308 -0.5075
  147SAPE  H17R16205   5.335   1.737   8.657 -1.1782  0.0421  0.5361
  147SAPE  H17S16206   5.227   1.654   8.535  0.0539  0.5558 -0.7108
  147SAPE  C21816207   5.128   1.704   8.727 -0.6222  0.8082  0.5839
  147SAPE  H18R16208   5.026   1.708   8.683 -0.0856  2.6285 -0.5935
  147SAPE  H18S16209   5.134   1.780   8.808  0.5646  1.0842  0.2565
  147SAPE  C21916210   5.138   1.555   8.781 -0.2720 -0.4394  0.3029
  147SAPE  H19R16211   5.077   1.489   8.716  0.5837 -2.4939  1.4749
  147SAPE  H19S16212   5.108   1.545   8.887  0.9540 -1.1477  0.6000
  147SAPE  C22016213   5.278   1.489   8.771  0.6654  0.1444 -0.0322
  147SAPE  H20R16214   5.278   1.400   8.839  2.0250 -1.5486 -2.1178
  147SAPE  H20S16215   5.350   1.554   8.826  0.9830 -1.6708  1.8478
  147SAPE  H20T16216   5.307   1.452   8.671 -0.9569  1.1117 -0.8839
  147SAPE   C3316217   4.390   2.409   7.110 -0.9360 -0.0836  0.2211
  147SAPE   H3X16218   4.427   2.511   7.133 -1.5592  0.6307 -1.7660
  147SAPE   H3Y16219   4.475   2.343   7.082 -0.1075  0.4747  1.3322
  147SAPE   C3416220   4.321   2.355   7.231 -0.4066  0.3977 -0.7177
  147SAPE   H4X16221   4.251   2.277   7.196 -0.7257  1.6181 -2.9470
  147SAPE   H4Y16222   4.263   2.443   7.267  1.4818  1.5525 -0.3150
  147SAPE   C3516223   4.407   2.314   7.349 -0.2566 -0.3808 -0.5049
  147SAPE   H5X16224   4.469   2.398   7.388 -0.1057 -0.7315  0.0285
  147SAPE   H5Y16225   4.467   2.228   7.313 -1.0256 -0.4758 -1.5836
  147SAPE   C3616226   4.333   2.271   7.480  0.3910  0.2762 -0.4793
  147SAPE   H6X16227   4.293   2.171   7.452  3.3625 -0.8101 -1.1658
  147SAPE   H6Y16228   4.254   2.347   7.498  0.6490  0.3712  0.2800
  147SAPE   C3716229   4.431   2.260   7.601  0.5292  0.1491 -0.0079
  147SAPE   H7X16230   4.492   2.352   7.606 -0.3385  0.7113  0.5504
  147SAPE   H7Y16231   4.502   2.175   7.592  1.2023  0.8218 -1.1933
  147SAPE   C3816232   4.366   2.246   7.737 -0.0816  0.7079 -0.2007
  147SAPE   H8X16233   4.300   2.158   7.738  0.8513 -0.0071  0.2481
  147SAPE   H8Y16234   4.308   2.337   7.764  0.5528  0.0512  4.1101
  147SAPE   C3916235   4.470   2.222   7.844  0.4534 -0.9653 -0.2107
  147SAPE   H9X16236   4.550   2.297   7.823 -2.0529  1.8477 -0.4215
  147SAPE   H9Y16237   4.514   2.120   7.841 -1.3296 -1.7555 -0.7056
  147SAPE  C31016238   4.411   2.246   7.986  0.1200 -0.3017  0.5413
  147SAPE  H10X16239   4.348   2.161   8.019  1.1016 -0.5676  1.7992
  147SAPE  H10Y16240   4.346   2.336   7.983  1.8317  1.0440  1.4474
  147SAPE  C31116241   4.512   2.280   8.091  0.1436  0.1824 -0.4736
  147SAPE  H11X16242   4.463   2.342   8.169 -2.0088 -1.0141 -0.7909
  147SAPE  H11Y16243   4.588   2.352   8.054  0.9497  0.5911  1.7726
  147SAPE  C31216244   4.588   2.162   8.148  0.0846  0.0572 -0.0292
  147SAPE  H12X16245   4.624   2.099   8.065 -1.7540 -0.1760 -0.6926
  147SAPE  H12Y16246   4.514   2.101   8.205 -0.2081 -1.6039 -2.0997
  147SAPE  C31316247   4.711   2.213   8.234 -0.6580 -0.0484  0.4508
  147SAPE  H13X16248   4.770   2.288   8.179  0.0360 -0.6051  0.4179
  147SAPE  H13Y16249   4.780   2.126   8.243 -0.2073  0.0898 -1.2509
  147SAPE  C31416250   4.658   2.263   8.369 -0.1202 -0.9307  0.1918
  147SAPE  H14X16251   4.587   2.186   8.402 -1.6821  0.4354  0.1413
  147SAPE  H14Y16252   4.605   2.361   8.363  0.7685 -0.3431  1.3841
  147SAPE  C31516253   4.763   2.287   8.480 -0.7694  0.2361 -0.2595
  147SAPE  H15X16254   4.792   2.183   8.508  0.3927  0.1170 -1.8024
  147SAPE  H15Y16255   4.709   2.338   8.563 -0.2231 -1.1665  1.0070
  147SAPE  C31616256   4.885   2.382   8.436  0.1478  0.0778 -0.6849
  147SAPE  H16X16257   4.844   2.485   8.430  3.4805  1.4781 -1.4387
  147SAPE  H16Y16258   4.916   2.345   8.336 -2.2915  0.4193 -1.6434
  147SAPE  C31716259   4.994   2.411   8.541 -0.5409 -0.1706  0.1891
  147SAPE  H17X16260   4.944   2.430   8.639  0.2575  2.4688  0.1545
  147SAPE  H17Y16261   5.048   2.504   8.513 -0.7058 -0.6198 -1.7836
  147SAPE  C31816262   5.107   2.305   8.550  0.2441 -0.0638 -0.1383
  147SAPE  H18X16263   5.138   2.261   8.452  0.0893  0.4316 -0.4175
  147SAPE  H18Y16264   5.070   2.220   8.610 -1.9029  0.7168 -0.2995
  147SAPE  H18Z16265   5.197   2.344   8.603  0.7933 -2.9162  1.1815
  148SAPE     N16266   2.210   1.540   6.241 -0.1811 -0.2456  0.1328
  148SAPE   HN116267   2.190   1.599   6.157 -0.7005 -1.4445 -0.6245
  148SAPE   HN216268   2.133   1.473   6.261 -0.9724  0.8078  0.6761
  148SAPE   HN316269   2.216   1.601   6.325  0.2623 -0.7351  0.4603
  148SAPE   C1216270   2.338   1.471   6.217  0.2168  0.1666  0.4919
  148SAPE  H12A16271   2.416   1.551   6.213 -1.6054  2.0023 -2.2842
  148SAPE  H12B16272   2.321   1.408   6.127  0.9535  0.0640  0.4176
  148SAPE   C1116273   2.378   1.384   6.339  0.2103  0.3561 -0.4118
  148SAPE  H11A16274   2.459   1.322   6.295 -1.2254 -0.2505 -2.3655
  148SAPE  H11B16275   2.297   1.315   6.370 -0.1022  1.3826  1.1620
  148SAPE     P16276   2.450   1.394   6.585 -0.0182  0.0766  0.3001
  148SAPE   O1316277   2.351   1.291   6.625 -0.1539 -0.1956  0.3776
  148SAPE   O1416278   2.593   1.350   6.573  0.0833 -0.3144  0.7251
  148SAPE   O1216279   2.407   1.467   6.453  0.2908 -0.0830  0.1030
  148SAPE   O1116280   2.434   1.513   6.688 -0.2032 -0.4375 -0.3362
  148SAPE    C116281   2.435   1.653   6.671  0.4408 -0.2295  0.1583
  148SAPE    HA16282   2.448   1.676   6.563 -0.0504 -2.3967 -0.4001
  148SAPE    HB16283   2.333   1.683   6.705 -0.2224 -1.4618 -0.7205
  148SAPE    C216284   2.547   1.730   6.744 -0.3709  0.6434  1.2353
  148SAPE    HS16285   2.644   1.695   6.703 -1.3789 -1.9354  0.9163
  148SAPE   O2116286   2.538   1.697   6.890 -0.4444 -0.5663  0.1453
  148SAPE   C2116287   2.626   1.605   6.937  0.7894 -0.2148 -0.0660
  148SAPE   O2216288   2.723   1.561   6.887 -0.4390  0.2103 -0.0671
  148SAPE   C2216289   2.581   1.583   7.078  0.2759 -0.2145  0.0474
  148SAPE   H2R16290   2.498   1.653   7.102  0.3505 -0.4705  1.1057
  148SAPE   H2S16291   2.539   1.480   7.078 -0.5480  0.1029 -0.9232
  148SAPE    C316292   2.534   1.882   6.740 -0.4304 -0.4164  0.7027
  148SAPE    HX16293   2.442   1.921   6.788 -1.1613  2.0266 -2.3035
  148SAPE    HY16294   2.528   1.901   6.630  1.2409 -0.3204  0.6035
  148SAPE   O3116295   2.640   1.959   6.801  0.0368 -0.2811  0.3056
  148SAPE   C3116296   2.672   2.067   6.730  0.2295 -0.3322 -0.1735
  148SAPE   O3216297   2.608   2.102   6.632 -0.0542  0.2655 -0.6426
  148SAPE   C3216298   2.793   2.139   6.788  0.2469 -0.2630  0.0465
  148SAPE   H2X16299   2.814   2.212   6.706 -2.2912 -0.0386 -0.4853
  148SAPE   H2Y16300   2.876   2.066   6.797 -0.9476 -1.7424 -0.5133
  148SAPE   C2316301   2.706   1.602   7.166 -0.2015 -0.2410 -0.5291
  148SAPE   H3R16302   2.744   1.705   7.149 -1.0261  0.0676 -0.5477
  148SAPE   H3S16303   2.783   1.530   7.130  0.0587  0.2899 -1.0560
  148SAPE   C2416304   2.684   1.588   7.318 -0.1966  0.4629 -0.4313
  148SAPE   H4R16305   2.593   1.649   7.335 -0.4637  0.7386 -2.5775
  148SAPE   H4S16306   2.774   1.633   7.366 -0.6663  0.0775  0.8469
  148SAPE   C2516307   2.669   1.439   7.359  0.0532 -0.5468 -0.3599
  148SAPE   H5R16308   2.569   1.400   7.384 -0.8291  1.4359 -0.5976
  148SAPE   C2616309   2.760   1.348   7.358  0.4050 -0.4906  0.3448
  148SAPE   H6R16310   2.737   1.242   7.380 -1.4661  0.1592  1.7403
  148SAPE   C2716311   2.908   1.356   7.322  0.2749  0.5471 -0.3319
  148SAPE   H7R16312   2.969   1.295   7.392  1.8215  1.8826 -0.4598
  148SAPE   H7S16313   2.946   1.459   7.337  0.8379  0.3184 -0.1420
  148SAPE   C2816314   2.955   1.306   7.191 -0.5311 -0.1127 -0.2866
  148SAPE   H8R16315   2.879   1.254   7.132  0.2240 -0.3199 -1.0950
  148SAPE   C2916316   3.081   1.319   7.144  0.4238 -0.0920 -0.6808
  148SAPE   H9R16317   3.093   1.301   7.036  1.1834 -0.5314 -0.5281
  148SAPE  C21016318   3.193   1.381   7.225 -0.8675 -0.2461  0.7273
  148SAPE  H10R16319   3.291   1.334   7.199 -0.9598 -1.2217  2.0422
  148SAPE  H10S16320   3.183   1.349   7.331 -1.9656 -3.2114 -0.1717
  148SAPE  C21116321   3.212   1.534   7.198 -0.3629 -0.4444  0.0162
  148SAPE  H11R16322   3.165   1.570   7.106 -1.7964 -1.0789  0.4754
  148SAPE  C21216323   3.278   1.626   7.284  0.1857  0.2973  0.1733
  148SAPE  H12R16324   3.282   1.734   7.265  0.9265  0.6311  1.9848
  148SAPE  C21316325   3.342   1.588   7.418  0.1483  0.2765 -0.2664
  148SAPE  H13R16326   3.430   1.653   7.436  0.2456  0.3031 -0.8258
  148SAPE  H13S16327   3.371   1.480   7.419  0.9613  0.4794  1.6240
  148SAPE  C21416328   3.239   1.613   7.522  0.5796 -0.4030 -0.1539
  148SAPE  H14R16329   3.188   1.709   7.504 -0.4721 -0.6404  1.3575
  148SAPE  C21516330   3.211   1.541   7.635  0.2127 -0.0800 -0.3109
  148SAPE  H15R16331   3.146   1.565   7.720  0.9821  1.8142 -0.2207
  148SAPE  C21616332   3.266   1.409   7.680 -0.3151 -0.3288  0.3711
  148SAPE  H16R16333   3.351   1.425   7.749  0.6130  0.6654 -0.9592
  148SAPE  H16S16334   3.309   1.354   7.595  3.2171  0.8260  1.2364
  148SAPE  C21716335   3.163   1.323   7.753 -0.1617 -0.1011 -0.2023
  148SAPE  H17R16336   3.118   1.369   7.843 -3.3260 -0.8730 -1.2348
  148SAPE  H17S16337   3.220   1.234   7.788 -1.6579 -1.7799 -1.7684
  148SAPE  C21816338   3.043   1.273   7.665 -0.0937 -0.1491 -0.0556
  148SAPE  H18R16339   3.083   1.186   7.609  0.3369 -0.1122  0.1918
  148SAPE  H18S16340   3.013   1.346   7.588  2.3723  0.3930 -0.5971
  148SAPE  C21916341   2.928   1.227   7.760 -0.3279 -1.1254 -0.0563
  148SAPE  H19R16342   2.918   1.312   7.831  1.4900 -0.9925  0.0880
  148SAPE  H19S16343   2.963   1.141   7.821  0.1473  1.1389  3.1532
  148SAPE  C22016344   2.798   1.188   7.690 -0.0527 -0.0574  0.1438
  148SAPE  H20R16345   2.790   1.077   7.688  3.3043 -0.4143  0.7879
  148SAPE  H20S16346   2.800   1.219   7.583  1.2594 -1.6095 -0.3253
  148SAPE  H20T16347   2.719   1.240   7.747 -0.3360 -0.5228  0.1831
  148SAPE   C3316348   2.761   2.209   6.917 -0.2193 -0.0989 -0.0955
  148SAPE   H3X16349   2.718   2.126   6.978 -2.9488 -0.2308 -2.0573
  148SAPE   H3Y16350   2.692   2.294   6.903  1.1016  0.8206 -1.2804
  148SAPE   C3416351   2.894   2.260   6.975 -0.3540  1.1523 -0.0521
  148SAPE   H4X16352   2.953   2.319   6.901  3.4020  0.7038  2.3124
  148SAPE   H4Y16353   2.954   2.168   6.989  1.0292  2.0581  0.1644
  148SAPE   C3516354   2.870   2.346   7.098  0.3344 -0.1878  0.2254
  148SAPE   H5X16355   2.821   2.436   7.054  1.3138 -0.6613 -1.9820
  148SAPE   H5Y16356   2.975   2.372   7.124  1.0253 -0.8814 -1.6999
  148SAPE   C3616357   2.791   2.289   7.211 -0.4615  0.3139 -0.9006
  148SAPE   H6X16358   2.834   2.188   7.228 -1.0222  0.4812  2.1789
  148SAPE   H6Y16359   2.681   2.282   7.195 -0.7030  0.2716  0.5823
  148SAPE   C3716360   2.809   2.359   7.348 -0.4509 -0.1357  0.1499
  148SAPE   H7X16361   2.772   2.464   7.339  0.9804  0.3433 -0.4058
  148SAPE   H7Y16362   2.918   2.373   7.364 -0.3819  0.1141 -0.5021
  148SAPE   C3816363   2.730   2.282   7.456  0.6131  0.0807  0.2230
  148SAPE   H8X16364   2.764   2.176   7.458 -1.4041 -0.5972  0.3844
  148SAPE   H8Y16365   2.624   2.267   7.428  0.2523 -0.1742  1.6417
  148SAPE   C3916366   2.740   2.330   7.604  0.1841  0.4483 -0.2818
  148SAPE   H9X16367   2.843   2.342   7.645 -0.2410  1.8311  0.4562
  148SAPE   H9Y16368   2.708   2.249   7.673  2.7344  0.8437  1.5649
  148SAPE  C31016369   2.672   2.458   7.632  0.6860  0.0461  0.0669
  148SAPE  H10X16370   2.569   2.447   7.592  0.4817  2.2091 -0.0948
  148SAPE  H10Y16371   2.725   2.540   7.578  1.1865 -0.4488 -0.2138
  148SAPE  C31116372   2.658   2.485   7.783 -0.6826 -0.1950  0.8868
  148SAPE  H11X16373   2.759   2.492   7.828 -0.1141 -0.7526 -0.2711
  148SAPE  H11Y16374   2.612   2.398   7.835 -0.9780  0.5535  1.9211
  148SAPE  C31216375   2.573   2.613   7.817 -0.2107  0.2331 -0.4985
  148SAPE  H12X16376   2.468   2.582   7.796 -0.1789  0.3709 -0.8743
  148SAPE  H12Y16377   2.613   2.688   7.746 -0.5310  1.0311  0.1554
  148SAPE  C31316378   2.591   2.667   7.964  0.1224 -0.3195 -0.1178
  148SAPE  H13X16379   2.697   2.691   7.984  0.4985 -0.3421 -1.9741
  148SAPE  H13Y16380   2.555   2.578   8.021 -0.9200  0.3684  0.3303
  148SAPE  C31416381   2.494   2.782   7.985 -0.1701  0.0326  0.7056
  148SAPE  H14X16382   2.397   2.762   8.035 -1.3604 -0.9768 -1.8446
  148SAPE  H14Y16383   2.471   2.826   7.886 -0.8295 -0.8463  0.4589
  148SAPE  C31516384   2.554   2.888   8.084 -0.2939 -0.2348 -0.1324
  148SAPE  H15X16385   2.654   2.900   8.036  0.2051 -2.2490  0.2943
  148SAPE  H15Y16386   2.558   2.847   8.187 -0.5076  1.2304  0.4799
  148SAPE  C31616387   2.492   3.029   8.103  0.1301 -0.5575  0.3289
  148SAPE  H16X16388   2.540   3.087   8.185  0.1325  1.3180 -0.9590
  148SAPE  H16Y16389   2.390   3.001   8.137 -1.4722  1.4873 -2.4159
  148SAPE  C31716390   2.493   3.103   7.969  0.7567  0.2096  0.4009
  148SAPE  H17X16391   2.451   3.040   7.887 -1.5742  2.1361  0.0161
  148SAPE  H17Y16392   2.597   3.131   7.942 -0.0063  1.8970 -1.0136
  148SAPE  C31816393   2.403   3.230   7.965 -0.2322 -0.2690 -0.3450
  148SAPE  H18X16394   2.400   3.274   7.863 -0.8063  1.2631  0.2969
  148SAPE  H18Y16395   2.439   3.304   8.038 -4.1258  0.9987  0.5567
  148SAPE  H18Z16396   2.305   3.188   7.997  0.6196 -2.3833 -0.3593
  149SAPE     N16397   2.140   1.141   6.685  0.7686 -0.5648 -0.0023
  149SAPE   HN116398   2.051   1.170   6.731  1.0019  0.6637 -0.2948
  149SAPE   HN216399   2.216   1.128   6.755  1.6416 -1.4780 -1.0777
  149SAPE   HN316400   2.175   1.228   6.641 -2.2216  0.6979 -0.1290
  149SAPE   C1216401   2.138   1.044   6.578 -0.0704  0.4684  0.2982
  149SAPE  H12A16402   2.122   0.945   6.626 -1.7785  0.4393 -0.2569
  149SAPE  H12B16403   2.240   1.046   6.535 -0.1813  1.5773  0.0638
  149SAPE   C1116404   2.034   1.073   6.479 -0.0175  1.0342  0.2793
  149SAPE  H11A16405   1.930   1.052   6.512 -0.4501 -3.3819 -2.9260
  149SAPE  H11B16406   2.055   0.987   6.412 -0.1371  1.1608  0.0802
  149SAPE     P16407   1.923   1.289   6.375  0.2303 -0.1175  0.1185
  149SAPE   O1316408   1.970   1.391   6.280  1.0524 -0.2502  0.2064
  149SAPE   O1416409   1.805   1.202   6.337 -0.0019 -0.5416  0.2883
  149SAPE   O1216410   2.047   1.204   6.420  0.1567 -0.7540 -0.3019
  149SAPE   O1116411   1.886   1.366   6.510 -0.5536 -0.4224 -0.0978
  149SAPE    C116412   1.977   1.459   6.569 -0.2671 -0.3176  0.1180
  149SAPE    HA16413   2.083   1.429   6.554 -0.7818 -0.7446 -3.5628
  149SAPE    HB16414   1.962   1.552   6.510 -1.0022 -1.1262 -0.9889
  149SAPE    C216415   1.948   1.495   6.722 -0.5308 -0.2202 -0.3806
  149SAPE    HS16416   2.037   1.466   6.782  0.0682  0.1439 -1.0687
  149SAPE   O2116417   1.826   1.444   6.778  0.0074  0.1559  0.2544
  149SAPE   C2116418   1.814   1.316   6.777  0.2533 -0.6984 -0.7754
  149SAPE   O2216419   1.904   1.231   6.774  0.6225 -0.2708  0.2315
  149SAPE   C2216420   1.662   1.282   6.780  0.0477  0.6060  0.2305
  149SAPE   H2R16421   1.611   1.339   6.700 -0.2885 -2.1410 -1.6750
  149SAPE   H2S16422   1.650   1.174   6.756  2.0584  0.5688 -0.8029
  149SAPE    C316423   1.945   1.652   6.745  0.9856  0.0550  0.3078
  149SAPE    HX16424   1.870   1.698   6.676 -1.0634 -0.6253  1.9831
  149SAPE    HY16425   2.045   1.693   6.720  1.2186  2.3244  4.1647
  149SAPE   O3116426   1.896   1.693   6.871 -0.1652 -0.0922 -0.2359
  149SAPE   C3116427   1.997   1.693   6.967  0.5796 -1.0184 -0.4804
  149SAPE   O3216428   2.114   1.682   6.943  0.7842  0.3914  0.4226
  149SAPE   C3216429   1.916   1.709   7.097 -0.5233 -0.1350  0.4839
  149SAPE   H2X16430   1.958   1.647   7.179  0.1797  1.8766  1.7004
  149SAPE   H2Y16431   1.808   1.689   7.078  0.0474 -2.5067 -0.7904
  149SAPE   C2316432   1.600   1.316   6.917 -0.0457 -0.7427  0.2725
  149SAPE   H3R16433   1.489   1.310   6.908 -0.0735  0.2190 -0.0968
  149SAPE   H3S16434   1.630   1.418   6.948  0.9433 -0.5907 -1.1068
  149SAPE   C2416435   1.642   1.227   7.026  0.3443 -1.1146  0.6054
  149SAPE   H4R16436   1.613   1.292   7.112  1.4116  2.4137 -1.4604
  149SAPE   H4S16437   1.752   1.213   7.022  0.6936  1.3715 -1.6135
  149SAPE   C2516438   1.563   1.097   7.028  0.1762  0.0340 -1.1586
  149SAPE   H5R16439   1.550   1.046   6.931  1.6110 -2.9010  0.0595
  149SAPE   C2616440   1.506   1.038   7.137  0.0950  0.9602  0.5494
  149SAPE   H6R16441   1.459   0.940   7.122 -0.2841  1.0469  1.1429
  149SAPE   C2716442   1.513   1.095   7.277  0.4986  0.2623 -0.2143
  149SAPE   H7R16443   1.446   1.034   7.341  0.9777  1.5353  1.5585
  149SAPE   H7S16444   1.471   1.197   7.283  1.4532  0.5685  2.1498
  149SAPE   C2816445   1.657   1.087   7.334  0.2656 -0.1349  0.7100
  149SAPE   H8R16446   1.726   1.171   7.319 -0.2817  0.3792  0.9879
  149SAPE   C2916447   1.705   0.982   7.392 -1.1895 -0.0845 -1.2548
  149SAPE   H9R16448   1.809   0.993   7.425 -2.2987  1.0165  2.3142
  149SAPE  C21016449   1.637   0.848   7.419  0.1833  0.2813 -0.2041
  149SAPE  H10R16450   1.572   0.814   7.336  0.8191 -0.6669 -0.3188
  149SAPE  H10S16451   1.559   0.872   7.495 -0.4842  0.1598 -0.8363
  149SAPE  C21116452   1.718   0.727   7.469 -0.1730  0.2567 -0.5557
  149SAPE  H11R16453   1.723   0.649   7.392  1.5572  1.5113 -1.7782
  149SAPE  C21216454   1.791   0.719   7.589 -0.2287 -0.1611 -0.3761
  149SAPE  H12R16455   1.851   0.628   7.607 -1.2065 -0.7566 -0.0666
  149SAPE  C21316456   1.808   0.825   7.696 -0.6368 -0.0644 -0.5265
  149SAPE  H13R16457   1.783   0.925   7.655  1.7144  0.5710 -0.5589
  149SAPE  H13S16458   1.917   0.842   7.707 -0.1528 -1.6741 -2.2529
  149SAPE  C21416459   1.755   0.794   7.833 -0.6758  0.3481  0.0237
  149SAPE  H14R16460   1.647   0.774   7.837 -0.7434  0.7355  0.1877
  149SAPE  C21516461   1.823   0.775   7.947  0.1799 -0.7358 -0.1242
  149SAPE  H15R16462   1.761   0.750   8.034  0.2864 -0.4569  0.0348
  149SAPE  C21616463   1.977   0.797   7.965  0.3282 -0.3156  0.0098
  149SAPE  H16R16464   1.991   0.887   8.028  1.6438 -1.1614  0.9823
  149SAPE  H16S16465   2.036   0.815   7.873 -2.2537 -0.0579 -1.7215
  149SAPE  C21716466   2.035   0.675   8.044  0.0188  0.1015  0.4093
  149SAPE  H17R16467   2.035   0.591   7.970 -1.4547  0.4084  0.0397
  149SAPE  H17S16468   1.975   0.664   8.136 -0.7119  0.7260  0.0162
  149SAPE  C21816469   2.182   0.686   8.098 -0.0914 -0.5153 -0.6725
  149SAPE  H18R16470   2.260   0.701   8.020 -0.9050 -1.3598 -1.6670
  149SAPE  H18S16471   2.222   0.592   8.142  2.8980  0.4305 -1.0866
  149SAPE  C21916472   2.190   0.804   8.197 -0.7634  0.4623 -0.2562
  149SAPE  H19R16473   2.113   0.790   8.276  1.3523  0.8863  2.0098
  149SAPE  H19S16474   2.175   0.903   8.149 -0.3070 -0.0278 -1.4509
  149SAPE  C22016475   2.318   0.813   8.278  0.4619  0.2401  0.0657
  149SAPE  H20R16476   2.319   0.726   8.348  0.8185  0.0404 -0.1811
  149SAPE  H20S16477   2.347   0.910   8.323 -1.0292  1.1178 -0.8124
  149SAPE  H20T16478   2.400   0.789   8.207  0.3139 -1.2656  0.3691
  149SAPE   C3316479   1.919   1.852   7.156 -0.1463 -1.1911 -0.0863
  149SAPE   H3X16480   1.901   1.924   7.073  1.6248  1.5479  1.7623
  149SAPE   H3Y16481   2.015   1.867   7.208  0.1436 -1.4806 -0.5309
  149SAPE   C3416482   1.810   1.857   7.277  0.2381  0.0006  0.3867
  149SAPE   H4X16483   1.718   1.811   7.235  0.1507  0.0430  0.5296
  149SAPE   H4Y16484   1.797   1.964   7.303  2.3026  0.3468  0.1787
  149SAPE   C3516485   1.847   1.791   7.414  0.4440 -0.2628 -0.4262
  149SAPE   H5X16486   1.877   1.687   7.389  0.5022 -0.6777  1.2778
  149SAPE   H5Y16487   1.755   1.791   7.476 -0.9947 -0.7947 -2.4481
  149SAPE   C3616488   1.950   1.868   7.500 -0.4721 -0.1607 -0.1380
  149SAPE   H6X16489   1.936   1.978   7.501  1.1410  0.0928 -1.2473
  149SAPE   H6Y16490   2.046   1.860   7.444 -1.3230 -3.0127 -1.3530
  149SAPE   C3716491   1.964   1.810   7.639  0.1970  0.3918  0.3357
  149SAPE   H7X16492   2.044   1.734   7.629  0.0427  0.1844  0.7092
  149SAPE   H7Y16493   1.873   1.755   7.669 -1.2127  2.6645  0.4577
  149SAPE   C3816494   2.008   1.901   7.747  0.1510  0.2686  0.2993
  149SAPE   H8X16495   1.933   1.979   7.770 -1.5083 -1.2971  0.4263
  149SAPE   H8Y16496   2.101   1.956   7.721  0.1310  0.6503  1.0081
  149SAPE   C3916497   2.031   1.810   7.867  0.5268  0.8819 -0.1516
  149SAPE   H9X16498   2.113   1.739   7.844  0.2634 -0.0297  1.5741
  149SAPE   H9Y16499   1.933   1.759   7.874  0.6259  0.5327 -1.2100
  149SAPE  C31016500   2.073   1.894   7.995  0.3747 -0.4313  0.7246
  149SAPE  H10X16501   1.998   1.971   8.022  3.2564  2.1058  1.9811
  149SAPE  H10Y16502   2.163   1.956   7.979 -0.4350  0.8538  0.9972
  149SAPE  C31116503   2.092   1.812   8.124 -0.3301 -0.5176 -0.0011
  149SAPE  H11X16504   2.006   1.742   8.123 -0.4871 -0.3732  1.3343
  149SAPE  H11Y16505   2.058   1.880   8.205 -0.1540  0.2416 -0.5541
  149SAPE  C31216506   2.232   1.742   8.141  0.5578  0.0923 -0.4468
  149SAPE  H12X16507   2.320   1.809   8.130 -0.6473  1.5874 -1.5623
  149SAPE  H12Y16508   2.232   1.687   8.045 -2.4420  0.4561 -0.7745
  149SAPE  C31316509   2.243   1.641   8.257  0.0691 -0.0225 -1.1567
  149SAPE  H13X16510   2.320   1.563   8.237 -0.3744 -0.0606 -2.8539
  149SAPE  H13Y16511   2.147   1.587   8.247  1.5402 -2.5994 -2.5384
  149SAPE  C31416512   2.262   1.694   8.397 -0.6377  0.1925 -0.2983
  149SAPE  H14X16513   2.187   1.774   8.419  0.6530  1.6718 -1.0674
  149SAPE  H14Y16514   2.353   1.757   8.399 -0.4804 -0.0257 -0.5335
  149SAPE  C31516515   2.265   1.587   8.507 -0.1232  1.0186 -0.3387
  149SAPE  H15X16516   2.350   1.522   8.477 -1.1600  0.2908 -1.8174
  149SAPE  H15Y16517   2.171   1.528   8.495  1.3308 -1.4660 -0.3011
  149SAPE  C31616518   2.289   1.645   8.640 -0.4845  0.5972 -0.0178
  149SAPE  H16X16519   2.210   1.717   8.670  0.2100  0.8904  1.1946
  149SAPE  H16Y16520   2.382   1.707   8.638  0.3099 -0.3873  2.3628
  149SAPE  C31716521   2.305   1.535   8.741  0.0759  0.5357  0.2824
  149SAPE  H17X16522   2.392   1.479   8.699  0.3701 -0.0075  1.5660
  149SAPE  H17Y16523   2.214   1.473   8.740 -0.0594  0.7439 -1.0180
  149SAPE  C31816524   2.327   1.589   8.882 -0.0986  0.4439 -0.4198
  149SAPE  H18X16525   2.237   1.648   8.909 -1.1986 -1.4872  0.3388
  149SAPE  H18Y16526   2.424   1.644   8.883 -0.0411  0.3439  0.4147
  149SAPE  H18Z16527   2.336   1.505   8.954 -0.3393 -0.0904 -1.0109
  150SAPE     N16528   1.665   0.177   6.520  0.0151  0.1072 -0.0878
  150SAPE   HN116529   1.731   0.182   6.599 -1.7581  1.6042  1.3883
  150SAPE   HN216530   1.686   0.078   6.498  3.1051  1.0686 -2.3012
  150SAPE   HN316531   1.690   0.246   6.446  1.4859 -0.6163 -0.2984
  150SAPE   C1216532   1.518   0.201   6.551  0.3824  0.5685  0.6360
  150SAPE  H12A16533   1.495   0.309   6.535 -2.8928  0.2727  2.4794
  150SAPE  H12B16534   1.500   0.174   6.657 -1.8324  3.1112  1.0315
  150SAPE   C1116535   1.425   0.115   6.460  0.4884 -0.2383  0.4510
  150SAPE  H11A16536   1.319   0.112   6.493  0.0024 -0.1076 -1.0337
  150SAPE  H11B16537   1.457   0.010   6.481 -1.5893 -0.9337  0.3809
  150SAPE     P16538   1.326   0.269   6.267  0.1379  0.5362  0.1520
  150SAPE   O1316539   1.407   0.389   6.231 -0.0746  0.0044 -0.1535
  150SAPE   O1416540   1.244   0.204   6.161 -0.4448  0.1561  0.2088
  150SAPE   O1216541   1.426   0.153   6.323  0.1675 -0.1488  0.5626
  150SAPE   O1116542   1.233   0.307   6.392  0.2139 -0.2626  0.3320
  150SAPE    C116543   1.168   0.431   6.400 -0.3934 -0.7446  0.2014
  150SAPE    HA16544   1.198   0.508   6.326 -1.1772 -0.8208 -0.2080
  150SAPE    HB16545   1.058   0.430   6.387 -0.6825 -0.8051  2.3430
  150SAPE    C216546   1.193   0.480   6.544  0.0834 -0.2348  0.3377
  150SAPE    HS16547   1.140   0.577   6.550  1.1174  0.4072 -0.6997
  150SAPE   O2116548   1.335   0.499   6.571 -0.1351  0.0802 -0.0445
  150SAPE   C2116549   1.380   0.614   6.534  0.0824  0.5917 -0.4685
  150SAPE   O2216550   1.314   0.701   6.474  0.0480  0.5012  0.0298
  150SAPE   C2216551   1.525   0.622   6.559 -0.2227  0.1173  0.1664
  150SAPE   H2R16552   1.571   0.563   6.477 -2.9894  0.4885 -1.8099
  150SAPE   H2S16553   1.558   0.728   6.554  1.1530 -0.2511  1.0186
  150SAPE    C316554   1.135   0.385   6.652  0.1247  0.1742 -0.4880
  150SAPE    HX16555   1.194   0.291   6.653 -1.4815 -0.8759  0.1202
  150SAPE    HY16556   1.028   0.365   6.629  0.2252  0.6113 -1.3562
  150SAPE   O3116557   1.159   0.443   6.784  0.1639  0.7209  0.1751
  150SAPE   C3116558   1.066   0.518   6.838  0.9324  0.3239  1.0454
  150SAPE   O3216559   0.962   0.541   6.777 -0.6806 -0.1027  0.2201
  150SAPE   C3216560   1.100   0.582   6.970 -0.4781  0.1345  0.0440
  150SAPE   H2X16561   1.171   0.667   6.958  0.6618 -0.7510  0.3356
  150SAPE   H2Y16562   1.164   0.513   7.030 -0.1615  1.1940  0.9627
  150SAPE   C2316563   1.571   0.556   6.696  0.1121  0.0025  0.3191
  150SAPE   H3R16564   1.669   0.506   6.679  0.3228  0.7681 -0.8830
  150SAPE   H3S16565   1.495   0.481   6.725 -1.3714  0.6148 -1.7763
  150SAPE   C2416566   1.593   0.653   6.810 -0.4842  1.1131  0.2038
  150SAPE   H4R16567   1.487   0.675   6.836 -1.4677 -1.4178 -1.2901
  150SAPE   H4S16568   1.640   0.750   6.782  2.0560 -0.5935 -1.9304
  150SAPE   C2516569   1.677   0.592   6.926 -0.3175  0.1769  0.0065
  150SAPE   H5R16570   1.786   0.589   6.916 -0.3702 -0.4702 -0.4214
  150SAPE   C2616571   1.619   0.534   7.035  0.4150 -0.0698  0.4853
  150SAPE   H6R16572   1.680   0.497   7.119 -0.9307  2.1884  2.5932
  150SAPE   C2716573   1.471   0.507   7.057  1.2314 -0.0877  0.2768
  150SAPE   H7R16574   1.446   0.404   7.090 -0.1963  0.2940  0.4394
  150SAPE   H7S16575   1.424   0.514   6.956 -0.7343 -1.2323  1.0569
  150SAPE   C2816576   1.412   0.610   7.149  0.2603 -0.3168 -0.4155
  150SAPE   H8R16577   1.396   0.711   7.107  1.0773  0.6446  1.4461
  150SAPE   C2916578   1.379   0.593   7.277 -0.0938 -0.4995 -0.3472
  150SAPE   H9R16579   1.343   0.673   7.343 -0.6181  1.1017 -2.4667
  150SAPE  C21016580   1.404   0.468   7.354 -0.1192  0.0603 -0.6307
  150SAPE  H10R16581   1.416   0.495   7.461 -1.3302  1.0805 -0.7209
  150SAPE  H10S16582   1.500   0.419   7.327  0.5014 -0.6003  2.4668
  150SAPE  C21116583   1.302   0.365   7.333 -0.9491 -0.1416  0.1446
  150SAPE  H11R16584   1.313   0.325   7.231  0.5264 -0.7365  0.5208
  150SAPE  C21216585   1.207   0.317   7.418 -0.3588 -0.2348 -0.3521
  150SAPE  H12R16586   1.149   0.229   7.385 -0.5327 -0.4351  0.4554
  150SAPE  C21316587   1.188   0.370   7.559 -0.2552 -0.2516  0.3931
  150SAPE  H13R16588   1.078   0.365   7.574 -0.2151  1.8757  1.7769
  150SAPE  H13S16589   1.231   0.472   7.570 -0.8693  0.0026  0.5026
  150SAPE  C21416590   1.254   0.285   7.665 -0.0471  0.3057  0.1409
  150SAPE  H14R16591   1.337   0.222   7.632 -1.8373 -4.3168  3.3166
  150SAPE  C21516592   1.222   0.290   7.797  0.6204  0.7845  0.0140
  150SAPE  H15R16593   1.277   0.219   7.862 -2.3958 -0.1647  1.7352
  150SAPE  C21616594   1.122   0.385   7.857 -0.6413  0.1061  0.2831
  150SAPE  H16R16595   1.044   0.427   7.790 -0.8011 -0.9319 -0.1921
  150SAPE  H16S16596   1.180   0.474   7.891  1.1900 -1.9322  3.0069
  150SAPE  C21716597   1.040   0.342   7.979  0.4645  0.7504  0.6111
  150SAPE  H17R16598   0.992   0.248   7.946  1.3293  0.9453 -1.3945
  150SAPE  H17S16599   0.966   0.422   8.002  1.0987  2.7523 -3.3213
  150SAPE  C21816600   1.118   0.297   8.102  0.0437  0.3689  0.2221
  150SAPE  H18R16601   1.149   0.383   8.166  0.2891  0.6907 -0.3312
  150SAPE  H18S16602   1.202   0.226   8.083  1.1147  1.6311  0.1149
  150SAPE  C21916603   1.021   0.221   8.202 -0.1007  0.2923 -0.0824
  150SAPE  H19R16604   0.966   0.141   8.147 -1.6091  1.5937 -0.5535
  150SAPE  H19S16605   0.945   0.289   8.246 -0.9576  0.4620 -1.7484
  150SAPE  C22016606   1.090   0.140   8.317  0.4174  0.1306 -0.5215
  150SAPE  H20R16607   1.138   0.046   8.284 -0.2647  0.0327 -1.2677
  150SAPE  H20S16608   1.008   0.110   8.386 -0.1785  0.6638 -0.9865
  150SAPE  H20T16609   1.172   0.194   8.369  1.5800 -2.1783  0.1540
  150SAPE   C3316610   0.976   0.624   7.055 -0.5604 -0.1393  0.8881
  150SAPE   H3X16611   0.893   0.551   7.051 -2.1336  1.5735  0.6473
  150SAPE   H3Y16612   0.939   0.716   7.003 -2.0185 -2.0281 -1.6627
  150SAPE   C3416613   1.005   0.641   7.207  0.3422 -0.7495  0.2601
  150SAPE   H4X16614   1.088   0.715   7.204  1.2895 -1.8003 -0.3061
  150SAPE   H4Y16615   1.050   0.546   7.245  0.6499 -0.3449  0.9234
  150SAPE   C3516616   0.890   0.691   7.293  0.0859  0.0089  0.3681
  150SAPE   H5X16617   0.831   0.603   7.329  1.7093 -0.8946  0.9275
  150SAPE   H5Y16618   0.833   0.761   7.229  1.7142  1.7196  0.6893
  150SAPE   C3616619   0.944   0.766   7.415 -0.3888 -0.5988  0.0318
  150SAPE   H6X16620   0.872   0.848   7.437  0.7402  0.2596  0.6867
  150SAPE   H6Y16621   1.045   0.809   7.397 -1.1887  1.3075 -0.1810
  150SAPE   C3716622   0.945   0.685   7.550  0.3952 -0.0035  0.5610
  150SAPE   H7X16623   1.000   0.594   7.518 -0.4335  0.1602 -1.5520
  150SAPE   H7Y16624   0.843   0.656   7.584  0.6972 -0.0597  1.4425
  150SAPE   C3816625   1.026   0.758   7.664  0.6656 -0.4969 -0.1765
  150SAPE   H8X16626   1.028   0.693   7.754 -1.3687 -1.4614 -0.7639
  150SAPE   H8Y16627   0.976   0.853   7.694  1.2200 -0.1371 -0.3687
  150SAPE   C3916628   1.176   0.788   7.634  0.5568  0.6521 -0.4404
  150SAPE   H9X16629   1.168   0.871   7.561  0.3374  0.7007 -0.3612
  150SAPE   H9Y16630   1.227   0.696   7.597 -1.2292 -1.3602  1.7466
  150SAPE  C31016631   1.251   0.846   7.755 -0.0143  0.1328 -0.3464
  150SAPE  H10X16632   1.268   0.766   7.830  0.1689  0.3996 -0.0974
  150SAPE  H10Y16633   1.196   0.925   7.811 -2.0828 -0.7222 -1.0690
  150SAPE  C31116634   1.382   0.906   7.725 -0.4372 -0.4090 -0.6807
  150SAPE  H11X16635   1.376   0.971   7.636 -0.4339  4.2177  2.3412
  150SAPE  H11Y16636   1.452   0.820   7.720 -0.8212 -0.7551 -0.2104
  150SAPE  C31216637   1.449   0.995   7.840  0.5446 -0.9211 -0.1490
  150SAPE  H12X16638   1.408   1.098   7.831 -3.2024 -2.1509  1.2678
  150SAPE  H12Y16639   1.557   0.993   7.812  0.4087 -1.2993 -0.6635
  150SAPE  C31316640   1.447   0.944   7.990  0.4687 -0.6797  0.0097
  150SAPE  H13X16641   1.492   0.843   7.998 -0.2537 -0.9574  0.7071
  150SAPE  H13Y16642   1.340   0.935   8.019  0.4965 -0.2208  0.2634
  150SAPE  C31416643   1.511   1.042   8.096 -0.2287  0.5112  0.7975
  150SAPE  H14X16644   1.467   1.143   8.087 -0.3802  0.3148 -1.1343
  150SAPE  H14Y16645   1.617   1.044   8.063 -0.4951  0.1938 -0.1356
  150SAPE  C31516646   1.488   1.010   8.247 -0.9751  1.1221 -0.4609
  150SAPE  H15X16647   1.563   1.071   8.301 -1.0937  0.2794  0.7006
  150SAPE  H15Y16648   1.522   0.910   8.282  1.5930  1.8778 -0.5549
  150SAPE  C31616649   1.350   1.032   8.309 -0.0548 -0.0349 -0.5185
  150SAPE  H16X16650   1.272   0.977   8.251  1.0329 -1.4921 -0.6372
  150SAPE  H16Y16651   1.335   1.139   8.285 -0.4666 -0.4436 -2.2065
  150SAPE  C31716652   1.338   1.015   8.459 -0.2026 -0.1996 -0.3601
  150SAPE  H17X16653   1.436   1.036   8.509 -0.2872  1.5135 -0.8531
  150SAPE  H17Y16654   1.326   0.906   8.470 -1.6902 -0.0734 -0.6034
  150SAPE  C31816655   1.210   1.081   8.517  0.2781  0.0105  0.7710
  150SAPE  H18X16656   1.233   1.100   8.624 -1.4926 -0.6144  1.2956
  150SAPE  H18Y16657   1.118   1.022   8.498  0.2014  0.2448  0.4112
  150SAPE  H18Z16658   1.193   1.181   8.473  1.1513  0.6200  1.7729
  151SAPE     N16659   4.318   0.672   6.253  0.0022 -0.7149  0.0561
  151SAPE   HN116660   4.362   0.647   6.162 -2.0266  0.6731 -1.3875
  151SAPE   HN216661   4.218   0.655   6.232 -0.2361  1.1766 -0.5394
  151SAPE   HN316662   4.327   0.772   6.282 -0.1135 -0.7392  0.1762
  151SAPE   C1216663   4.372   0.587   6.360 -0.0215 -0.5593  0.2964
  151SAPE  H12A16664   4.385   0.482   6.326  0.0076 -1.1563  2.0712
  151SAPE  H12B16665   4.306   0.592   6.449 -0.9383  0.9126 -0.4230
  151SAPE   C1116666   4.512   0.642   6.403  0.1368  0.0955 -0.4371
  151SAPE  H11A16667   4.581   0.642   6.316 -0.2765 -0.0875 -0.7686
  151SAPE  H11B16668   4.550   0.570   6.478 -1.1732 -0.8889 -0.6973
  151SAPE     P16669   4.609   0.890   6.437  1.0686  0.1437 -0.2060
  151SAPE   O1316670   4.667   0.874   6.299  0.4280 -0.0155 -0.5850
  151SAPE   O1416671   4.551   1.020   6.467  0.0893 -0.5381 -0.0462
  151SAPE   O1216672   4.502   0.773   6.462 -0.2726  0.4124  0.4744
  151SAPE   O1116673   4.715   0.852   6.550  0.2619  0.7485  0.1653
  151SAPE    C116674   4.790   0.952   6.633  0.4801 -0.2709  1.0439
  151SAPE    HA16675   4.837   1.024   6.563 -2.5844  0.5907 -0.3199
  151SAPE    HB16676   4.723   1.012   6.698 -0.0447  0.7744 -0.3832
  151SAPE    C216677   4.914   0.900   6.706  1.2134  0.0608  1.4689
  151SAPE    HS16678   4.982   0.868   6.625  0.1288  0.6775  0.2877
  151SAPE   O2116679   4.880   0.785   6.783 -1.1096 -0.4364 -0.4352
  151SAPE   C2116680   4.875   0.662   6.733  0.3573 -0.0651 -0.3639
  151SAPE   O2216681   4.921   0.627   6.627 -0.2660 -0.3101 -0.1311
  151SAPE   C2216682   4.791   0.570   6.825  0.1597  0.3208  0.2787
  151SAPE   H2R16683   4.840   0.557   6.923 -1.7769 -2.3695  0.9901
  151SAPE   H2S16684   4.693   0.619   6.846 -0.4930 -1.6464  2.1568
  151SAPE    C316685   4.983   1.002   6.797 -0.2704  0.3024 -0.0694
  151SAPE    HX16686   5.075   0.960   6.844 -0.1814 -1.3792 -1.6588
  151SAPE    HY16687   4.904   1.020   6.874 -0.5912 -0.9583 -0.0810
  151SAPE   O3116688   5.023   1.124   6.742 -0.5337  0.3300 -0.2701
  151SAPE   C3116689   5.045   1.223   6.832 -0.8492  0.3564  0.2298
  151SAPE   O3216690   5.028   1.204   6.955 -0.4801 -0.0145 -0.3342
  151SAPE   C3216691   5.113   1.345   6.770  0.4213 -0.2976 -0.0529
  151SAPE   H2X16692   5.034   1.395   6.710 -1.0189 -1.3341  0.8968
  151SAPE   H2Y16693   5.208   1.315   6.722  1.0184  0.7919  0.4045
  151SAPE   C2316694   4.767   0.419   6.775  0.4077 -0.4353 -0.2553
  151SAPE   H3R16695   4.864   0.373   6.747  2.8497  4.3256 -0.6285
  151SAPE   H3S16696   4.715   0.411   6.677  1.0250 -1.3631 -0.5197
  151SAPE   C2416697   4.689   0.336   6.877 -0.8860 -0.3588  0.5444
  151SAPE   H4R16698   4.659   0.256   6.806  0.0565  1.0197 -1.5156
  151SAPE   H4S16699   4.599   0.388   6.919 -0.1271  0.9650  0.5947
  151SAPE   C2516700   4.780   0.286   6.986 -0.5619 -0.1323 -0.3071
  151SAPE   H5R16701   4.855   0.219   6.941  1.3291  2.5234 -1.3855
  151SAPE   C2616702   4.796   0.327   7.111 -0.1652  0.5320  0.2587
  151SAPE   H6R16703   4.864   0.272   7.178  1.3179  2.4156  0.4014
  151SAPE   C2716704   4.725   0.447   7.172  0.2781  0.5689 -0.2404
  151SAPE   H7R16705   4.684   0.515   7.094  1.6411  1.4233 -0.2405
  151SAPE   H7S16706   4.807   0.508   7.215 -0.1465  0.8318  0.2090
  151SAPE   C2816707   4.627   0.411   7.275  0.5414  0.1484 -0.6629
  151SAPE   H8R16708   4.520   0.415   7.249  0.6171 -0.9398 -1.1680
  151SAPE   C2916709   4.661   0.391   7.412 -0.3615  0.6980  0.2092
  151SAPE   H9R16710   4.575   0.355   7.470  0.0027 -3.3629 -1.3909
  151SAPE  C21016711   4.791   0.399   7.475 -0.4307  0.2592  0.4265
  151SAPE  H10R16712   4.803   0.488   7.541  0.0971 -0.0047  0.6993
  151SAPE  H10S16713   4.870   0.416   7.399  0.9013  1.7470  2.0426
  151SAPE  C21116714   4.832   0.268   7.547  0.0238 -0.3474 -0.5661
  151SAPE  H11R16715   4.853   0.191   7.472 -1.0866 -0.7786 -0.4618
  151SAPE  C21216716   4.832   0.243   7.678  0.5294  0.2323 -0.7299
  151SAPE  H12R16717   4.847   0.139   7.711  0.1324  0.0832 -1.0074
  151SAPE  C21316718   4.789   0.341   7.786  0.1673 -0.0022 -0.0430
  151SAPE  H13R16719   4.821   0.442   7.754  2.0680  0.1521  2.1256
  151SAPE  H13S16720   4.849   0.328   7.878 -0.4964 -0.9639  0.2703
  151SAPE  C21416721   4.640   0.316   7.816  0.3548  0.3598  0.3900
  151SAPE  H14R16722   4.571   0.343   7.735  1.4332  0.1269 -0.6384
  151SAPE  C21516723   4.598   0.262   7.933 -0.0878  0.3818  0.6589
  151SAPE  H15R16724   4.491   0.243   7.954 -0.4677  3.1716  1.5793
  151SAPE  C21616725   4.682   0.230   8.053 -1.0235  0.7711  0.1497
  151SAPE  H16R16726   4.780   0.282   8.051  0.1287 -0.8852  3.9421
  151SAPE  H16S16727   4.705   0.122   8.066 -2.3347  0.5308  0.5261
  151SAPE  C21716728   4.612   0.258   8.191 -0.5403  0.7564 -0.4249
  151SAPE  H17R16729   4.552   0.165   8.203 -0.2737  0.6708  0.2830
  151SAPE  H17S16730   4.544   0.345   8.183 -2.1184 -0.2824  0.9414
  151SAPE  C21816731   4.701   0.262   8.322 -0.2502  0.5819  0.1750
  151SAPE  H18R16732   4.770   0.175   8.331  0.4607  1.3302  2.9303
  151SAPE  H18S16733   4.624   0.260   8.402 -0.1404  2.4927  0.3617
  151SAPE  C21916734   4.791   0.387   8.335 -0.0282  0.1924 -0.4525
  151SAPE  H19R16735   4.729   0.476   8.311  1.7859  1.2305 -1.5978
  151SAPE  H19S16736   4.872   0.390   8.258 -0.2864 -2.2803 -0.8933
  151SAPE  C22016737   4.852   0.398   8.481 -0.4086  0.3922 -0.1033
  151SAPE  H20R16738   4.885   0.297   8.511  2.5774  1.5363  0.8869
  151SAPE  H20S16739   4.940   0.464   8.497 -0.7986  1.2022 -1.1548
  151SAPE  H20T16740   4.764   0.425   8.543 -0.2952  0.9518 -0.1768
  151SAPE   C3316741   5.145   1.464   6.872  0.2949  0.5345 -0.0440
  151SAPE   H3X16742   5.058   1.504   6.929  1.6654 -0.6198  3.0879
  151SAPE   H3Y16743   5.173   1.542   6.798  1.1363 -1.3672 -1.8239
  151SAPE   C3416744   5.266   1.435   6.960 -0.3636 -0.0847  0.0054
  151SAPE   H4X16745   5.336   1.381   6.893  0.1931 -0.0471  0.5473
  151SAPE   H4Y16746   5.247   1.356   7.035  0.5468  2.1249  2.7562
  151SAPE   C3516747   5.330   1.558   7.024 -1.0463 -0.3752 -0.1981
  151SAPE   H5X16748   5.246   1.618   7.067 -2.0562 -2.4528  0.8605
  151SAPE   H5Y16749   5.385   1.622   6.950  0.2325 -0.3094  0.7720
  151SAPE   C3616750   5.416   1.534   7.153 -0.7068  0.1907  0.0522
  151SAPE   H6X16751   5.491   1.453   7.137 -2.3134 -1.1270 -1.2586
  151SAPE   H6Y16752   5.349   1.471   7.215  0.2889 -0.4182  0.5338
  151SAPE   C3716753   5.464   1.665   7.217  0.0339 -0.0138  0.1552
  151SAPE   H7X16754   5.373   1.729   7.209  0.0413  0.0480  0.5645
  151SAPE   H7Y16755   5.540   1.707   7.148 -0.5453 -0.1160 -0.5654
  151SAPE   C3816756   5.507   1.640   7.360 -0.1854  0.1445  0.0228
  151SAPE   H8X16757   5.603   1.585   7.353 -1.2125 -1.5938 -0.9116
  151SAPE   H8Y16758   5.424   1.578   7.401  0.1521 -0.7093 -0.5818
  151SAPE   C3916759   5.513   1.759   7.455 -0.0379  0.3794 -0.3640
  151SAPE   H9X16760   5.406   1.788   7.467  0.0047  1.2542 -1.9312
  151SAPE   H9Y16761   5.556   1.847   7.403  0.6369  0.0229 -0.4158
  151SAPE  C31016762   5.587   1.746   7.595 -0.0990 -0.2515  0.3128
  151SAPE  H10X16763   5.561   1.645   7.634  0.3289 -0.3196  0.4271
  151SAPE  H10Y16764   5.561   1.822   7.671 -4.2604 -1.4829  0.3457
  151SAPE  C31116765   5.735   1.770   7.573 -0.0512  0.3535 -0.1057
  151SAPE  H11X16766   5.761   1.871   7.534 -0.1339  0.3042 -0.2880
  151SAPE  H11Y16767   5.760   1.698   7.492 -0.0535 -1.1848  1.2049
  151SAPE  C31216768   5.821   1.727   7.700  0.1878 -0.1630  0.1103
  151SAPE  H12X16769   5.793   1.794   7.784  1.7822  1.7004 -0.7566
  151SAPE  H12Y16770   5.924   1.754   7.670  0.3835 -1.8629 -0.9118
  151SAPE  C31316771   5.821   1.579   7.740  0.5771 -0.3933  0.3589
  151SAPE  H13X16772   5.838   1.521   7.646  6.3014  1.4949 -0.2090
  151SAPE  H13Y16773   5.730   1.548   7.795  0.1927  0.6635  0.3285
  151SAPE  C31416774   5.935   1.553   7.842  0.2895  0.3479 -0.0715
  151SAPE  H14X16775   5.938   1.602   7.941 -1.3858  1.0400 -0.3419
  151SAPE  H14Y16776   6.035   1.575   7.799 -0.1970  3.2636  0.1479
  151SAPE  C31516777   5.939   1.402   7.873 -0.2178  0.8675 -0.3191
  151SAPE  H15X16778   5.935   1.344   7.779 -2.6550 -3.5720  2.1870
  151SAPE  H15Y16779   5.843   1.378   7.925  1.1106 -0.1937  1.7869
  151SAPE  C31616780   6.046   1.347   7.960 -0.4506  0.1394  0.3204
  151SAPE  H16X16781   6.042   1.395   8.060  2.5392  1.3623 -0.0329
  151SAPE  H16Y16782   6.146   1.372   7.918 -1.5890  2.1018 -1.3927
  151SAPE  C31716783   6.030   1.203   7.984  0.0024 -0.0544 -0.6270
  151SAPE  H17X16784   6.128   1.161   8.017  0.0189 -0.1279 -0.7660
  151SAPE  H17Y16785   6.008   1.156   7.886 -0.2148  1.8371 -1.5156
  151SAPE  C31816786   5.923   1.163   8.087 -0.2346  0.0882  0.2987
  151SAPE  H18X16787   5.822   1.170   8.041  0.4183  2.0452 -0.9744
  151SAPE  H18Y16788   5.916   1.238   8.169 -0.9273 -0.5761  0.8655
  151SAPE  H18Z16789   5.927   1.060   8.128 -1.7325 -0.4167 -0.7126
  152SAPE     N16790   2.497   2.102   6.377 -0.2619  0.5609 -0.5206
  152SAPE   HN116791   2.527   2.175   6.309 -0.9223  1.7934  0.4745
  152SAPE   HN216792   2.423   2.135   6.442  0.3707  1.3994 -0.2059
  152SAPE   HN316793   2.583   2.078   6.432 -0.0469  1.2265 -0.5609
  152SAPE   C1216794   2.453   1.988   6.296 -0.4144 -0.2649 -0.0561
  152SAPE  H12A16795   2.527   1.960   6.219  0.5506 -0.4287  0.8991
  152SAPE  H12B16796   2.360   2.017   6.243  1.1639  1.7707 -1.8683
  152SAPE   C1116797   2.425   1.866   6.381  0.2637 -0.7987 -0.0737
  152SAPE  H11A16798   2.515   1.830   6.435 -0.1432 -0.2258  1.0210
  152SAPE  H11B16799   2.402   1.775   6.320  0.2255 -1.0189  0.2656
  152SAPE     P16800   2.173   1.847   6.442  0.2231 -0.3434 -0.0060
  152SAPE   O1316801   2.145   1.908   6.313 -0.2476 -0.8747  0.5946
  152SAPE   O1416802   2.165   1.703   6.450  0.0700 -0.6271 -0.5342
  152SAPE   O1216803   2.326   1.888   6.483 -0.0275 -0.2014 -0.0497
  152SAPE   O1116804   2.087   1.905   6.560  0.2105  0.0083  0.1718
  152SAPE    C116805   2.154   1.962   6.677 -0.2277 -0.4755  0.0618
  152SAPE    HA16806   2.172   1.880   6.751 -3.0245 -1.5850 -0.3538
  152SAPE    HB16807   2.249   2.016   6.657 -0.4218  0.0621  0.5700
  152SAPE    C216808   2.062   2.061   6.763 -0.2105  0.4958 -0.8248
  152SAPE    HS16809   2.086   2.160   6.719  0.8385  1.9412  2.6723
  152SAPE   O2116810   2.102   2.057   6.902  0.6961 -0.2299  0.5609
  152SAPE   C2116811   2.222   2.106   6.934 -0.9105  0.2048  0.2176
  152SAPE   O2216812   2.292   2.171   6.858  0.3926  0.0712 -0.0622
  152SAPE   C2216813   2.262   2.054   7.075 -0.4856 -0.2701  0.1913
  152SAPE   H2R16814   2.292   2.143   7.134  1.8713 -1.8710  1.5893
  152SAPE   H2S16815   2.175   2.000   7.120 -0.9142  1.4172  1.4748
  152SAPE    C316816   1.910   2.031   6.751 -0.3112 -0.0153  0.0094
  152SAPE    HX16817   1.896   1.926   6.784 -1.3394  0.2212  0.3678
  152SAPE    HY16818   1.895   2.048   6.642  1.4541  2.0203  0.0147
  152SAPE   O3116819   1.832   2.130   6.824  0.1466 -0.3807  0.2248
  152SAPE   C3116820   1.725   2.091   6.891  0.1672 -0.5669 -0.4620
  152SAPE   O3216821   1.690   1.974   6.888  0.4608  0.9464 -0.0231
  152SAPE   C3216822   1.657   2.209   6.963  0.1359  0.4013  0.3730
  152SAPE   H2X16823   1.565   2.235   6.905 -0.4083 -0.3051  0.8927
  152SAPE   H2Y16824   1.728   2.294   6.972  0.9074 -0.1958  0.0618
  152SAPE   C2316825   2.391   1.966   7.076  0.1421  1.0628  0.3377
  152SAPE   H3R16826   2.473   2.010   7.015 -0.8086  2.6869  0.1609
  152SAPE   H3S16827   2.367   1.869   7.027  4.6021  0.5788 -1.3151
  152SAPE   C2416828   2.439   1.933   7.216 -0.2697 -0.3643  0.1100
  152SAPE   H4R16829   2.467   2.032   7.258  0.2233  0.7748 -2.6645
  152SAPE   H4S16830   2.533   1.873   7.214 -0.2699 -0.4246  1.1995
  152SAPE   C2516831   2.332   1.875   7.299 -0.3156  0.5575 -0.5182
  152SAPE   H5R16832   2.249   1.842   7.234 -0.6101  1.7312 -0.7517
  152SAPE   C2616833   2.338   1.841   7.430 -0.4957 -0.4116  1.1133
  152SAPE   H6R16834   2.247   1.803   7.480 -0.4291  0.6351  2.0722
  152SAPE   C2716835   2.441   1.861   7.537  0.9244  0.0317  0.4495
  152SAPE   H7R16836   2.450   1.971   7.552 -0.4207  0.1363  0.6544
  152SAPE   H7S16837   2.537   1.821   7.500  1.2445  0.6001  0.6609
  152SAPE   C2816838   2.421   1.803   7.674 -0.4722  0.3576 -0.0982
  152SAPE   H8R16839   2.317   1.781   7.704  0.0640 -1.0319  0.9009
  152SAPE   C2916840   2.519   1.791   7.767  0.7458 -0.2551 -0.5184
  152SAPE   H9R16841   2.485   1.749   7.863 -0.0119  2.5130  0.5039
  152SAPE  C21016842   2.665   1.825   7.742 -0.4676 -0.6225  0.3027
  152SAPE  H10R16843   2.713   1.853   7.839  0.6240  1.6908 -0.8048
  152SAPE  H10S16844   2.677   1.916   7.680 -1.0468 -1.1530 -0.5942
  152SAPE  C21116845   2.739   1.711   7.669  0.1951  0.1584 -0.4727
  152SAPE  H11R16846   2.713   1.690   7.564 -0.2438 -2.1913  0.0365
  152SAPE  C21216847   2.819   1.624   7.734 -0.0666  0.0671 -0.2961
  152SAPE  H12R16848   2.864   1.540   7.679  2.2061  0.9594  0.1288
  152SAPE  C21316849   2.864   1.634   7.876  0.1049 -0.2530 -0.1778
  152SAPE  H13R16850   2.893   1.529   7.898 -1.0768 -0.3723  0.8944
  152SAPE  H13S16851   2.780   1.652   7.945 -0.9736  0.1882 -1.5645
  152SAPE  C21416852   2.973   1.735   7.911 -0.1171  0.2871 -0.1070
  152SAPE  H14R16853   3.032   1.761   7.823  0.3057 -1.0386 -0.2411
  152SAPE  C21516854   3.008   1.783   8.035  0.4124 -0.0104 -0.3502
  152SAPE  H15R16855   3.099   1.843   8.053  0.6812  0.1955 -2.1362
  152SAPE  C21616856   2.944   1.747   8.169  0.2746  0.0530 -0.0302
  152SAPE  H16R16857   3.021   1.699   8.233 -0.1815 -1.7516 -0.7624
  152SAPE  H16S16858   2.862   1.678   8.141 -1.0315  0.8676  1.6155
  152SAPE  C21716859   2.886   1.857   8.256  0.7660  0.3132  0.4329
  152SAPE  H17R16860   2.805   1.916   8.208  0.4314  0.4710  1.1887
  152SAPE  H17S16861   2.962   1.935   8.279  0.9151  0.7308 -1.3167
  152SAPE  C21816862   2.827   1.806   8.391 -0.0640 -0.7339 -0.0089
  152SAPE  H18R16863   2.808   1.890   8.461 -1.0073 -0.3676 -0.6875
  152SAPE  H18S16864   2.914   1.750   8.433  1.2788  0.6282 -0.8858
  152SAPE  C21916865   2.699   1.731   8.374  0.3671 -0.1482  0.5646
  152SAPE  H19R16866   2.699   1.650   8.298  0.1955 -0.8732  1.3221
  152SAPE  H19S16867   2.633   1.804   8.322 -1.2644  0.9721  3.9518
  152SAPE  C22016868   2.625   1.697   8.500 -0.1898  0.0709 -0.1924
  152SAPE  H20R16869   2.668   1.612   8.556 -0.7652  1.4451  2.5222
  152SAPE  H20S16870   2.528   1.655   8.465  1.0038 -0.4716 -3.1902
  152SAPE  H20T16871   2.613   1.783   8.570 -0.3424 -1.7863  2.1696
  152SAPE   C3316872   1.616   2.152   7.105 -0.0123  0.0328 -0.0727
  152SAPE   H3X16873   1.710   2.123   7.156  0.8280  3.1754  0.3554
  152SAPE   H3Y16874   1.560   2.056   7.097 -0.0124 -0.0741  1.0796
  152SAPE   C3416875   1.539   2.250   7.192 -0.3590 -0.5657  0.0436
  152SAPE   H4X16876   1.460   2.292   7.126  0.6425  1.9504  0.3714
  152SAPE   H4Y16877   1.603   2.335   7.223 -2.0043 -0.0640  2.2967
  152SAPE   C3516878   1.476   2.197   7.318  0.3999  0.0458 -0.8085
  152SAPE   H5X16879   1.398   2.123   7.289  1.3544 -0.7535 -1.3974
  152SAPE   H5Y16880   1.439   2.284   7.377  0.8426 -2.2763  3.2848
  152SAPE   C3616881   1.578   2.130   7.422 -0.0567 -0.3943 -0.1626
  152SAPE   H6X16882   1.670   2.192   7.429 -0.3669  0.4662 -2.6248
  152SAPE   H6Y16883   1.606   2.034   7.375  1.9826  0.7914 -1.5227
  152SAPE   C3716884   1.531   2.101   7.565 -0.0403  0.0074 -0.0409
  152SAPE   H7X16885   1.450   2.026   7.570 -0.2030  0.2308  0.8788
  152SAPE   H7Y16886   1.484   2.194   7.603 -0.9567 -0.8304  0.9563
  152SAPE   C3816887   1.630   2.043   7.664 -0.4806 -0.3439 -0.7514
  152SAPE   H8X16888   1.719   2.109   7.667 -2.4566  2.5575  3.0342
  152SAPE   H8Y16889   1.655   1.937   7.640 -0.9360 -0.4729 -0.6762
  152SAPE   C3916890   1.582   2.065   7.809 -0.4857 -0.2238  0.6419
  152SAPE   H9X16891   1.503   2.001   7.853 -2.6156  2.8105  1.5671
  152SAPE   H9Y16892   1.530   2.164   7.806 -0.7370 -0.3054  1.9530
  152SAPE  C31016893   1.695   2.069   7.919  0.8457 -0.4685  0.3619
  152SAPE  H10X16894   1.772   2.140   7.882 -0.5596  1.2083  0.5021
  152SAPE  H10Y16895   1.741   1.968   7.920  1.3946 -0.2727  2.8585
  152SAPE  C31116896   1.649   2.115   8.056  1.3231  0.0687 -0.5880
  152SAPE  H11X16897   1.565   2.188   8.057  0.6451 -0.6882 -1.0269
  152SAPE  H11Y16898   1.732   2.176   8.096 -1.4032  2.1829  2.4327
  152SAPE  C31216899   1.603   1.995   8.147 -0.1492 -0.1890 -0.2085
  152SAPE  H12X16900   1.694   1.933   8.157  0.5041  0.9415  1.2570
  152SAPE  H12Y16901   1.526   1.938   8.090 -1.4723  0.5286  0.8083
  152SAPE  C31316902   1.551   2.030   8.280  0.3999  0.2800  0.0487
  152SAPE  H13X16903   1.465   2.098   8.257  0.9326  0.7248 -0.6818
  152SAPE  H13Y16904   1.632   2.069   8.345 -0.5247  0.8688  0.8926
  152SAPE  C31416905   1.480   1.907   8.336  0.4079  0.2884 -0.2229
  152SAPE  H14X16906   1.552   1.826   8.360 -1.5243 -1.6497 -0.6041
  152SAPE  H14Y16907   1.404   1.873   8.263 -0.2740  0.4445  0.3983
  152SAPE  C31516908   1.420   1.928   8.481 -0.1908  0.2684 -0.0608
  152SAPE  H15X16909   1.375   1.832   8.515 -0.2776  1.4591  3.5396
  152SAPE  H15Y16910   1.340   2.002   8.460 -1.8003 -1.3144  0.1663
  152SAPE  C31616911   1.518   1.989   8.586 -0.2075 -0.4019 -0.6660
  152SAPE  H16X16912   1.554   2.087   8.548  0.0477 -0.4188 -0.4678
  152SAPE  H16Y16913   1.602   1.917   8.592 -0.4903 -0.7009 -0.2290
  152SAPE  C31716914   1.449   2.013   8.723  0.0115  0.1158 -0.1955
  152SAPE  H17X16915   1.420   1.916   8.769 -0.6794  0.5933  0.3808
  152SAPE  H17Y16916   1.355   2.066   8.696 -0.5525 -0.7662  0.0038
  152SAPE  C31816917   1.536   2.089   8.819 -0.3117  0.6408 -0.0023
  152SAPE  H18X16918   1.472   2.145   8.890 -0.2745  0.8088 -0.0974
  152SAPE  H18Y16919   1.600   2.167   8.772  0.1488 -0.1730 -0.7586
  152SAPE  H18Z16920   1.601   2.015   8.870 -0.0848 -0.3352 -1.6174
  153SAPE     N16921   3.310   3.949   6.552  0.0456  0.3804  0.4449
  153SAPE   HN116922   3.248   3.977   6.630  0.1411  2.3604 -0.1372
  153SAPE   HN216923   3.333   3.847   6.554 -0.4830  0.2522  2.9832
  153SAPE   HN316924   3.403   3.994   6.568 -0.1190  0.9461 -0.1548
  153SAPE   C1216925   3.256   3.990   6.420 -0.8017 -0.3738 -0.0417
  153SAPE  H12A16926   3.211   4.091   6.428 -1.5688 -0.5548 -1.5511
  153SAPE  H12B16927   3.189   3.912   6.376 -1.5560 -0.0351  0.4894
  153SAPE   C1116928   3.362   3.989   6.308 -0.3631  0.3423 -0.3789
  153SAPE  H11A16929   3.415   4.084   6.331 -0.9077  0.4871  0.3020
  153SAPE  H11B16930   3.328   3.995   6.202  1.3054  0.5678 -0.9290
  153SAPE     P16931   3.413   3.728   6.294 -0.4075  0.1037 -0.0727
  153SAPE   O1316932   3.304   3.731   6.189  0.7154 -0.5679 -0.0579
  153SAPE   O1416933   3.536   3.646   6.277  0.2204  0.1384 -0.2895
  153SAPE   O1216934   3.454   3.877   6.323 -0.1014  0.0363 -0.2063
  153SAPE   O1116935   3.340   3.691   6.427  0.0137 -0.4927  0.4492
  153SAPE    C116936   3.337   3.548   6.470  0.9712  0.6012 -0.3651
  153SAPE    HA16937   3.230   3.523   6.490  1.0350 -0.2464 -1.0272
  153SAPE    HB16938   3.375   3.481   6.390 -0.8221 -0.8599 -0.0758
  153SAPE    C216939   3.420   3.526   6.602  0.2197  0.1523  0.6583
  153SAPE    HS16940   3.424   3.420   6.635  1.0932 -0.1757 -0.4377
  153SAPE   O2116941   3.364   3.608   6.704  0.1556  0.1228 -0.4688
  153SAPE   C2116942   3.255   3.557   6.766  0.2484 -0.4775  1.0257
  153SAPE   O2216943   3.191   3.461   6.728  0.1978 -0.2743 -0.5399
  153SAPE   C2216944   3.224   3.632   6.895  0.4162 -0.4533 -0.9965
  153SAPE   H2R16945   3.290   3.721   6.900  0.5512 -0.5451 -1.1041
  153SAPE   H2S16946   3.118   3.661   6.882 -0.0244 -0.2869  2.2853
  153SAPE    C316947   3.572   3.556   6.582 -0.6988  1.1523  0.4613
  153SAPE    HX16948   3.579   3.660   6.542 -0.3154  0.1790 -2.1904
  153SAPE    HY16949   3.614   3.499   6.497 -1.4109  0.9889  0.2106
  153SAPE   O3116950   3.652   3.526   6.702 -0.0711 -0.2158 -0.9845
  153SAPE   C3116951   3.686   3.633   6.780  0.2435 -0.3327 -0.0590
  153SAPE   O3216952   3.651   3.748   6.761  0.0106  0.3933 -0.1350
  153SAPE   C3216953   3.773   3.589   6.898  0.1502  0.2498  0.4500
  153SAPE   H2X16954   3.837   3.505   6.863 -1.4148 -0.2802 -1.2785
  153SAPE   H2Y16955   3.703   3.544   6.971  0.1440 -0.2815  0.1196
  153SAPE   C2316956   3.228   3.543   7.022 -0.7258  0.1162  0.2171
  153SAPE   H3R16957   3.167   3.452   7.003 -0.2024  0.2304 -2.2214
  153SAPE   H3S16958   3.184   3.593   7.111  0.7027  0.1006  0.9665
  153SAPE   C2416959   3.376   3.491   7.050 -0.0164 -0.0657 -0.5886
  153SAPE   H4R16960   3.422   3.480   6.949  0.2278 -0.3348 -0.4494
  153SAPE   H4S16961   3.364   3.389   7.091 -1.1787 -0.1111 -1.0069
  153SAPE   C2516962   3.459   3.585   7.130  0.2874 -0.4856 -0.0360
  153SAPE   H5R16963   3.488   3.676   7.074  1.5505 -0.7920  0.0878
  153SAPE   C2616964   3.513   3.576   7.253  0.0793  0.4540 -0.2559
  153SAPE   H6R16965   3.589   3.649   7.285  0.5726 -0.7854  1.5168
  153SAPE   C2716966   3.497   3.464   7.348 -0.1083  1.1566  0.7587
  153SAPE   H7R16967   3.595   3.428   7.387 -0.5778  0.4914  1.3474
  153SAPE   H7S16968   3.457   3.367   7.309  0.4973  0.6196  1.4373
  153SAPE   C2816969   3.402   3.504   7.462  0.0002  0.0375 -0.2375
  153SAPE   H8R16970   3.297   3.513   7.430 -0.1366 -0.3833  0.0852
  153SAPE   C2916971   3.422   3.543   7.596 -0.3673 -0.0124  0.3244
  153SAPE   H9R16972   3.335   3.571   7.657 -1.0614 -0.5280 -0.4134
  153SAPE  C21016973   3.558   3.558   7.660  0.1226 -0.0043  0.2421
  153SAPE  H10R16974   3.579   3.666   7.652 -3.6820  0.8222 -0.9006
  153SAPE  H10S16975   3.639   3.507   7.604  0.6794  0.9864  0.1302
  153SAPE  C21116976   3.562   3.519   7.806 -0.1921 -0.0357 -0.0896
  153SAPE  H11R16977   3.568   3.410   7.823  2.5412  0.2033  1.0250
  153SAPE  C21216978   3.563   3.597   7.916  0.4783  0.4832  0.3358
  153SAPE  H12R16979   3.554   3.550   8.015 -0.2974 -1.5775 -0.6556
  153SAPE  C21316980   3.560   3.752   7.923  0.3156  0.5625 -0.0511
  153SAPE  H13R16981   3.462   3.803   7.939 -0.0698 -0.2259  0.1405
  153SAPE  H13S16982   3.583   3.794   7.823  0.7653  2.8557  0.9352
  153SAPE  C21416983   3.658   3.806   8.025 -0.0109  0.0639 -0.2741
  153SAPE  H14R16984   3.765   3.788   8.010  0.9275  2.6001  2.4271
  153SAPE  C21516985   3.626   3.885   8.127  0.8986 -0.5907  0.6980
  153SAPE  H15R16986   3.712   3.917   8.187  1.7685  0.6843 -1.1234
  153SAPE  C21616987   3.491   3.934   8.178 -0.4120  0.8906 -0.5635
  153SAPE  H16R16988   3.423   3.848   8.163 -0.1856  0.5190  0.4542
  153SAPE  H16S16989   3.445   4.026   8.135  2.4411  2.0989 -1.2480
  153SAPE  C21716990   3.494   3.939   8.331  0.3008  0.3892  0.1379
  153SAPE  H17R16991   3.516   4.045   8.355 -1.1690  0.9169 -0.7427
  153SAPE  H17S16992   3.567   3.867   8.374 -2.5832 -0.6682  3.7740
  153SAPE  C21816993   3.360   3.896   8.393 -0.5347 -0.4751  0.0997
  153SAPE  H18R16994   3.351   3.785   8.384  2.1065 -0.8442  1.2796
  153SAPE  H18S16995   3.273   3.944   8.344 -0.5056 -2.0062 -1.5452
  153SAPE  C21916996   3.357   3.927   8.545  0.5116 -0.5045  0.1059
  153SAPE  H19R16997   3.251   3.924   8.578  0.9043 -3.1442  1.3828
  153SAPE  H19S16998   3.396   4.031   8.549 -0.2304 -0.2482  1.1532
  153SAPE  C22016999   3.438   3.823   8.616 -0.6832  0.1282  0.1478
  153SAPE  H20R17000   3.545   3.821   8.587 -0.4592 -0.0868  0.9640
  153SAPE  H20S17001   3.398   3.723   8.587  2.0756 -0.8846 -0.4981
  153SAPE  H20T17002   3.441   3.839   8.725  0.2924  0.2713  0.1044
  153SAPE   C3317003   3.865   3.701   6.955  0.3152  0.1849  0.6864
  153SAPE   H3X17004   3.794   3.777   6.997  0.8252  2.5354 -2.3301
  153SAPE   H3Y17005   3.930   3.738   6.873  0.5445  3.8031  2.2750
  153SAPE   C3417006   3.962   3.653   7.067 -1.1899 -0.3743  0.0932
  153SAPE   H4X17007   4.014   3.740   7.111  0.9492 -1.2197 -0.6367
  153SAPE   H4Y17008   4.036   3.589   7.013 -0.5422 -0.4414  1.0556
  153SAPE   C3517009   3.900   3.571   7.183 -0.3692  0.2813  0.4511
  153SAPE   H5X17010   3.880   3.465   7.157 -1.5147  0.6621 -0.2896
  153SAPE   H5Y17011   3.818   3.629   7.230 -1.1543 -0.2170 -0.2806
  153SAPE   C3617012   3.997   3.568   7.294  0.8597 -0.5761  0.7433
  153SAPE   H6X17013   4.009   3.669   7.339  0.6100  0.2877 -1.0567
  153SAPE   H6Y17014   4.099   3.534   7.266  0.7464 -0.3736  0.0599
  153SAPE   C3717015   3.945   3.473   7.411 -0.4784 -0.9152 -0.2999
  153SAPE   H7X17016   3.946   3.371   7.368  1.4361 -0.4818 -1.3917
  153SAPE   H7Y17017   3.842   3.504   7.439  0.7194  1.5391  1.9393
  153SAPE   C3817018   4.033   3.490   7.539  0.9128 -0.0451 -0.4152
  153SAPE   H8X17019   4.038   3.599   7.561 -1.7657 -0.2529  1.8326
  153SAPE   H8Y17020   4.133   3.448   7.515  0.1599 -1.5750 -0.9944
  153SAPE   C3917021   3.972   3.420   7.670 -0.0991 -0.2148  0.4884
  153SAPE   H9X17022   3.942   3.313   7.660 -2.4032  0.4637 -0.5038
  153SAPE   H9Y17023   3.877   3.474   7.690 -0.0059  0.0375  0.2526
  153SAPE  C31017024   4.054   3.446   7.798 -0.3954 -0.1393  0.5539
  153SAPE  H10X17025   4.084   3.551   7.820 -1.4674 -0.3056  3.2466
  153SAPE  H10Y17026   4.144   3.385   7.777  1.4348  2.6526 -0.3327
  153SAPE  C31117027   4.002   3.390   7.930  1.2867  0.0781 -0.1953
  153SAPE  H11X17028   4.076   3.330   7.988 -1.0446 -0.8768  2.0339
  153SAPE  H11Y17029   3.916   3.324   7.904  1.7219 -0.5839  0.0055
  153SAPE  C31217030   3.942   3.496   8.023 -0.4009  0.1288 -0.0798
  153SAPE  H12X17031   3.861   3.548   7.967 -1.0612 -0.3410  0.4284
  153SAPE  H12Y17032   4.015   3.576   8.049 -0.9801  0.5523  0.2759
  153SAPE  C31317033   3.877   3.444   8.145  0.5361  0.2115  0.2599
  153SAPE  H13X17034   3.944   3.365   8.184  0.7294  0.6430  0.8181
  153SAPE  H13Y17035   3.787   3.387   8.112  0.4437  0.1634  0.5881
  153SAPE  C31417036   3.845   3.558   8.241 -0.4397  0.0352 -0.4268
  153SAPE  H14X17037   3.757   3.606   8.193 -0.7300  0.5199  0.5521
  153SAPE  H14Y17038   3.925   3.634   8.238  0.0512 -0.4784 -0.6187
  153SAPE  C31517039   3.807   3.517   8.382  0.4834 -0.1655 -0.3289
  153SAPE  H15X17040   3.893   3.451   8.402  0.3172 -0.9400 -1.9765
  153SAPE  H15Y17041   3.717   3.454   8.367  1.1436 -1.1693 -0.1543
  153SAPE  C31617042   3.805   3.618   8.501  0.2785 -0.0657  0.3884
  153SAPE  H16X17043   3.765   3.573   8.595  0.8692  0.3603  0.8591
  153SAPE  H16Y17044   3.741   3.703   8.470  1.4475  1.5443  2.1146
  153SAPE  C31717045   3.946   3.677   8.515  0.3105  0.1322  0.6258
  153SAPE  H17X17046   3.983   3.728   8.424  2.7881 -1.1132  0.8404
  153SAPE  H17Y17047   4.016   3.596   8.546  2.1404  1.2766 -0.3334
  153SAPE  C31817048   3.952   3.776   8.629 -0.4082 -0.6207 -0.3076
  153SAPE  H18X17049   3.913   3.740   8.727 -1.6348  1.2829 -0.0499
  153SAPE  H18Y17050   3.912   3.873   8.594 -1.1707 -1.0369 -0.6332
  153SAPE  H18Z17051   4.060   3.785   8.652 -0.3620 -0.3852 -0.6264
  154SAPE     N17052   2.494   4.857   6.279 -0.0157 -0.5362 -0.2651
  154SAPE   HN117053   2.521   4.897   6.187 -0.4935 -0.6863 -0.4777
  154SAPE   HN217054   2.548   4.770   6.292 -0.5762 -0.7530  0.7087
  154SAPE   HN317055   2.394   4.834   6.261  0.7758 -2.5862 -2.5715
  154SAPE   C1217056   2.531   4.941   6.398 -0.4553  0.4835  0.6625
  154SAPE  H12A17057   2.457   4.903   6.471  0.1725 -2.3461 -0.0836
  154SAPE  H12B17058   2.516   5.045   6.362  0.3000  0.0080 -1.1636
  154SAPE   C1117059   2.677   4.917   6.448  0.9689  0.1965  0.7930
  154SAPE  H11A17060   2.698   4.811   6.474 -0.9981  0.1749  2.6045
  154SAPE  H11B17061   2.696   4.976   6.540  0.3747  0.4989  0.7255
  154SAPE     P17062   2.884   5.060   6.345  0.3213 -0.0323  0.0013
  154SAPE   O1317063   3.006   4.989   6.317 -0.1732 -0.2769  0.3199
  154SAPE   O1417064   2.853   5.167   6.246  0.5022  0.4879 -0.4884
  154SAPE   O1217065   2.762   4.951   6.341 -0.1805  0.1167  0.1996
  154SAPE   O1117066   2.898   5.126   6.490 -0.1567 -0.0186  0.3206
  154SAPE    C117067   2.855   5.261   6.507 -0.2736 -0.5485 -0.3313
  154SAPE    HA17068   2.906   5.335   6.441 -1.2037  0.0607 -0.3847
  154SAPE    HB17069   2.745   5.271   6.500 -0.3413 -1.2814 -0.3526
  154SAPE    C217070   2.896   5.306   6.648 -0.3717  0.8093 -1.0542
  154SAPE    HS17071   3.004   5.278   6.650 -0.6225 -0.1600 -0.6456
  154SAPE   O2117072   2.819   5.233   6.741  0.5147 -0.0996 -0.2785
  154SAPE   C2117073   2.891   5.177   6.840  0.6504 -0.0315  0.1277
  154SAPE   O2217074   3.010   5.204   6.858  0.2753  0.2948  0.2569
  154SAPE   C2217075   2.802   5.081   6.923  0.2801 -0.4192 -0.2991
  154SAPE   H2R17076   2.717   5.036   6.867 -1.8668  1.7359  1.0087
  154SAPE   H2S17077   2.869   4.995   6.944 -0.7178 -1.5538 -1.6127
  154SAPE    C317078   2.880   5.457   6.668  0.1164 -0.1651  0.7458
  154SAPE    HX17079   2.775   5.484   6.645  0.0591 -1.5004 -0.7549
  154SAPE    HY17080   2.940   5.511   6.591 -0.9814  0.7281  0.4961
  154SAPE   O3117081   2.933   5.499   6.795 -0.3471 -0.2324  0.1968
  154SAPE   C3117082   2.848   5.534   6.897 -0.4779 -0.1464  0.1948
  154SAPE   O3217083   2.731   5.540   6.889  0.3180  0.0805  0.3997
  154SAPE   C3217084   2.935   5.568   7.021  0.5456 -0.5667  0.9790
  154SAPE   H2X17085   2.876   5.651   7.067 -0.4463 -2.7860  4.0496
  154SAPE   H2Y17086   3.036   5.605   6.993  0.1932 -0.2775  0.0740
  154SAPE   C2317087   2.741   5.152   7.049 -0.3351  0.2670 -0.0598
  154SAPE   H3R17088   2.718   5.255   7.014  0.9824  0.4540 -0.4418
  154SAPE   H3S17089   2.827   5.166   7.118  1.1724  0.8844 -1.9712
  154SAPE   C2417090   2.629   5.075   7.110 -0.2971 -0.1605 -0.3667
  154SAPE   H4R17091   2.662   4.983   7.162  1.3748  1.2416  1.1718
  154SAPE   H4S17092   2.552   5.043   7.036 -0.1352 -1.1705 -0.1074
  154SAPE   C2517093   2.561   5.159   7.223  0.0044  0.6364 -0.4313
  154SAPE   H5R17094   2.539   5.260   7.185  0.0794  0.8144 -0.0007
  154SAPE   C2617095   2.544   5.144   7.359  0.9152  0.2076 -0.1135
  154SAPE   H6R17096   2.498   5.229   7.411  1.8819  1.6000 -1.4258
  154SAPE   C2717097   2.586   5.029   7.443  0.1912 -1.0678  0.2634
  154SAPE   H7R17098   2.563   4.940   7.381 -1.7966 -0.7462  0.4853
  154SAPE   H7S17099   2.525   5.019   7.535 -0.4935  0.5521  0.0085
  154SAPE   C2817100   2.731   5.022   7.481 -0.3340  0.3784  0.2723
  154SAPE   H8R17101   2.794   5.093   7.425  1.1492 -0.9582  0.1915
  154SAPE   C2917102   2.794   4.970   7.586 -0.6169 -0.2936 -0.2450
  154SAPE   H9R17103   2.901   4.997   7.591  0.1443 -1.7981 -4.3485
  154SAPE  C21017104   2.737   4.899   7.709 -0.4278  0.1899 -0.0212
  154SAPE  H10R17105   2.823   4.881   7.777 -0.9377 -2.9047 -0.0637
  154SAPE  H10S17106   2.710   4.795   7.680  0.5746  0.3502 -1.7178
  154SAPE  C21117107   2.639   4.989   7.780  0.5167 -0.4398 -1.0083
  154SAPE  H11R17108   2.531   4.974   7.772  0.3241 -1.0578  1.8183
  154SAPE  C21217109   2.677   5.084   7.871  0.0419 -0.8077  0.2971
  154SAPE  H12R17110   2.593   5.144   7.910 -1.0675 -1.5226 -0.9266
  154SAPE  C21317111   2.822   5.121   7.908  0.0196 -0.3614 -0.0188
  154SAPE  H13R17112   2.834   5.231   7.910  0.6187 -0.3233 -2.3190
  154SAPE  H13S17113   2.882   5.099   7.817  0.8264 -0.9584  0.6414
  154SAPE  C21417114   2.868   5.044   8.026 -0.5496  0.1044 -0.6882
  154SAPE  H14R17115   2.939   4.963   8.001 -0.5067  0.0750 -0.4731
  154SAPE  C21517116   2.853   5.084   8.155 -0.4781  0.6306  0.1714
  154SAPE  H15R17117   2.911   5.030   8.232 -1.7283 -0.6300  0.2714
  154SAPE  C21617118   2.778   5.205   8.214  0.2475 -0.0009 -0.7497
  154SAPE  H16R17119   2.765   5.292   8.145  2.3295  1.5688  0.7056
  154SAPE  H16S17120   2.825   5.246   8.306 -2.2904 -2.0487  1.6126
  154SAPE  C21717121   2.635   5.160   8.258  0.3227 -0.3027  0.3841
  154SAPE  H17R17122   2.588   5.138   8.160 -1.6383  0.4758  1.0879
  154SAPE  H17S17123   2.581   5.256   8.274  2.3774  1.6182 -2.9566
  154SAPE  C21817124   2.629   5.073   8.384  0.1788  0.1200  0.3137
  154SAPE  H18R17125   2.689   5.119   8.466 -1.5869 -0.1024  1.7908
  154SAPE  H18S17126   2.664   4.972   8.353  0.2123 -0.2892  1.6378
  154SAPE  C21917127   2.487   5.063   8.427  0.8336  0.3617 -0.4460
  154SAPE  H19R17128   2.463   5.169   8.449 -1.3315 -0.4228  1.3522
  154SAPE  H19S17129   2.484   5.002   8.520 -0.6207  0.4201 -0.4198
  154SAPE  C22017130   2.387   4.996   8.326  0.4352  0.1847  0.5548
  154SAPE  H20R17131   2.392   5.066   8.240  0.8945  3.1028  2.7666
  154SAPE  H20S17132   2.281   4.990   8.360  0.4920  1.6852  1.0700
  154SAPE  H20T17133   2.434   4.903   8.287  1.4950  0.2053  1.7178
  154SAPE   C3317134   2.946   5.449   7.123 -0.3526 -0.4993 -0.4257
  154SAPE   H3X17135   3.008   5.370   7.075 -0.2977  0.8985 -2.8320
  154SAPE   H3Y17136   2.849   5.400   7.146 -0.4074 -0.2460 -0.1076
  154SAPE   C3417137   2.988   5.501   7.259  0.5708  0.6211 -0.1361
  154SAPE   H4X17138   2.904   5.564   7.297  0.0952 -1.6995  3.0247
  154SAPE   H4Y17139   3.082   5.558   7.242  2.0192 -1.4801  0.4473
  154SAPE   C3517140   3.008   5.389   7.359  0.0580 -0.3278  0.6342
  154SAPE   H5X17141   3.106   5.338   7.344 -0.5123 -0.8545 -1.5457
  154SAPE   H5Y17142   2.923   5.318   7.355 -0.4369  0.2756  0.4062
  154SAPE   C3617143   3.005   5.441   7.503  0.1431 -0.6047 -0.2682
  154SAPE   H6X17144   2.903   5.469   7.538  0.2198 -0.0267 -0.5000
  154SAPE   H6Y17145   3.070   5.530   7.518 -0.4164  0.1733 -2.1283
  154SAPE   C3717146   3.059   5.330   7.601  0.2173 -0.7776 -0.2168
  154SAPE   H7X17147   3.139   5.279   7.544 -1.3349 -0.9447 -2.3868
  154SAPE   H7Y17148   2.973   5.260   7.608  1.4094 -2.4289 -1.5484
  154SAPE   C3817149   3.090   5.374   7.733  0.5667 -0.5643  0.8352
  154SAPE   H8X17150   2.999   5.378   7.796  0.0204 -1.5436  0.1223
  154SAPE   H8Y17151   3.138   5.474   7.720  0.2106 -0.6816 -1.9547
  154SAPE   C3917152   3.182   5.291   7.816 -0.0024 -0.1800  0.5141
  154SAPE   H9X17153   3.281   5.274   7.769 -0.1979  1.9940 -0.7747
  154SAPE   H9Y17154   3.133   5.192   7.828 -0.8365  0.4233  2.4289
  154SAPE  C31017155   3.202   5.354   7.951  0.1530  0.8501 -0.3555
  154SAPE  H10X17156   3.100   5.386   7.981 -0.8774 -2.6618  0.3393
  154SAPE  H10Y17157   3.269   5.442   7.951 -0.4470  1.3218 -1.6094
  154SAPE  C31117158   3.256   5.252   8.048 -0.4646  0.1389  0.0938
  154SAPE  H11X17159   3.343   5.203   7.999  0.5617  1.6760  0.3240
  154SAPE  H11Y17160   3.179   5.175   8.072  1.0294 -1.2323  0.6862
  154SAPE  C31217161   3.316   5.311   8.176 -0.2985  0.0929 -0.3392
  154SAPE  H12X17162   3.229   5.369   8.214 -0.8306 -0.9816  0.1429
  154SAPE  H12Y17163   3.400   5.380   8.153  1.8944 -1.0143  3.4925
  154SAPE  C31317164   3.369   5.206   8.274 -0.3262 -0.7985 -0.1844
  154SAPE  H13X17165   3.453   5.151   8.226  0.2896  0.0228 -0.0707
  154SAPE  H13Y17166   3.295   5.127   8.300 -1.4748  0.4018  0.2659
  154SAPE  C31417167   3.422   5.279   8.401 -0.0056  0.0838 -0.3178
  154SAPE  H14X17168   3.520   5.323   8.375  0.2129  0.3025  0.8200
  154SAPE  H14Y17169   3.436   5.196   8.473 -1.5782  0.6701  0.7134
  154SAPE  C31517170   3.316   5.369   8.483  0.2089 -0.0254  0.0236
  154SAPE  H15X17171   3.221   5.316   8.504  0.4622 -0.6586 -0.4210
  154SAPE  H15Y17172   3.291   5.459   8.422  1.1303  0.6582  0.6217
  154SAPE  C31617173   3.356   5.400   8.627  0.4300  0.9057 -0.2486
  154SAPE  H16X17174   3.440   5.471   8.613  3.1015 -2.3483 -2.1452
  154SAPE  H16Y17175   3.391   5.313   8.686  1.5895 -0.2738 -2.5533
  154SAPE  C31717176   3.234   5.460   8.703  0.8445  0.2180 -1.1760
  154SAPE  H17X17177   3.158   5.380   8.714 -1.8519  2.6039 -1.4207
  154SAPE  H17Y17178   3.186   5.540   8.643  0.4621  0.3703 -0.6692
  154SAPE  C31817179   3.276   5.515   8.842  0.6055  0.4460 -0.2097
  154SAPE  H18X17180   3.355   5.593   8.829  0.6486  0.3192 -0.7339
  154SAPE  H18Y17181   3.332   5.435   8.894  0.0344 -1.0633 -1.8333
  154SAPE  H18Z17182   3.196   5.563   8.903  0.2170  0.7651 -0.9600
  155SAPE     N17183   3.229   5.050   6.472  0.0040 -0.3160  0.8547
  155SAPE   HN117184   3.143   5.040   6.414 -0.0798  1.6372  0.5792
  155SAPE   HN217185   3.251   5.150   6.492 -1.9447  0.2618  0.3197
  155SAPE   HN317186   3.305   5.004   6.418 -0.4638  0.9301 -0.9570
  155SAPE   C1217187   3.190   4.980   6.600  0.0374  0.0769 -0.2840
  155SAPE  H12A17188   3.110   5.044   6.641 -0.3761 -0.4842 -0.2044
  155SAPE  H12B17189   3.275   4.979   6.671 -0.0804 -1.4800 -0.1319
  155SAPE   C1117190   3.143   4.840   6.579  0.5389  0.2734 -0.1176
  155SAPE  H11A17191   3.046   4.845   6.524  0.1872 -0.5766  0.4026
  155SAPE  H11B17192   3.125   4.810   6.684 -0.4799 -1.3021 -0.6899
  155SAPE     P17193   3.316   4.639   6.542 -0.5358  0.2318  0.2205
  155SAPE   O1317194   3.267   4.529   6.455  0.5350  0.5743  0.0273
  155SAPE   O1417195   3.463   4.660   6.531  0.5960  0.5829  0.2631
  155SAPE   O1217196   3.239   4.770   6.505 -0.6893 -0.2638 -0.3038
  155SAPE   O1117197   3.264   4.612   6.683 -0.0768 -0.4108  0.2154
  155SAPE    C117198   3.317   4.531   6.790 -0.6878  0.0327 -0.7364
  155SAPE    HA17199   3.427   4.549   6.794 -0.6140 -0.5976  2.8606
  155SAPE    HB17200   3.265   4.557   6.884 -0.0108  1.7138 -0.7860
  155SAPE    C217201   3.295   4.381   6.779  0.5740  0.5208 -0.4969
  155SAPE    HS17202   3.340   4.351   6.682  0.3655 -4.0881  0.5918
  155SAPE   O2117203   3.148   4.364   6.789  0.3495 -0.1101  0.2504
  155SAPE   C2117204   3.103   4.250   6.739 -0.0498 -0.0933 -0.0933
  155SAPE   O2217205   3.176   4.172   6.680  0.0950  0.8565  0.3583
  155SAPE   C2217206   2.966   4.217   6.777  0.4943 -0.3878  1.0033
  155SAPE   H2R17207   2.980   4.153   6.866  1.2464 -2.1054 -0.2999
  155SAPE   H2S17208   2.911   4.313   6.790  1.5707  0.3148  0.4376
  155SAPE    C317209   3.367   4.305   6.888  0.2565  0.1550 -0.3368
  155SAPE    HX17210   3.475   4.329   6.885  0.9086 -2.5311 -2.5742
  155SAPE    HY17211   3.371   4.198   6.861  0.3330 -0.2043  1.0330
  155SAPE   O3117212   3.321   4.337   7.023 -0.5242  0.0898 -0.0980
  155SAPE   C3117213   3.248   4.242   7.087  0.0979 -0.1048  1.0010
  155SAPE   O3217214   3.200   4.146   7.027 -0.4435  0.1153 -0.2733
  155SAPE   C3217215   3.220   4.279   7.231 -0.0639 -0.3627  0.2808
  155SAPE   H2X17216   3.113   4.251   7.245  0.2245 -0.5243  2.3447
  155SAPE   H2Y17217   3.235   4.388   7.240 -0.0683 -0.4194  1.0420
  155SAPE   C2317218   2.893   4.140   6.661  0.2327 -0.3372 -0.3540
  155SAPE   H3R17219   2.928   4.036   6.647  0.5690 -0.0709 -1.6848
  155SAPE   H3S17220   2.916   4.196   6.567  0.9252  0.9967  0.5854
  155SAPE   C2417221   2.742   4.124   6.684 -0.1699 -0.4779 -0.3319
  155SAPE   H4R17222   2.696   4.091   6.589 -1.2724 -1.5720  0.5503
  155SAPE   H4S17223   2.693   4.222   6.702 -1.0854 -0.5075 -2.4518
  155SAPE   C2517224   2.696   4.021   6.786 -0.5954  1.0511 -0.2181
  155SAPE   H5R17225   2.697   3.916   6.753  1.3451  1.1037 -0.4320
  155SAPE   C2617226   2.664   4.044   6.915  0.3431 -0.4809  0.2273
  155SAPE   H6R17227   2.626   3.959   6.973 -0.4641 -0.9277 -0.9173
  155SAPE   C2717228   2.658   4.177   6.997 -1.2996 -0.4489  0.5947
  155SAPE   H7R17229   2.568   4.182   7.062 -1.0539  4.0621  0.9292
  155SAPE   H7S17230   2.651   4.261   6.925  1.3893  0.0266  0.7886
  155SAPE   C2817231   2.778   4.190   7.094  0.2181 -0.0848 -0.1752
  155SAPE   H8R17232   2.876   4.162   7.053  0.8413  1.0417  0.4923
  155SAPE   C2917233   2.777   4.231   7.227  0.0783  0.0217 -0.4296
  155SAPE   H9R17234   2.868   4.243   7.287 -0.3451  0.0433  0.2182
  155SAPE  C21017235   2.655   4.278   7.307 -0.3429  0.8843  0.3309
  155SAPE  H10R17236   2.578   4.306   7.232  1.5478  0.0855 -2.0451
  155SAPE  H10S17237   2.676   4.373   7.361  1.0490  1.2512 -0.7759
  155SAPE  C21117238   2.592   4.170   7.396  0.0770  0.3371  0.6524
  155SAPE  H11R17239   2.575   4.074   7.344  0.8879 -0.3684  1.6386
  155SAPE  C21217240   2.584   4.179   7.528  0.3974  0.4582 -0.0037
  155SAPE  H12R17241   2.539   4.093   7.579  2.2771 -0.3457  0.3805
  155SAPE  C21317242   2.631   4.291   7.622 -0.6803  0.5066 -0.2397
  155SAPE  H13R17243   2.578   4.279   7.719  0.1581  2.1166  0.4472
  155SAPE  H13S17244   2.600   4.392   7.587  1.8402  1.4389  0.0726
  155SAPE  C21417245   2.783   4.291   7.649  0.2467 -0.2747  0.0106
  155SAPE  H14R17246   2.845   4.232   7.580 -0.0000  2.2815 -2.5616
  155SAPE  C21517247   2.838   4.363   7.747  0.7174  0.5586  0.5513
  155SAPE  H15R17248   2.946   4.355   7.770  0.9078  2.7386  0.6318
  155SAPE  C21617249   2.745   4.436   7.841 -0.1168  0.2688  0.3607
  155SAPE  H16R17250   2.666   4.372   7.887  0.1255 -0.4951 -0.2737
  155SAPE  H16S17251   2.708   4.531   7.797 -0.8601 -0.1138  0.1512
  155SAPE  C21717252   2.827   4.472   7.972  0.1979 -0.9150 -0.0598
  155SAPE  H17R17253   2.914   4.539   7.952  1.3112 -2.2744  0.0593
  155SAPE  H17S17254   2.872   4.375   8.001  1.2162 -1.6785 -3.6763
  155SAPE  C21817255   2.743   4.542   8.082  0.1733  0.3521  0.3547
  155SAPE  H18R17256   2.788   4.534   8.183  0.6762 -2.2524  0.0101
  155SAPE  H18S17257   2.639   4.507   8.099 -0.7171  3.1007  0.9579
  155SAPE  C21917258   2.734   4.692   8.047  0.8458 -0.4718 -0.1965
  155SAPE  H19R17259   2.668   4.696   7.958 -0.5355 -1.2239  0.7650
  155SAPE  H19S17260   2.825   4.746   8.012  3.4459 -2.5720  2.7106
  155SAPE  C22017261   2.659   4.781   8.152 -0.4764  0.1763  0.1444
  155SAPE  H20R17262   2.562   4.733   8.177  0.4730 -0.9659  1.7846
  155SAPE  H20S17263   2.632   4.877   8.103 -1.2523  1.9313  3.6735
  155SAPE  H20T17264   2.722   4.810   8.238 -1.0633  0.2661  0.5482
  155SAPE   C3317265   3.295   4.190   7.331 -0.0884 -0.2007 -0.4671
  155SAPE   H3X17266   3.217   4.180   7.410  0.4643  1.2146  0.2830
  155SAPE   H3Y17267   3.385   4.241   7.372 -0.0194 -1.3173  0.8609
  155SAPE   C3417268   3.341   4.054   7.297 -0.4704  0.1457  0.2865
  155SAPE   H4X17269   3.401   4.039   7.204  1.7521  0.9848  1.5074
  155SAPE   H4Y17270   3.258   3.982   7.286  0.8412 -1.4999  0.6900
  155SAPE   C3517271   3.435   3.990   7.407 -0.1164 -0.2588 -0.3138
  155SAPE   H5X17272   3.525   4.054   7.416  1.0475 -2.0698  2.1901
  155SAPE   H5Y17273   3.466   3.891   7.367 -1.3086 -0.1603 -1.5889
  155SAPE   C3617274   3.368   3.959   7.538 -0.2021  0.4487 -0.4980
  155SAPE   H6X17275   3.419   3.865   7.570  0.2628  0.0328 -2.3365
  155SAPE   H6Y17276   3.262   3.932   7.517  0.1686  0.3228 -2.4363
  155SAPE   C3717277   3.386   4.081   7.635 -0.8235 -0.2182 -0.1349
  155SAPE   H7X17278   3.308   4.158   7.616  0.0941  0.4123 -1.5683
  155SAPE   H7Y17279   3.475   4.143   7.609 -0.9770  0.8164  1.6404
  155SAPE   C3817280   3.384   4.044   7.783  0.2143  0.1639  0.3988
  155SAPE   H8X17281   3.485   4.024   7.825  0.1801 -1.1193 -0.0551
  155SAPE   H8Y17282   3.346   3.939   7.781 -3.4687  1.3001 -3.4171
  155SAPE   C3917283   3.303   4.143   7.873  0.2038  0.0782 -0.1543
  155SAPE   H9X17284   3.333   4.248   7.853 -0.1578 -0.0046 -1.1874
  155SAPE   H9Y17285   3.329   4.116   7.977 -1.7288 -0.6852  0.1682
  155SAPE  C31017286   3.151   4.143   7.843  1.2232 -0.5247 -0.9897
  155SAPE  H10X17287   3.129   4.122   7.736 -0.5754 -3.2649 -0.1926
  155SAPE  H10Y17288   3.116   4.246   7.866  0.3704 -1.0491  0.1374
  155SAPE  C31117289   3.057   4.045   7.928  0.0991  0.5121 -0.4474
  155SAPE  H11X17290   3.107   3.946   7.934  2.9779  1.7452 -1.9852
  155SAPE  H11Y17291   2.965   4.036   7.868 -1.5247  0.8752  1.8688
  155SAPE  C31217292   3.035   4.107   8.070  0.5357  0.2355 -0.2456
  155SAPE  H12X17293   3.005   4.213   8.054 -2.3798 -0.5005 -0.3202
  155SAPE  H12Y17294   3.125   4.097   8.134  0.6237  0.2911 -0.3620
  155SAPE  C31317295   2.916   4.038   8.157  0.1315 -0.4679  0.8602
  155SAPE  H13X17296   2.905   4.107   8.243 -1.3467  1.7611 -0.9733
  155SAPE  H13Y17297   2.950   3.940   8.197  1.9683 -0.4352 -0.4919
  155SAPE  C31417298   2.778   4.042   8.086  0.1262  0.1996  0.2202
  155SAPE  H14X17299   2.765   3.961   8.011  0.5592 -0.0456  0.4107
  155SAPE  H14Y17300   2.772   4.140   8.033 -0.7412  0.1187  0.1564
  155SAPE  C31517301   2.663   4.045   8.182  0.4148 -0.1630 -0.2067
  155SAPE  H15X17302   2.679   4.123   8.259  1.2684  2.2029 -2.5926
  155SAPE  H15Y17303   2.656   3.945   8.228  0.8039 -0.4503 -0.7492
  155SAPE  C31617304   2.531   4.088   8.115  0.1745 -0.0452  0.8915
  155SAPE  H16X17305   2.515   4.020   8.028  2.1292  2.0858 -1.2734
  155SAPE  H16Y17306   2.546   4.188   8.069  0.3256 -0.7314 -0.6130
  155SAPE  C31717307   2.413   4.085   8.208 -0.2706  0.4160  0.4398
  155SAPE  H17X17308   2.419   4.165   8.285  1.2364 -1.3327  2.2582
  155SAPE  H17Y17309   2.415   3.990   8.265 -0.5447  0.6211  0.7961
  155SAPE  C31817310   2.288   4.104   8.125  0.0753  0.0342  0.4798
  155SAPE  H18X17311   2.285   4.198   8.066  0.9600 -0.5050 -0.4642
  155SAPE  H18Y17312   2.191   4.102   8.180  0.8188 -1.3739  1.8006
  155SAPE  H18Z17313   2.273   4.029   8.045 -0.9591  1.7007 -0.9644
  156SAPE     N17314   0.067   0.399   6.429 -0.1233  0.5059 -0.1419
  156SAPE   HN117315  -0.009   0.363   6.367 -0.5580  0.6883  0.2868
  156SAPE   HN217316   0.158   0.393   6.378  0.4091  0.2715  0.8203
  156SAPE   HN317317   0.065   0.328   6.505 -0.0128  0.5113 -0.1327
  156SAPE   C1217318   0.043   0.539   6.489 -0.1436  0.5261 -0.3391
  156SAPE  H12A17319  -0.050   0.521   6.547  2.0891 -0.4190  3.2664
  156SAPE  H12B17320   0.035   0.609   6.404  2.1249 -0.8253 -1.7770
  156SAPE   C1117321   0.162   0.577   6.582 -0.1301  0.2414 -0.4778
  156SAPE  H11A17322   0.152   0.500   6.660  1.8061  0.4746  0.0721
  156SAPE  H11B17323   0.139   0.676   6.626 -0.6989 -0.8138  1.7143
  156SAPE     P17324   0.331   0.678   6.410  0.2175  0.1160 -0.5247
  156SAPE   O1317325   0.483   0.693   6.420 -0.1583 -0.5458 -0.1448
  156SAPE   O1417326   0.274   0.649   6.273  0.6550 -0.1745 -0.3879
  156SAPE   O1217327   0.289   0.567   6.516  0.5099  0.3018  0.6475
  156SAPE   O1117328   0.257   0.809   6.468  0.0149 -0.2317 -0.3895
  156SAPE    C117329   0.327   0.907   6.545 -0.2763 -0.5309  0.5021
  156SAPE    HA17330   0.428   0.930   6.504 -0.7356 -0.0446 -0.3696
  156SAPE    HB17331   0.276   1.005   6.547  3.1775  1.4461  0.5771
  156SAPE    C217332   0.357   0.865   6.696 -0.7221 -0.5267  0.1290
  156SAPE    HS17333   0.390   0.758   6.692  0.2831 -0.1911 -1.5786
  156SAPE   O2117334   0.234   0.871   6.759  0.5807 -0.0641 -0.1102
  156SAPE   C2117335   0.230   0.802   6.877  0.0338 -0.0110 -0.2263
  156SAPE   O2217336   0.309   0.717   6.918  0.2425  0.1938  0.0812
  156SAPE   C2217337   0.103   0.858   6.947 -0.2863  0.4119  0.1061
  156SAPE   H2R17338   0.107   0.966   6.921  2.4383  0.3027 -0.1604
  156SAPE   H2S17339   0.019   0.820   6.885  0.6812 -0.5431 -0.6335
  156SAPE    C317340   0.458   0.964   6.763 -0.1130  0.1683  0.0612
  156SAPE    HX17341   0.401   1.049   6.807 -3.5451 -0.0311 -3.4979
  156SAPE    HY17342   0.523   1.022   6.693 -0.6478 -1.0250 -1.4819
  156SAPE   O3117343   0.540   0.902   6.861  0.3219 -0.1917 -0.2622
  156SAPE   C3117344   0.621   0.981   6.929  0.1320 -0.0593 -0.3245
  156SAPE   O3217345   0.640   1.097   6.891 -1.0960  0.4809 -0.6302
  156SAPE   C3217346   0.667   0.928   7.062 -1.0231 -0.4428  0.8374
  156SAPE   H2X17347   0.748   0.994   7.101  0.7998  0.3945 -3.7772
  156SAPE   H2Y17348   0.718   0.829   7.058 -0.9990 -0.4085  0.3038
  156SAPE   C2317349   0.079   0.835   7.097 -0.1835 -0.3992 -0.5087
  156SAPE   H3R17350   0.003   0.904   7.139  0.8699 -0.2041  1.1941
  156SAPE   H3S17351   0.166   0.860   7.161 -0.9742 -0.5219  0.6569
  156SAPE   C2417352   0.034   0.695   7.135  0.0730  0.0888  0.8314
  156SAPE   H4R17353  -0.058   0.678   7.074  0.5256 -1.2157  0.4722
  156SAPE   H4S17354   0.008   0.680   7.242 -0.0468 -6.0597  0.3025
  156SAPE   C2517355   0.115   0.569   7.106 -0.0544  0.7018 -0.7250
  156SAPE   H5R17356   0.173   0.566   7.012  1.8691 -1.7352  0.4080
  156SAPE   C2617357   0.129   0.462   7.185 -0.1096  0.2268 -0.0799
  156SAPE   H6R17358   0.174   0.377   7.130  2.5500  2.4734 -1.6554
  156SAPE   C2717359   0.069   0.444   7.324 -0.1495 -0.6702 -0.8340
  156SAPE   H7R17360   0.073   0.542   7.376  0.0057 -1.3380  0.4460
  156SAPE   H7S17361   0.145   0.384   7.379 -0.7484 -0.8443 -0.1941
  156SAPE   C2817362  -0.065   0.373   7.333 -0.2743  0.4323  0.3108
  156SAPE   H8R17363  -0.105   0.339   7.236  0.6635 -1.1280  0.4322
  156SAPE   C2917364  -0.140   0.351   7.440 -0.5032 -0.0732 -0.0269
  156SAPE   H9R17365  -0.231   0.291   7.427 -0.9965  0.8327 -0.8965
  156SAPE  C21017366  -0.114   0.396   7.580  0.5403 -0.0769  0.0231
  156SAPE  H10R17367  -0.207   0.419   7.636  0.9587 -2.3440  1.8146
  156SAPE  H10S17368  -0.052   0.487   7.570  1.6358 -0.3663  3.0449
  156SAPE  C21117369  -0.035   0.296   7.657 -0.7975  0.5453  0.1477
  156SAPE  H11R17370   0.061   0.269   7.610  0.2116  0.5083  2.1177
  156SAPE  C21217371  -0.047   0.245   7.778 -0.0212  0.6613  0.3029
  156SAPE  H12R17372   0.037   0.184   7.816  0.0385 -0.8261 -1.9965
  156SAPE  C21317373  -0.161   0.264   7.870  0.2693  0.2547 -0.7687
  156SAPE  H13R17374  -0.244   0.193   7.847 -1.1979  1.2157  1.2089
  156SAPE  H13S17375  -0.205   0.366   7.864 -0.3234  0.3057  2.5197
  156SAPE  C21417376  -0.116   0.248   8.011 -0.8636  0.3629 -0.1301
  156SAPE  H14R17377  -0.021   0.298   8.036 -1.8047  0.9137  2.6835
  156SAPE  C21517378  -0.179   0.174   8.103  0.0597  0.4497 -0.3818
  156SAPE  H15R17379  -0.133   0.185   8.202  1.5196 -1.1842 -0.8417
  156SAPE  C21617380  -0.308   0.087   8.102  0.6906  0.0055  0.5191
  156SAPE  H16R17381  -0.294  -0.022   8.090 -1.3075 -0.2333 -0.0868
  156SAPE  H16S17382  -0.378   0.111   8.018  0.2909  0.5394  0.9969
  156SAPE  C21717383  -0.385   0.135   8.236 -0.0838 -0.1545 -0.5981
  156SAPE  H17R17384  -0.486   0.089   8.240 -0.4290  0.5543 -1.0000
  156SAPE  H17S17385  -0.410   0.241   8.213  1.2440 -0.1346 -2.1444
  156SAPE  C21817386  -0.319   0.097   8.374 -0.0930 -0.0107 -0.2207
  156SAPE  H18R17387  -0.218   0.142   8.384 -0.4435  1.0039 -1.0528
  156SAPE  H18S17388  -0.299  -0.012   8.377  3.6206  0.5561 -0.1876
  156SAPE  C21917389  -0.399   0.146   8.501 -0.5750  0.0305  0.3290
  156SAPE  H19R17390  -0.484   0.076   8.520 -0.9480  0.6231  0.8933
  156SAPE  H19S17391  -0.443   0.246   8.482  1.9062  1.1606  0.2015
  156SAPE  C22017392  -0.310   0.133   8.618  1.1542 -0.7680 -0.3939
  156SAPE  H20R17393  -0.376   0.138   8.707  0.2878  0.2377 -1.0626
  156SAPE  H20S17394  -0.252   0.228   8.620 -0.6912  0.4361 -1.5906
  156SAPE  H20T17395  -0.244   0.044   8.620  0.0865 -1.7850 -4.0070
  156SAPE   C3317396   0.553   0.926   7.165 -1.4469 -0.0867  0.7713
  156SAPE   H3X17397   0.480   0.852   7.125 -0.4832 -0.6419  0.0002
  156SAPE   H3Y17398   0.509   1.028   7.172  2.3794  1.6358  2.8500
  156SAPE   C3417399   0.597   0.889   7.303 -0.2736 -0.6165  0.4354
  156SAPE   H4X17400   0.702   0.923   7.314 -0.1738 -1.1177  1.1274
  156SAPE   H4Y17401   0.606   0.779   7.319  0.8916 -0.4258  1.2340
  156SAPE   C3517402   0.524   0.959   7.413  0.2169  0.3220 -0.1256
  156SAPE   H5X17403   0.415   0.960   7.391 -0.5981 -0.9081  3.2774
  156SAPE   H5Y17404   0.565   1.061   7.432  1.5719 -0.5568  2.1344
  156SAPE   C3617405   0.555   0.894   7.551  0.2940  0.8171  0.0402
  156SAPE   H6X17406   0.665   0.892   7.569  0.2338  1.4558  0.5016
  156SAPE   H6Y17407   0.519   0.789   7.556 -0.4759  0.8789 -2.6187
  156SAPE   C3717408   0.483   0.974   7.653 -0.0281 -0.8782 -0.3523
  156SAPE   H7X17409   0.375   0.952   7.661 -0.4627  0.2121 -2.5410
  156SAPE   H7Y17410   0.499   1.083   7.637  0.9993 -0.6027  2.0460
  156SAPE   C3817411   0.545   0.942   7.792  0.6087 -0.0168  0.2979
  156SAPE   H8X17412   0.653   0.963   7.779  0.6135 -0.3204 -0.1741
  156SAPE   H8Y17413   0.520   0.835   7.809 -2.2346  0.7261  1.3718
  156SAPE   C3917414   0.466   1.009   7.904  0.1195 -0.1741 -0.7559
  156SAPE   H9X17415   0.358   0.998   7.879  0.3030  0.9861 -2.2189
  156SAPE   H9Y17416   0.481   1.119   7.895  0.5937 -0.1285  0.3908
  156SAPE  C31017417   0.491   0.963   8.051 -0.0732 -0.3931 -0.0245
  156SAPE  H10X17418   0.600   0.967   8.074 -0.4118  1.0190  1.5558
  156SAPE  H10Y17419   0.452   0.861   8.071 -0.0156  0.0775  3.0208
  156SAPE  C31117420   0.424   1.063   8.148 -0.3010 -0.2429 -0.4275
  156SAPE  H11X17421   0.314   1.057   8.132 -0.2501 -0.1623 -0.8193
  156SAPE  H11Y17422   0.464   1.163   8.120  0.2524 -0.7714 -1.5500
  156SAPE  C31217423   0.437   1.014   8.294  0.6347  0.3690  0.1231
  156SAPE  H12X17424   0.501   1.085   8.350 -0.6348  0.9903  0.8249
  156SAPE  H12Y17425   0.489   0.915   8.297 -0.1194 -0.0169  1.3144
  156SAPE  C31317426   0.300   1.014   8.364 -0.3908 -0.0948 -0.2393
  156SAPE  H13X17427   0.242   1.107   8.346  1.6392  0.8477 -2.4290
  156SAPE  H13Y17428   0.337   1.010   8.469 -0.2420 -0.2261 -0.2961
  156SAPE  C31417429   0.215   0.888   8.347  0.5702 -0.1141 -0.1208
  156SAPE  H14X17430   0.269   0.810   8.405  3.2356  0.9077 -1.1136
  156SAPE  H14Y17431   0.231   0.866   8.239  0.9676 -0.1162 -0.0624
  156SAPE  C31517432   0.058   0.899   8.375 -0.3530 -0.5704  0.3101
  156SAPE  H15X17433   0.013   0.797   8.375 -3.6533  0.6988 -1.5355
  156SAPE  H15Y17434   0.017   0.964   8.295  0.4106  0.4043  0.6918
  156SAPE  C31617435   0.034   0.970   8.509 -0.2562  0.4710 -0.1603
  156SAPE  H16X17436   0.099   1.059   8.520 -0.2988  1.0695 -3.5576
  156SAPE  H16Y17437   0.070   0.898   8.585 -1.7817 -0.2781 -0.1094
  156SAPE  C31717438  -0.118   0.991   8.532  0.1674  0.3394 -0.1438
  156SAPE  H17X17439  -0.165   0.893   8.508  1.5617 -0.3166 -0.3632
  156SAPE  H17Y17440  -0.146   1.064   8.453  1.1923  0.9640  0.0385
  156SAPE  C31817441  -0.170   1.038   8.672 -0.4379 -0.7950 -0.8811
  156SAPE  H18X17442  -0.141   1.140   8.706 -0.3570 -1.5616  1.5190
  156SAPE  H18Y17443  -0.132   0.965   8.746 -0.4053 -1.1952 -1.2832
  156SAPE  H18Z17444  -0.280   1.026   8.676 -0.3199 -1.4696  0.9961
  157SAPE     N17445   4.584   5.081   6.078 -0.0644  0.7434 -0.3295
  157SAPE   HN117446   4.540   5.121   5.992  1.7038  2.4145 -0.5448
  157SAPE   HN217447   4.591   4.977   6.080  0.1157  0.7736  1.4026
  157SAPE   HN317448   4.531   5.109   6.162 -2.8028 -2.9672 -0.6026
  157SAPE   C1217449   4.721   5.136   6.097  0.7999 -0.0332  0.3123
  157SAPE  H12A17450   4.754   5.161   5.994  0.4194 -1.7299 -0.2680
  157SAPE  H12B17451   4.780   5.051   6.139  0.4716 -1.7391 -2.3807
  157SAPE   C1117452   4.716   5.272   6.183 -0.8854  0.5554  0.6890
  157SAPE  H11A17453   4.822   5.291   6.210 -1.4573  1.1011  2.7192
  157SAPE  H11B17454   4.681   5.259   6.288  1.2759  0.5946  1.4523
  157SAPE     P17455   4.539   5.458   6.170  0.1845  0.1152  0.2250
  157SAPE   O1317456   4.497   5.570   6.082  0.6008 -0.2579 -0.2705
  157SAPE   O1417457   4.438   5.358   6.216 -0.3326 -0.3205 -0.1155
  157SAPE   O1217458   4.661   5.384   6.109  0.2838 -0.8394  0.4466
  157SAPE   O1117459   4.612   5.521   6.296 -0.2161  0.0047 -0.4993
  157SAPE    C117460   4.570   5.491   6.426 -0.7869  0.3350 -0.7612
  157SAPE    HA17461   4.570   5.383   6.453 -1.6542  0.4908 -0.0841
  157SAPE    HB17462   4.644   5.535   6.497 -1.0843  0.3135 -0.4368
  157SAPE    C217463   4.441   5.565   6.461  0.3812 -0.1899 -0.0892
  157SAPE    HS17464   4.368   5.531   6.384  0.7966  0.8620 -0.9671
  157SAPE   O2117465   4.445   5.711   6.443  0.2554 -0.2704  0.2122
  157SAPE   C2117466   4.337   5.786   6.453 -0.1283 -0.0008  0.0630
  157SAPE   O2217467   4.222   5.746   6.465  0.4840 -0.5914  0.4208
  157SAPE   C2217468   4.382   5.930   6.478  0.1215  0.1699 -0.4033
  157SAPE   H2R17469   4.484   5.926   6.522 -1.2975  1.5256  3.4141
  157SAPE   H2S17470   4.373   5.990   6.385  0.5154  0.5633 -0.1924
  157SAPE    C317471   4.397   5.542   6.603 -0.1358 -0.5038  0.4933
  157SAPE    HX17472   4.287   5.558   6.616  0.0256  0.1761  1.0580
  157SAPE    HY17473   4.449   5.598   6.684 -1.4548  2.5373 -0.5962
  157SAPE   O3117474   4.417   5.403   6.623  0.3697  0.0351 -0.3454
  157SAPE   C3117475   4.321   5.318   6.588  0.5443  0.4499 -0.6125
  157SAPE   O3217476   4.209   5.356   6.545 -0.6409 -0.5567 -0.2306
  157SAPE   C3217477   4.360   5.173   6.617 -0.1262  0.4735 -0.0354
  157SAPE   H2X17478   4.395   5.147   6.515 -1.0893  0.9391 -0.4942
  157SAPE   H2Y17479   4.269   5.118   6.646  1.0603 -1.9462 -0.6536
  157SAPE   C2317480   4.293   5.999   6.583  0.1996 -0.3346  0.1553
  157SAPE   H3R17481   4.185   5.975   6.577 -0.2869  1.0401  2.4371
  157SAPE   H3S17482   4.307   6.109   6.570  3.4705 -0.7230 -0.5065
  157SAPE   C2417483   4.334   5.981   6.733  0.2668 -0.5444 -0.8570
  157SAPE   H4R17484   4.335   5.871   6.750 -3.3874 -0.4145  1.2192
  157SAPE   H4S17485   4.249   6.021   6.792 -1.0101 -0.1360 -2.8854
  157SAPE   C2517486   4.463   6.048   6.769  0.6687  0.6697 -0.1409
  157SAPE   H5R17487   4.448   6.157   6.761  0.7244  0.6724 -0.2118
  157SAPE   C2617488   4.582   5.997   6.800  0.4563  0.1966  0.7186
  157SAPE   H6R17489   4.669   6.063   6.809  1.8609 -1.4259 -0.2085
  157SAPE   C2717490   4.613   5.852   6.796 -0.0934  0.3688 -0.2530
  157SAPE   H7R17491   4.525   5.797   6.756 -0.4493  0.8192 -0.1105
  157SAPE   H7S17492   4.630   5.826   6.903 -0.9472  1.4153  0.1641
  157SAPE   C2817493   4.734   5.821   6.711 -0.8191  0.4544  0.3825
  157SAPE   H8R17494   4.718   5.825   6.602 -0.9388 -0.8001  0.3399
  157SAPE   C2917495   4.852   5.762   6.749  0.5523 -0.9350  0.9449
  157SAPE   H9R17496   4.932   5.768   6.674 -0.4781  0.8718 -0.1100
  157SAPE  C21017497   4.880   5.718   6.884 -0.2236  0.6403 -0.0061
  157SAPE  H10R17498   4.967   5.649   6.873  0.3566  0.9612  2.1030
  157SAPE  H10S17499   4.804   5.644   6.916  0.2368 -0.5797 -1.6238
  157SAPE  C21117500   4.903   5.821   6.985 -0.3837 -0.3136 -1.0000
  157SAPE  H11R17501   4.945   5.913   6.942 -1.4786 -0.0875 -1.6196
  157SAPE  C21217502   4.861   5.816   7.117  0.0518  0.5211  0.0003
  157SAPE  H12R17503   4.884   5.896   7.190  0.5030 -1.3231  1.9949
  157SAPE  C21317504   4.791   5.701   7.189  0.4917 -0.5104 -0.0673
  157SAPE  H13R17505   4.860   5.617   7.207 -0.1554 -0.9118  0.5835
  157SAPE  H13S17506   4.714   5.661   7.120  0.2322  2.0651 -1.4156
  157SAPE  C21417507   4.722   5.749   7.313 -0.4438 -0.5488 -0.2371
  157SAPE  H14R17508   4.790   5.768   7.397 -1.6924 -0.0979  0.7109
  157SAPE  C21517509   4.596   5.791   7.315  0.4268  0.4486 -0.3209
  157SAPE  H15R17510   4.547   5.831   7.405 -2.3535  0.4314 -1.7210
  157SAPE  C21617511   4.501   5.790   7.195  0.4738  0.3936  0.2707
  157SAPE  H16R17512   4.555   5.781   7.098  1.5222 -1.9290  0.9930
  157SAPE  H16S17513   4.449   5.888   7.196 -1.0374 -0.3288 -1.3175
  157SAPE  C21717514   4.406   5.673   7.228  0.2964  0.6547 -0.1715
  157SAPE  H17R17515   4.366   5.697   7.329  0.4874 -1.0288  0.3297
  157SAPE  H17S17516   4.453   5.574   7.247  0.6232  0.6921 -0.7678
  157SAPE  C21817517   4.291   5.649   7.136  0.2654  0.3477  1.4732
  157SAPE  H18R17518   4.234   5.737   7.100 -1.9619 -0.9519  1.5898
  157SAPE  H18S17519   4.218   5.580   7.185  0.0348 -1.2727 -0.9715
  157SAPE  C21917520   4.330   5.566   7.002  0.1958 -0.6968 -0.5148
  157SAPE  H19R17521   4.383   5.474   7.035 -0.6811 -0.5850  1.3639
  157SAPE  H19S17522   4.400   5.633   6.949 -0.1534  0.5232  0.5078
  157SAPE  C22017523   4.219   5.532   6.904 -0.1937 -0.1948  0.5585
  157SAPE  H20R17524   4.185   5.630   6.865  0.0672  0.1214  1.1139
  157SAPE  H20S17525   4.140   5.467   6.947 -0.6734 -2.0123 -2.8024
  157SAPE  H20T17526   4.262   5.470   6.823  0.8234 -1.0540  1.7086
  157SAPE   C3317527   4.472   5.152   6.717  0.5722 -0.5352 -0.0664
  157SAPE   H3X17528   4.428   5.174   6.817  1.0949 -1.0360  0.2840
  157SAPE   H3Y17529   4.562   5.217   6.728 -0.6553  1.2323  0.0045
  157SAPE   C3417530   4.521   5.012   6.696  0.2553 -0.1421 -0.2076
  157SAPE   H4X17531   4.575   4.999   6.600  0.4512  0.7753 -0.2379
  157SAPE   H4Y17532   4.432   4.947   6.687 -1.6750  2.4019 -0.8719
  157SAPE   C3517533   4.615   4.963   6.806  0.2785  0.6966  0.1174
  157SAPE   H5X17534   4.589   5.007   6.905  1.8253  1.5858  0.1588
  157SAPE   H5Y17535   4.723   4.983   6.790  0.3171  0.1234 -0.4203
  157SAPE   C3617536   4.613   4.809   6.808  0.4876  0.8138  0.5689
  157SAPE   H6X17537   4.648   4.770   6.710 -0.3513 -2.4706  1.4465
  157SAPE   H6Y17538   4.511   4.767   6.819  0.3995  0.6313 -0.8527
  157SAPE   C3717539   4.704   4.760   6.911  0.2744  0.4161 -0.3850
  157SAPE   H7X17540   4.804   4.808   6.908 -0.1248  1.2691 -0.5846
  157SAPE   H7Y17541   4.735   4.656   6.891 -0.0804  0.3762 -0.7376
  157SAPE   C3817542   4.637   4.759   7.052  0.0889  0.7726 -0.5579
  157SAPE   H8X17543   4.538   4.709   7.054  0.9178 -0.9683 -1.4104
  157SAPE   H8Y17544   4.621   4.862   7.092 -1.3151 -0.0067  0.9972
  157SAPE   C3917545   4.719   4.667   7.148  0.1028  0.4094 -0.1332
  157SAPE   H9X17546   4.825   4.700   7.156  0.4163 -0.3216 -1.1382
  157SAPE   H9Y17547   4.731   4.563   7.111 -0.0606  1.0053 -1.9699
  157SAPE  C31017548   4.655   4.666   7.282  0.2803 -0.2365 -0.3030
  157SAPE  H10X17549   4.598   4.572   7.302  1.0455 -0.4251  1.2146
  157SAPE  H10Y17550   4.598   4.760   7.297  0.1220 -0.5090  0.9270
  157SAPE  C31117551   4.767   4.652   7.394  0.2656 -0.7365  0.2126
  157SAPE  H11X17552   4.842   4.733   7.381 -0.8285  0.1508 -0.8515
  157SAPE  H11Y17553   4.820   4.556   7.376  1.9599  0.1560  0.2356
  157SAPE  C31217554   4.706   4.668   7.537  0.4562 -0.3876  0.4596
  157SAPE  H12X17555   4.604   4.625   7.540 -0.4393  1.2110 -2.7612
  157SAPE  H12Y17556   4.693   4.776   7.560  0.7537 -0.3270  0.3492
  157SAPE  C31317557   4.797   4.597   7.642  0.1727 -0.1470 -0.8927
  157SAPE  H13X17558   4.902   4.630   7.626 -0.3351  1.0019 -2.0456
  157SAPE  H13Y17559   4.797   4.486   7.627 -1.6368 -0.7246  2.4343
  157SAPE  C31417560   4.746   4.618   7.787 -0.3645  0.3364  0.2360
  157SAPE  H14X17561   4.664   4.548   7.817  3.1503 -3.4472  2.0621
  157SAPE  H14Y17562   4.702   4.720   7.788 -3.5809 -0.9153  2.5554
  157SAPE  C31517563   4.854   4.602   7.895 -0.2860  0.2731  0.5305
  157SAPE  H15X17564   4.943   4.662   7.867 -1.0408  0.4363 -1.8092
  157SAPE  H15Y17565   4.892   4.498   7.888 -1.8306 -0.2343 -0.9566
  157SAPE  C31617566   4.802   4.626   8.035  0.2811 -0.7479  0.2845
  157SAPE  H16X17567   4.723   4.550   8.054  0.0704 -0.2854  1.3220
  157SAPE  H16Y17568   4.760   4.729   8.043  0.7851 -0.2876 -2.2822
  157SAPE  C31717569   4.908   4.611   8.152 -0.1274 -0.7840  0.4878
  157SAPE  H17X17570   4.876   4.680   8.232  2.4959  0.8268  0.2622
  157SAPE  H17Y17571   5.003   4.654   8.114  0.9751 -0.7671  3.0559
  157SAPE  C31817572   4.920   4.472   8.217  0.4496 -1.1889  0.8065
  157SAPE  H18X17573   4.964   4.404   8.141  0.9437  0.0074 -0.0215
  157SAPE  H18Y17574   4.818   4.444   8.251  0.2689  0.3334  1.6337
  157SAPE  H18Z17575   4.982   4.486   8.309 -1.0529 -2.2289  2.0275
  158SAPE     N17576   1.549   4.512   6.353  0.2708 -0.0396 -0.3139
  158SAPE   HN117577   1.566   4.585   6.280 -1.8214  1.6909  0.8218
  158SAPE   HN217578   1.595   4.535   6.443 -1.2720 -1.1885  0.8201
  158SAPE   HN317579   1.581   4.418   6.323 -0.4460  0.1509 -1.8145
  158SAPE   C1217580   1.406   4.502   6.361  0.4936 -0.0273 -0.2009
  158SAPE  H12A17581   1.374   4.426   6.436  1.5174 -1.0259 -0.7509
  158SAPE  H12B17582   1.361   4.495   6.259 -1.3833 -1.2759  0.6361
  158SAPE   C1117583   1.331   4.633   6.399 -0.6299  0.1821  0.2315
  158SAPE  H11A17584   1.349   4.649   6.508  0.0735  0.6471  0.0489
  158SAPE  H11B17585   1.221   4.618   6.390 -0.6364  0.9710 -1.1862
  158SAPE     P17586   1.301   4.874   6.302  0.0890 -0.2771  0.4757
  158SAPE   O1317587   1.375   4.979   6.223  0.4105 -0.0058  0.0513
  158SAPE   O1417588   1.167   4.835   6.250  0.1765 -0.7198 -0.2020
  158SAPE   O1217589   1.385   4.747   6.323 -0.5548  1.1917  0.1368
  158SAPE   O1117590   1.284   4.926   6.450  0.0641  0.1353  0.3143
  158SAPE    C117591   1.400   4.942   6.530  0.4322 -0.1462 -0.1355
  158SAPE    HA17592   1.427   4.837   6.558  0.0293 -0.3760 -0.5867
  158SAPE    HB17593   1.495   4.981   6.488  1.2489 -0.7567  1.0639
  158SAPE    C217594   1.381   5.015   6.665 -0.7662 -0.8466  0.4068
  158SAPE    HS17595   1.467   4.977   6.725  0.0386 -0.5184 -0.5234
  158SAPE   O2117596   1.251   4.995   6.720  0.3948 -0.7440  0.7648
  158SAPE   C2117597   1.253   4.900   6.819 -0.4834 -0.5112 -0.6565
  158SAPE   O2217598   1.340   4.814   6.824  0.7098 -0.0183  0.0940
  158SAPE   C2217599   1.138   4.928   6.916  0.3837  0.0145 -0.3235
  158SAPE   H2R17600   1.153   5.036   6.939  2.3597 -0.0923 -0.8564
  158SAPE   H2S17601   1.046   4.914   6.855 -0.4950  3.8219 -0.1415
  158SAPE    C317602   1.403   5.170   6.643  0.0163  0.0023  0.0034
  158SAPE    HX17603   1.317   5.206   6.583  0.4667 -0.5563 -1.0165
  158SAPE    HY17604   1.495   5.187   6.582  1.1368  1.1947  1.9343
  158SAPE   O3117605   1.411   5.232   6.775  0.1956 -0.0024 -0.9153
  158SAPE   C3117606   1.309   5.324   6.798  0.0773 -0.5713  0.1325
  158SAPE   O3217607   1.226   5.360   6.717  0.3451 -0.3103 -0.2202
  158SAPE   C3217608   1.311   5.339   6.952 -0.7156 -0.1907  0.2156
  158SAPE   H2X17609   1.408   5.379   6.988 -1.0228 -2.0762  3.5391
  158SAPE   H2Y17610   1.300   5.238   6.998  0.0878  0.7953  2.7637
  158SAPE   C2317611   1.140   4.832   7.044  0.6540 -0.6519  0.5885
  158SAPE   H3R17612   1.157   4.725   7.018 -0.8164 -0.9150  0.6404
  158SAPE   H3S17613   1.032   4.824   7.069  0.3510  0.1524 -0.3937
  158SAPE   C2417614   1.204   4.892   7.164  0.4695 -0.3152 -0.2378
  158SAPE   H4R17615   1.312   4.903   7.140  0.4776  1.8455  0.4976
  158SAPE   H4S17616   1.198   4.811   7.239 -0.2028  1.7185  2.0289
  158SAPE   C2517617   1.156   5.023   7.215 -0.4912  0.0252  0.3244
  158SAPE   H5R17618   1.197   5.105   7.154 -1.4384  0.1512 -0.1654
  158SAPE   C2617619   1.064   5.047   7.299  0.9370  0.1026 -0.0121
  158SAPE   H6R17620   1.037   5.153   7.310 -1.2838 -0.4506  0.4454
  158SAPE   C2717621   0.984   4.945   7.390  0.3085 -0.4346  0.1608
  158SAPE   H7R17622   1.060   4.880   7.439  2.1024  2.3751  1.3096
  158SAPE   H7S17623   0.912   4.887   7.328  0.3501  0.1815 -0.4734
  158SAPE   C2817624   0.905   5.026   7.489  0.4957  0.4549  0.2920
  158SAPE   H8R17625   0.883   5.131   7.464  2.0979  0.6956 -0.2156
  158SAPE   C2917626   0.860   4.984   7.613  0.5273 -0.3080 -0.0752
  158SAPE   H9R17627   0.794   5.054   7.668  1.8230  1.2278 -0.4121
  158SAPE  C21017628   0.879   4.850   7.674 -0.0430  0.3245  0.5161
  158SAPE  H10R17629   0.947   4.792   7.608 -1.5646 -1.1392  0.1679
  158SAPE  H10S17630   0.784   4.793   7.665 -1.4358  2.5593  0.4172
  158SAPE  C21117631   0.927   4.858   7.812 -0.4146 -0.0009  0.7183
  158SAPE  H11R17632   1.037   4.865   7.815 -0.3724 -0.4288  0.3519
  158SAPE  C21217633   0.850   4.848   7.923  0.2755 -0.1771 -0.1675
  158SAPE  H12R17634   0.906   4.843   8.017  2.3531  1.5967 -1.1921
  158SAPE  C21317635   0.705   4.839   7.927 -0.4628 -0.4544 -0.2442
  158SAPE  H13R17636   0.670   4.804   7.827  0.2813  1.1834 -1.1182
  158SAPE  H13S17637   0.663   4.940   7.946 -1.1933 -0.6768 -0.6418
  158SAPE  C21417638   0.659   4.744   8.036 -0.4987  0.3030  0.2648
  158SAPE  H14R17639   0.625   4.649   7.992  1.4574 -0.0865 -0.4998
  158SAPE  C21517640   0.648   4.766   8.172 -0.0202  0.2264  0.5306
  158SAPE  H15R17641   0.613   4.681   8.231 -1.4889  0.8979  0.6656
  158SAPE  C21617642   0.685   4.897   8.237 -0.1113  0.2875  0.8270
  158SAPE  H16R17643   0.590   4.938   8.276 -0.3471 -0.9930  1.6715
  158SAPE  H16S17644   0.717   4.981   8.171  2.9007  0.6984  2.5683
  158SAPE  C21717645   0.783   4.883   8.354  0.2376 -0.3115  0.4956
  158SAPE  H17R17646   0.748   4.791   8.404 -1.2720 -0.9992 -1.6944
  158SAPE  H17S17647   0.764   4.968   8.423 -2.3525  0.8549 -1.4869
  158SAPE  C21817648   0.934   4.887   8.313  0.4676  0.5227 -0.3070
  158SAPE  H18R17649   0.948   4.973   8.243 -0.7883  3.0040  2.2717
  158SAPE  H18S17650   0.949   4.790   8.261 -2.0896  0.4012 -0.9674
  158SAPE  C21917651   1.024   4.884   8.433 -0.2730  0.0831  0.4236
  158SAPE  H19R17652   1.027   4.979   8.490 -1.2465  2.2880 -2.8863
  158SAPE  H19S17653   1.130   4.882   8.399 -0.1283 -2.4978  0.8059
  158SAPE  C22017654   1.005   4.762   8.522 -0.1934 -0.0739 -0.3255
  158SAPE  H20R17655   1.063   4.780   8.614  2.1564  1.5830 -2.0026
  158SAPE  H20S17656   1.035   4.667   8.472 -1.3678 -0.8342  0.3676
  158SAPE  H20T17657   0.897   4.752   8.546  0.0171 -0.4414  0.5016
  158SAPE   C3317658   1.205   5.436   7.018  0.0120  0.3051  0.4930
  158SAPE   H3X17659   1.108   5.422   6.967  1.2333 -2.0215 -1.3683
  158SAPE   H3Y17660   1.223   5.544   7.003 -3.1781  0.7286 -1.1054
  158SAPE   C3417661   1.200   5.418   7.168  0.5753 -0.2087 -0.0154
  158SAPE   H4X17662   1.291   5.466   7.208 -0.0644  1.4121 -0.4575
  158SAPE   H4Y17663   1.193   5.315   7.210 -1.5669 -0.2624 -0.3629
  158SAPE   C3517664   1.071   5.491   7.228  0.5046  0.5547  0.7193
  158SAPE   H5X17665   0.976   5.434   7.221  1.0734 -0.3853  0.4458
  158SAPE   H5Y17666   1.057   5.583   7.168 -1.2878  0.6084  1.1929
  158SAPE   C3617667   1.080   5.524   7.380  0.5607  0.2671 -0.3560
  158SAPE   H6X17668   1.174   5.579   7.402  0.4077  0.2097  0.4920
  158SAPE   H6Y17669   1.079   5.429   7.438 -0.9144 -0.3848 -1.3780
  158SAPE   C3717670   0.963   5.611   7.431  0.2872 -0.1406 -0.5564
  158SAPE   H7X17671   0.955   5.716   7.393 -1.8411 -0.8543 -2.3091
  158SAPE   H7Y17672   0.874   5.564   7.384  0.7274  0.4437 -2.0344
  158SAPE   C3817673   0.946   5.624   7.581  0.3918  0.1054  0.4715
  158SAPE   H8X17674   0.970   5.533   7.640  2.9002  3.3617  5.1497
  158SAPE   H8Y17675   0.843   5.659   7.601 -0.1245 -0.8308 -0.4383
  158SAPE   C3917676   1.046   5.711   7.650  0.5859 -0.3701  1.0392
  158SAPE   H9X17677   1.048   5.812   7.604  0.2403 -1.8519 -2.5821
  158SAPE   H9Y17678   1.148   5.669   7.635  0.5511 -0.4527  1.0357
  158SAPE  C31017679   1.021   5.720   7.802  0.3407 -0.1438 -0.0565
  158SAPE  H10X17680   1.121   5.746   7.841  0.6501 -0.1153 -0.8601
  158SAPE  H10Y17681   1.001   5.619   7.844 -0.4325  0.1685  0.3481
  158SAPE  C31117682   0.917   5.815   7.848  0.4062 -0.5590 -0.0100
  158SAPE  H11X17683   0.819   5.766   7.829  0.2776  0.2829 -1.7392
  158SAPE  H11Y17684   0.917   5.905   7.784  1.4285 -0.6660 -0.1900
  158SAPE  C31217685   0.927   5.853   7.993 -0.4740  0.2036 -0.4639
  158SAPE  H12X17686   1.014   5.920   8.008  0.2295 -0.8624  0.3077
  158SAPE  H12Y17687   0.954   5.766   8.056 -2.0876 -0.1563 -0.2164
  158SAPE  C31317688   0.809   5.931   8.041  0.0821  0.0781  0.4196
  158SAPE  H13X17689   0.721   5.871   8.007 -0.6468  2.3896 -2.1385
  158SAPE  H13Y17690   0.796   6.019   7.975 -0.2811 -0.8599 -0.7886
  158SAPE  C31417691   0.788   5.961   8.190 -0.9299  0.3809 -0.0818
  158SAPE  H14X17692   0.688   6.008   8.196 -2.0114 -1.6590 -1.0617
  158SAPE  H14Y17693   0.868   6.027   8.230  0.5114 -1.5224  0.3616
  158SAPE  C31517694   0.797   5.838   8.286 -0.1889  0.0766  0.3310
  158SAPE  H15X17695   0.900   5.821   8.324 -0.6995 -0.3366  1.5747
  158SAPE  H15Y17696   0.762   5.745   8.235 -1.3393 -0.3579  1.8301
  158SAPE  C31617697   0.730   5.861   8.423  0.6280 -0.6380  0.2868
  158SAPE  H16X17698   0.620   5.872   8.413  0.7179 -0.0076 -0.1216
  158SAPE  H16Y17699   0.763   5.962   8.455  1.8817 -0.9689  0.1022
  158SAPE  C31717700   0.770   5.767   8.530  0.2455  1.0940  0.0152
  158SAPE  H17X17701   0.873   5.784   8.569 -0.6046 -0.3216  3.1724
  158SAPE  H17Y17702   0.780   5.666   8.486 -1.1203  1.2649 -0.7322
  158SAPE  C31817703   0.678   5.760   8.654 -1.1929  0.1994 -0.8113
  158SAPE  H18X17704   0.669   5.861   8.698 -1.1514 -0.5049  0.8751
  158SAPE  H18Y17705   0.721   5.692   8.730  0.1076  1.3891 -0.4442
  158SAPE  H18Z17706   0.581   5.716   8.622 -0.2423 -2.7014 -0.0474
  159SAPE     N17707   6.688   1.974   6.099  0.0347 -0.2423  0.0001
  159SAPE   HN117708   6.685   2.005   6.198 -0.7834 -2.2753  0.6598
  159SAPE   HN217709   6.695   1.870   6.096  1.8174 -0.1320 -2.1164
  159SAPE   HN317710   6.776   2.001   6.050 -0.8670  1.3092 -0.8446
  159SAPE   C1217711   6.568   2.022   6.034  1.0654 -0.2683  0.2604
  159SAPE  H12A17712   6.571   1.994   5.926  0.1194  3.8389 -1.0229
  159SAPE  H12B17713   6.562   2.132   6.051  1.0469 -0.2514  0.1446
  159SAPE   C1117714   6.447   1.958   6.109 -0.0567 -0.0367 -0.3393
  159SAPE  H11A17715   6.457   1.848   6.102 -3.3895 -0.7231  2.6399
  159SAPE  H11B17716   6.356   1.999   6.060 -0.5050  0.9540  1.2189
  159SAPE     P17717   6.296   1.974   6.316 -0.0061  0.2141  0.1407
  159SAPE   O1317718   6.202   2.069   6.246  0.2820  0.0258  0.1092
  159SAPE   O1417719   6.254   1.833   6.331  0.3050 -0.5989 -0.0048
  159SAPE   O1217720   6.441   1.983   6.243  0.3473  0.2710 -0.4897
  159SAPE   O1117721   6.333   2.041   6.457 -0.1921  0.2745  0.2036
  159SAPE    C117722   6.449   2.008   6.532  0.1655  0.5820 -0.3988
  159SAPE    HA17723   6.458   1.898   6.543  2.2148  0.7022 -0.5157
  159SAPE    HB17724   6.542   2.037   6.479  0.9585  2.0552  1.6804
  159SAPE    C217725   6.451   2.072   6.671  0.3836 -0.5155 -0.4281
  159SAPE    HS17726   6.536   2.039   6.735  0.6735 -0.9541 -1.0317
  159SAPE   O2117727   6.324   2.047   6.733  0.0344  0.5099  0.1958
  159SAPE   C2117728   6.313   1.924   6.782 -0.0987  0.0167 -0.0176
  159SAPE   O2217729   6.399   1.837   6.776 -0.6340  0.4628 -0.1006
  159SAPE   C2217730   6.180   1.908   6.855 -0.0445  0.1018  0.5178
  159SAPE   H2R17731   6.100   1.917   6.778 -0.1015 -0.1861  0.5408
  159SAPE   H2S17732   6.181   1.801   6.885 -0.3221  0.1203  0.5943
  159SAPE    C317733   6.477   2.227   6.657  0.2764  0.0707  0.7806
  159SAPE    HX17734   6.388   2.274   6.610 -0.5260  0.0969  2.2706
  159SAPE    HY17735   6.568   2.235   6.594 -0.9643 -1.0957 -1.2415
  159SAPE   O3117736   6.497   2.282   6.788 -0.3380 -0.0766 -0.3184
  159SAPE   C3117737   6.526   2.410   6.805 -0.5721 -0.5562  0.0848
  159SAPE   O3217738   6.560   2.486   6.715  0.2071 -0.7385 -0.0005
  159SAPE   C3217739   6.515   2.430   6.957  0.2256 -0.3058  0.4145
  159SAPE   H2X17740   6.584   2.510   6.990  0.4317 -0.1075 -0.4845
  159SAPE   H2Y17741   6.546   2.337   7.009 -0.7143 -0.5603  0.5562
  159SAPE   C2317742   6.157   2.015   6.971  0.0506 -0.5659 -0.2977
  159SAPE   H3R17743   6.060   1.984   7.017 -0.0566  0.7054  0.3642
  159SAPE   H3S17744   6.139   2.118   6.934  0.8564 -1.5357 -3.8116
  159SAPE   C2417745   6.251   2.011   7.094 -0.1386  0.2177  0.4403
  159SAPE   H4R17746   6.356   2.019   7.060  0.1212  1.7645  1.5104
  159SAPE   H4S17747   6.243   1.910   7.139  0.3147 -0.2962 -0.5914
  159SAPE   C2517748   6.214   2.119   7.199 -0.0736 -0.6867  1.1281
  159SAPE   H5R17749   6.187   2.216   7.156 -2.2700 -1.1685  1.2876
  159SAPE   C2617750   6.212   2.107   7.334  0.1816  0.2096 -0.4114
  159SAPE   H6R17751   6.183   2.192   7.397 -2.0485 -0.1012 -0.9298
  159SAPE   C2717752   6.248   1.985   7.427  0.0825  0.6533  0.1651
  159SAPE   H7R17753   6.223   1.896   7.365  1.7089 -1.0019  1.7456
  159SAPE   H7S17754   6.177   1.982   7.512 -1.0577  2.2441 -0.6662
  159SAPE   C2817755   6.393   1.985   7.462 -0.3893 -0.5734 -0.2976
  159SAPE   H8R17756   6.465   1.984   7.378  3.1901 -0.1376  2.5216
  159SAPE   C2917757   6.438   1.967   7.585  0.3218 -0.0729 -0.1311
  159SAPE   H9R17758   6.547   1.955   7.594  0.1417 -2.4006 -0.3660
  159SAPE  C21017759   6.359   1.949   7.710  0.4311 -0.1844  0.2216
  159SAPE  H10R17760   6.277   2.024   7.713  2.7348  2.5010  0.4469
  159SAPE  H10S17761   6.443   1.971   7.780  0.7647  1.7052 -0.7064
  159SAPE  C21117762   6.291   1.817   7.737  0.2716  0.0529 -0.2313
  159SAPE  H11R17763   6.253   1.767   7.647  3.0340  0.3768 -1.6876
  159SAPE  C21217764   6.271   1.759   7.864 -0.0661 -0.0955  0.9646
  159SAPE  H12R17765   6.212   1.666   7.867 -0.2594 -0.0079  0.2141
  159SAPE  C21317766   6.320   1.815   7.999  0.8095  0.8128 -0.0900
  159SAPE  H13R17767   6.232   1.847   8.059 -1.9731 -1.3594 -2.6526
  159SAPE  H13S17768   6.390   1.900   7.989  0.7606  0.9668  0.8309
  159SAPE  C21417769   6.401   1.703   8.065  0.1343 -0.7481 -0.6928
  159SAPE  H14R17770   6.503   1.692   8.025  0.3485  0.3491 -0.4867
  159SAPE  C21517771   6.366   1.645   8.178 -0.6860  0.2441  0.2954
  159SAPE  H15R17772   6.441   1.574   8.215 -0.4796  1.1479  1.6507
  159SAPE  C21617773   6.238   1.661   8.257  0.3219 -0.4454 -0.4303
  159SAPE  H16R17774   6.147   1.680   8.196 -0.7291 -2.7861  0.2963
  159SAPE  H16S17775   6.241   1.748   8.327 -0.7428 -1.3416  0.7809
  159SAPE  C21717776   6.197   1.533   8.332 -0.0934 -0.1812 -0.0411
  159SAPE  H17R17777   6.196   1.455   8.253  2.0742  1.7819 -2.1693
  159SAPE  H17S17778   6.093   1.547   8.369 -0.2442  1.8823 -1.0581
  159SAPE  C21817779   6.295   1.509   8.452  0.2007 -0.1322 -0.7783
  159SAPE  H18R17780   6.277   1.592   8.524  1.3366 -1.0200  0.5649
  159SAPE  H18S17781   6.404   1.516   8.429  0.6682 -0.2418  1.2385
  159SAPE  C21917782   6.276   1.375   8.519 -0.1580 -0.4027 -0.2842
  159SAPE  H19R17783   6.300   1.306   8.436 -0.0470  1.7295 -2.1341
  159SAPE  H19S17784   6.168   1.357   8.537  0.0623 -0.8135  0.7249
  159SAPE  C22017785   6.362   1.353   8.645  0.1388  0.3803  0.2374
  159SAPE  H20R17786   6.295   1.329   8.730 -1.5356 -0.9020 -1.3724
  159SAPE  H20S17787   6.419   1.444   8.672 -0.4274  0.8103 -0.0143
  159SAPE  H20T17788   6.418   1.264   8.607 -0.7630 -0.9378  1.8646
  159SAPE   C3317789   6.368   2.450   6.994  0.2392 -0.0704  0.3763
  159SAPE   H3X17790   6.308   2.374   6.940 -0.1885  1.0401 -0.7683
  159SAPE   H3Y17791   6.328   2.546   6.956 -2.2983 -0.2195  2.3972
  159SAPE   C3417792   6.321   2.472   7.138 -0.4797  0.4784  0.9663
  159SAPE   H4X17793   6.309   2.371   7.184 -0.4006  0.1421  0.2619
  159SAPE   H4Y17794   6.220   2.517   7.130 -0.6120 -0.0173 -0.5152
  159SAPE   C3517795   6.426   2.555   7.221 -0.6442 -0.8431  0.7050
  159SAPE   H5X17796   6.429   2.661   7.186  0.6584 -0.7307  1.1224
  159SAPE   H5Y17797   6.532   2.526   7.204 -0.6670 -1.5412  1.6707
  159SAPE   C3617798   6.381   2.561   7.366 -0.6077  0.6014 -0.0968
  159SAPE   H6X17799   6.285   2.615   7.381  0.6122  2.9569 -0.3239
  159SAPE   H6Y17800   6.462   2.627   7.402  0.3378  0.6191 -2.1471
  159SAPE   C3717801   6.398   2.426   7.439  0.3822 -0.4952 -0.0981
  159SAPE   H7X17802   6.505   2.400   7.425  0.9446  0.7298  1.6030
  159SAPE   H7Y17803   6.339   2.342   7.396 -1.1590 -0.3865  1.6854
  159SAPE   C3817804   6.361   2.413   7.592 -0.5526 -0.0948  0.2587
  159SAPE   H8X17805   6.361   2.308   7.630 -2.1639 -0.8041 -1.4979
  159SAPE   H8Y17806   6.257   2.449   7.611 -1.9943 -2.3957 -2.4062
  159SAPE   C3917807   6.466   2.492   7.671 -0.3536  0.6533 -0.6816
  159SAPE   H9X17808   6.460   2.595   7.630 -2.7743 -0.5996 -3.9872
  159SAPE   H9Y17809   6.568   2.449   7.659 -0.4338 -0.1641  1.2750
  159SAPE  C31017810   6.419   2.488   7.818  0.3821  0.5386  0.5693
  159SAPE  H10X17811   6.395   2.385   7.852  0.5856  0.9054  1.8413
  159SAPE  H10Y17812   6.321   2.539   7.830  0.7523  1.2661  0.5638
  159SAPE  C31117813   6.523   2.539   7.915  0.4123  0.3156 -0.8595
  159SAPE  H11X17814   6.617   2.482   7.901  0.6274  0.0579  1.2766
  159SAPE  H11Y17815   6.498   2.517   8.021  1.1916  0.4866 -0.6309
  159SAPE  C31217816   6.546   2.690   7.913 -0.1078  0.6683  0.5214
  159SAPE  H12X17817   6.445   2.736   7.905 -0.0806  0.5964 -0.3158
  159SAPE  H12Y17818   6.599   2.705   7.817  1.6419 -0.1484  1.3259
  159SAPE  C31317819   6.623   2.760   8.031  1.1088 -0.5987 -0.0332
  159SAPE  H13X17820   6.646   2.862   7.993  1.7070 -1.2494 -1.5205
  159SAPE  H13Y17821   6.718   2.710   8.060  0.8610 -0.7946  0.4526
  159SAPE  C31417822   6.538   2.776   8.157 -0.0384  0.9935  0.1643
  159SAPE  H14X17823   6.521   2.671   8.191 -0.2754  1.2216  0.7518
  159SAPE  H14Y17824   6.439   2.820   8.132 -0.0372  0.1718 -1.4145
  159SAPE  C31517825   6.606   2.840   8.280 -0.0152  0.4383 -0.8427
  159SAPE  H15X17826   6.521   2.855   8.350  0.7916  0.4095  0.1749
  159SAPE  H15Y17827   6.637   2.943   8.252 -1.8505  1.2006 -0.2179
  159SAPE  C31617828   6.716   2.751   8.336  0.8112  0.6947 -0.3721
  159SAPE  H16X17829   6.807   2.743   8.273  0.7301 -0.4312 -0.3734
  159SAPE  H16Y17830   6.684   2.645   8.348  1.8946  0.3650 -0.2291
  159SAPE  C31717831   6.760   2.791   8.472 -0.8609 -0.3056  0.1587
  159SAPE  H17X17832   6.682   2.796   8.552  0.2948 -2.9466  1.5776
  159SAPE  H17Y17833   6.799   2.894   8.464 -0.6487 -0.2776  1.3000
  159SAPE  C31817834   6.879   2.711   8.534 -0.2566  0.3489 -0.1178
  159SAPE  H18X17835   6.943   2.780   8.593 -0.3941  0.1207  0.3017
  159SAPE  H18Y17836   6.939   2.661   8.455  1.0969 -1.1433  1.7766
  159SAPE  H18Z17837   6.835   2.634   8.601  2.7492 -0.1314  1.4760
  160SAPE     N17838   5.922   5.633   6.371 -0.1836  0.0166 -0.1688
  160SAPE   HN117839   5.993   5.616   6.296 -1.0937 -0.5779 -0.9276
  160SAPE   HN217840   5.934   5.556   6.440  0.2115  0.5299  0.3399
  160SAPE   HN317841   5.826   5.631   6.330 -0.2568  0.6322 -0.0331
  160SAPE   C1217842   5.947   5.766   6.440  0.3270  0.0268  0.4909
  160SAPE  H12A17843   6.033   5.762   6.509 -0.8945 -0.5880  2.0190
  160SAPE  H12B17844   5.851   5.788   6.492 -0.9588  0.3995 -1.8581
  160SAPE   C1117845   5.986   5.875   6.335  0.2990 -1.2733  0.2622
  160SAPE  H11A17846   6.010   5.968   6.391 -0.5861 -0.5196 -0.5637
  160SAPE  H11B17847   5.901   5.898   6.268  0.3919  0.0435  0.5512
  160SAPE     P17848   6.163   5.908   6.139 -0.3204 -0.0683 -0.2782
  160SAPE   O1317849   6.235   5.810   6.054  0.0616  0.0555  0.2244
  160SAPE   O1417850   6.062   5.995   6.073  0.0221  0.4034 -0.3012
  160SAPE   O1217851   6.101   5.834   6.261  0.3301 -0.1925 -0.5082
  160SAPE   O1117852   6.265   6.016   6.201 -0.0413 -0.1431 -0.0924
  160SAPE    C117853   6.270   6.062   6.331  0.1074 -0.2841  0.4593
  160SAPE    HA17854   6.334   6.153   6.332  1.3734 -1.1506  1.7332
  160SAPE    HB17855   6.172   6.106   6.360 -0.5749 -1.3982 -0.1171
  160SAPE    C217856   6.329   5.964   6.442 -0.0323  0.6713  0.6662
  160SAPE    HS17857   6.274   5.867   6.442  2.9434 -1.2733 -2.6230
  160SAPE   O2117858   6.345   6.025   6.571 -0.4406 -0.4172  0.0431
  160SAPE   C2117859   6.259   5.977   6.662  0.8943  0.1922  0.2232
  160SAPE   O2217860   6.179   5.884   6.644  0.3429  0.3924 -0.0261
  160SAPE   C2217861   6.271   6.047   6.799  0.0000 -0.5124  0.7134
  160SAPE   H2R17862   6.376   6.038   6.836 -0.8900 -2.5848  3.0067
  160SAPE   H2S17863   6.250   6.154   6.778  0.0403 -0.4192  1.1266
  160SAPE    C317864   6.465   5.924   6.387 -0.5873 -0.0974 -0.1585
  160SAPE    HX17865   6.528   6.015   6.391 -2.6882  1.4051  2.4535
  160SAPE    HY17866   6.452   5.896   6.280  1.6616 -1.1022 -0.2230
  160SAPE   O3117867   6.525   5.818   6.467 -0.3815  0.0157  0.3107
  160SAPE   C3117868   6.467   5.700   6.451 -0.4709 -0.4658 -0.2578
  160SAPE   O3217869   6.389   5.666   6.364 -0.4565 -0.2618  1.1161
  160SAPE   C3217870   6.514   5.615   6.570 -0.1579  0.1683 -0.1785
  160SAPE   H2X17871   6.615   5.584   6.538 -0.1615  2.6010 -2.9260
  160SAPE   H2Y17872   6.451   5.524   6.562 -1.5639  1.2233 -1.7330
  160SAPE   C2317873   6.191   5.974   6.906  0.2522  0.5529 -0.9498
  160SAPE   H3R17874   6.229   5.875   6.940 -0.7350  0.6082  0.3712
  160SAPE   H3S17875   6.087   5.973   6.868  0.6681  0.5071 -2.1280
  160SAPE   C2417876   6.193   6.064   7.033  0.1011 -0.4715 -0.3628
  160SAPE   H4R17877   6.114   6.030   7.103  0.9977  1.0492  1.4659
  160SAPE   H4S17878   6.156   6.166   7.007 -2.5388 -1.0857  0.6021
  160SAPE   C2517879   6.325   6.073   7.102 -0.5404  0.3317 -0.3794
  160SAPE   H5R17880   6.409   6.109   7.041  1.7221 -1.6812  1.3667
  160SAPE   C2617881   6.353   6.036   7.226  0.4307  0.4754  0.3673
  160SAPE   H6R17882   6.459   6.031   7.258  0.9083  1.9516 -0.8389
  160SAPE   C2717883   6.253   5.973   7.324 -0.2548 -0.2120  0.6611
  160SAPE   H7R17884   6.301   5.898   7.391 -0.1318  0.9763  1.9346
  160SAPE   H7S17885   6.191   5.904   7.262 -0.0350 -0.0412  0.2485
  160SAPE   C2817886   6.158   6.070   7.395 -0.1301 -0.3476  0.0951
  160SAPE   H8R17887   6.098   6.142   7.337  0.1268 -0.2228 -0.0153
  160SAPE   C2917888   6.130   6.066   7.528  0.3479  0.1496 -0.4515
  160SAPE   H9R17889   6.078   6.151   7.576 -0.0979 -0.5768  0.3797
  160SAPE  C21017890   6.190   5.961   7.625  0.1430 -0.1252  0.2839
  160SAPE  H10R17891   6.256   6.015   7.696 -0.2458 -0.7546  1.1465
  160SAPE  H10S17892   6.252   5.893   7.564 -0.0309  0.5410 -0.6721
  160SAPE  C21117893   6.093   5.876   7.697 -0.0639  0.2629  0.4249
  160SAPE  H11R17894   6.062   5.790   7.636 -0.5935 -0.4165  1.6225
  160SAPE  C21217895   6.050   5.882   7.827 -0.1582  0.0871  0.8092
  160SAPE  H12R17896   5.978   5.803   7.852  2.4047 -3.9732 -3.0713
  160SAPE  C21317897   6.073   5.991   7.927 -0.3029  0.7153  0.0018
  160SAPE  H13R17898   6.146   6.067   7.891  0.7926 -0.6100 -0.6494
  160SAPE  H13S17899   6.116   5.944   8.018  0.2921 -0.5920 -0.9331
  160SAPE  C21417900   5.944   6.062   7.940  0.5779 -0.6163 -0.0597
  160SAPE  H14R17901   5.902   6.116   7.854  1.3858 -0.4524 -0.3605
  160SAPE  C21517902   5.874   6.058   8.056  0.1158 -0.0978 -0.3984
  160SAPE  H15R17903   5.779   6.113   8.064 -0.5333 -1.1698 -0.5257
  160SAPE  C21617904   5.909   5.993   8.185  0.5372 -0.3841  0.4484
  160SAPE  H16R17905   5.943   6.068   8.260 -0.4477 -0.9187  1.4642
  160SAPE  H16S17906   5.990   5.917   8.179  1.9899  1.2227 -1.8948
  160SAPE  C21717907   5.786   5.926   8.244 -0.7010 -0.5506 -0.0819
  160SAPE  H17R17908   5.817   5.886   8.343  1.5228  1.6086  0.1801
  160SAPE  H17S17909   5.760   5.838   8.181 -0.8576 -1.3381  1.0587
  160SAPE  C21817910   5.652   6.003   8.252 -0.3314 -0.6306  0.2111
  160SAPE  H18R17911   5.602   6.007   8.153 -1.7940  2.5070  0.9495
  160SAPE  H18S17912   5.677   6.107   8.283 -1.7085 -0.0619 -0.4924
  160SAPE  C21917913   5.553   5.943   8.351  0.3529 -0.1388 -0.0832
  160SAPE  H19R17914   5.601   5.953   8.451 -1.8170 -1.4915  1.1575
  160SAPE  H19S17915   5.543   5.834   8.330 -1.5832  0.5343 -3.2244
  160SAPE  C22017916   5.413   6.007   8.350 -0.2320 -0.6788 -0.2361
  160SAPE  H20R17917   5.358   6.009   8.254  0.0869  1.2365 -0.4209
  160SAPE  H20S17918   5.422   6.116   8.366  0.3106 -0.3746 -2.3651
  160SAPE  H20T17919   5.343   5.964   8.425 -0.8188  1.3624  0.4402
  160SAPE   C3317920   6.488   5.680   6.709  0.8055 -0.3127 -0.5241
  160SAPE   H3X17921   6.387   5.725   6.698  0.4206 -1.3501 -1.4417
  160SAPE   H3Y17922   6.565   5.755   6.736 -0.2980  1.6932 -2.5780
  160SAPE   C3417923   6.475   5.586   6.839  0.0565 -0.2078 -0.1410
  160SAPE   H4X17924   6.566   5.523   6.837  0.6467  0.5969  0.5144
  160SAPE   H4Y17925   6.378   5.532   6.843  0.3718 -0.7189  2.4982
  160SAPE   C3517926   6.473   5.674   6.964 -0.2568 -0.3254  0.0115
  160SAPE   H5X17927   6.380   5.736   6.960  0.9519  1.5273 -0.4888
  160SAPE   H5Y17928   6.560   5.742   6.968 -0.1201 -0.1001 -3.5397
  160SAPE   C3617929   6.472   5.593   7.098 -0.3668  0.3407  0.1296
  160SAPE   H6X17930   6.572   5.546   7.104  0.0339  0.5448 -3.3556
  160SAPE   H6Y17931   6.398   5.510   7.092  0.3598 -0.2321 -1.4122
  160SAPE   C3717932   6.449   5.682   7.224 -0.0886  0.5331 -0.6086
  160SAPE   H7X17933   6.342   5.709   7.239 -0.3093 -0.2586 -0.7285
  160SAPE   H7Y17934   6.514   5.772   7.217  2.0983 -0.6095  2.5499
  160SAPE   C3817935   6.486   5.611   7.356 -0.9355 -0.0260  0.2609
  160SAPE   H8X17936   6.592   5.577   7.353 -1.7784 -3.0717  1.0910
  160SAPE   H8Y17937   6.427   5.517   7.348  0.9156 -1.1414 -1.3131
  160SAPE   C3917938   6.440   5.672   7.490  0.2301  0.9897 -0.5799
  160SAPE   H9X17939   6.332   5.690   7.469  0.5699  1.1547 -2.2821
  160SAPE   H9Y17940   6.479   5.776   7.499 -0.9552  1.5153 -1.1501
  160SAPE  C31017941   6.474   5.585   7.610 -0.5038 -0.0484 -0.3837
  160SAPE  H10X17942   6.585   5.592   7.621 -0.7403  1.2226  1.6288
  160SAPE  H10Y17943   6.447   5.481   7.583  1.0435 -0.3652 -0.8634
  160SAPE  C31117944   6.408   5.633   7.738  0.2046  0.4070  0.4783
  160SAPE  H11X17945   6.402   5.554   7.816 -0.4471 -0.1449 -0.1225
  160SAPE  H11Y17946   6.300   5.651   7.717  0.1482  0.3099  0.6792
  160SAPE  C31217947   6.477   5.757   7.801  0.2932  0.2412 -0.5859
  160SAPE  H12X17948   6.470   5.837   7.724  1.1181 -0.2421 -1.1830
  160SAPE  H12Y17949   6.585   5.733   7.808  0.4314  1.2317  1.3048
  160SAPE  C31317950   6.416   5.807   7.931  1.0603  0.5679  0.6038
  160SAPE  H13X17951   6.433   5.727   8.005  1.0935 -0.0979 -0.1151
  160SAPE  H13Y17952   6.308   5.831   7.918  1.0544  0.8464  1.1366
  160SAPE  C31417953   6.488   5.932   7.978 -0.2995 -0.8330  0.0346
  160SAPE  H14X17954   6.492   6.007   7.897 -0.3464  0.6516  1.3492
  160SAPE  H14Y17955   6.591   5.893   7.990 -0.2161 -1.0505 -1.2373
  160SAPE  C31517956   6.447   5.991   8.118  0.2036 -0.1751  0.2262
  160SAPE  H15X17957   6.413   5.914   8.191 -0.2808 -2.6192 -2.4160
  160SAPE  H15Y17958   6.368   6.068   8.116 -0.5154 -0.9159 -0.5373
  160SAPE  C31617959   6.561   6.073   8.174 -0.2822 -0.6262  0.1483
  160SAPE  H16X17960   6.531   6.177   8.197  0.9932  0.0086 -0.9142
  160SAPE  H16Y17961   6.636   6.095   8.095 -1.5605  1.8920 -0.4755
  160SAPE  C31717962   6.639   6.013   8.288  0.5078 -0.2762 -0.3432
  160SAPE  H17X17963   6.706   5.934   8.247 -0.0231 -0.8024 -0.2110
  160SAPE  H17Y17964   6.557   5.976   8.353 -0.1625 -1.8539 -1.9930
  160SAPE  C31817965   6.720   6.120   8.377  0.1519  0.3576  0.1433
  160SAPE  H18X17966   6.808   6.165   8.326 -0.1721 -0.3880 -1.0966
  160SAPE  H18Y17967   6.752   6.068   8.470 -2.5494  0.0109  0.9618
  160SAPE  H18Z17968   6.648   6.203   8.397 -0.0427  0.1577  0.2725
  161SOPE     N17969   2.751   3.471  10.753  0.6335 -0.0188 -0.1369
  161SOPE   HN117970   2.773   3.452  10.853 -0.0737 -3.3074 -0.4995
  161SOPE   HN217971   2.668   3.414  10.728 -0.3082  1.0998  0.3731
  161SOPE   HN317972   2.826   3.443  10.686 -0.4690 -1.9209 -0.6459
  161SOPE   C1217973   2.715   3.616  10.762  0.1415 -0.4075 -0.1542
  161SOPE  H12A17974   2.685   3.644  10.658 -0.4947  0.0723  0.1519
  161SOPE  H12B17975   2.794   3.674  10.813 -1.5330  1.1342  0.8233
  161SOPE   C1117976   2.594   3.643  10.858 -0.4010 -0.9994 -0.3751
  161SOPE  H11A17977   2.575   3.753  10.857 -0.6479 -0.9522  2.1533
  161SOPE  H11B17978   2.618   3.610  10.962 -0.7256  0.7647  0.3079
  161SOPE     P17979   2.329   3.619  10.847 -0.0598  0.0502 -0.1145
  161SOPE   O1317980   2.310   3.767  10.842  0.0299 -0.3316  0.3062
  161SOPE   O1417981   2.292   3.552  10.967  0.0669 -0.5305  0.2325
  161SOPE   O1217982   2.478   3.569  10.812 -0.0713 -0.9529 -0.2538
  161SOPE   O1117983   2.260   3.554  10.720  0.4444  0.1606 -0.1883
  161SOPE    C117984   2.261   3.626  10.595 -0.0389 -0.5746 -0.0556
  161SOPE    HA17985   2.287   3.734  10.608  0.0060 -0.3625 -1.6535
  161SOPE    HB17986   2.167   3.619  10.536  0.4888  1.9230 -1.3720
  161SOPE    C217987   2.376   3.580  10.501 -0.0429  0.4134 -0.1418
  161SOPE    HS17988   2.474   3.604  10.548 -0.3250  2.0269 -0.3483
  161SOPE   O2117989   2.369   3.642  10.371 -0.0001  0.3815  0.2368
  161SOPE   C2117990   2.440   3.746  10.344  0.3078 -0.6513  0.3311
  161SOPE   O2217991   2.524   3.798  10.421  0.8884  0.2462  0.1316
  161SOPE   C2217992   2.421   3.791  10.200  0.3959 -0.1009 -0.2270
  161SOPE   H2R17993   2.326   3.848  10.192 -0.0405 -0.8532 -0.5085
  161SOPE   H2S17994   2.421   3.701  10.135  1.4975  1.2462 -2.1693
  161SOPE    C317995   2.371   3.429  10.486 -0.5846  0.4370  0.2811
  161SOPE    HX17996   2.265   3.416  10.455 -0.6998 -0.4445  0.9626
  161SOPE    HY17997   2.371   3.376  10.584  1.5326  1.4037  0.8741
  161SOPE   O3117998   2.459   3.381  10.385 -0.7693  0.4869 -0.1130
  161SOPE   C3117999   2.412   3.302  10.297  0.2808  0.1763  0.3423
  161SOPE   O3218000   2.303   3.246  10.301 -0.8432 -0.8044 -0.1533
  161SOPE   C3218001   2.511   3.259  10.195  0.1629  0.2602 -0.2310
  161SOPE   H2X18002   2.485   3.161  10.150  0.9924 -0.5319  0.9557
  161SOPE   H2Y18003   2.611   3.249  10.243 -0.8210  2.1575  2.5033
  161SOPE   C2318004   2.528   3.886  10.151 -0.2271 -0.1491 -0.1140
  161SOPE   H3R18005   2.630   3.857  10.183  1.2587  4.7074  0.4220
  161SOPE   H3S18006   2.515   3.989  10.192 -1.0646  0.3325 -1.4970
  161SOPE   C2418007   2.515   3.906   9.998  0.4123 -0.1471  0.0471
  161SOPE   H4R18008   2.529   3.808   9.947  2.2622  0.5722 -0.9286
  161SOPE   H4S18009   2.416   3.951   9.978  0.7544  0.5018 -0.2354
  161SOPE   C2518010   2.614   4.017   9.932 -0.0872  1.3518  0.0671
  161SOPE   H5R18011   2.572   4.114   9.965 -0.3790  0.0695  4.0028
  161SOPE   H5S18012   2.712   3.991   9.979 -0.2120 -0.3136 -0.5328
  161SOPE   C2618013   2.619   4.011   9.782 -0.0763  0.0948 -0.0347
  161SOPE   H6R18014   2.676   4.102   9.757 -1.2034  1.2752  1.4707
  161SOPE   H6S18015   2.687   3.929   9.750  0.1011 -0.0366  0.6539
  161SOPE   C2718016   2.480   4.000   9.724 -0.0196  0.0734  0.5750
  161SOPE   H7R18017   2.425   3.907   9.751  0.2013 -0.8294 -1.8528
  161SOPE   H7S18018   2.418   4.078   9.774 -0.0440  0.7342 -0.4602
  161SOPE   C2818019   2.478   4.010   9.571  0.4845 -0.0281  0.0357
  161SOPE   H8R18020   2.373   4.019   9.537 -0.4086 -1.2087  2.2704
  161SOPE   H8S18021   2.530   4.104   9.546 -1.3030  0.5121 -1.9174
  161SOPE   C2918022   2.543   3.892   9.502 -0.0453 -0.3213 -0.2332
  161SOPE   H9118023   2.546   3.802   9.565 -0.1221  0.7940  1.4339
  161SOPE  C21018024   2.618   3.888   9.389  0.2346 -0.2994  0.2629
  161SOPE  H10118025   2.656   3.793   9.347  0.3794  0.3338 -1.0937
  161SOPE  C21118026   2.649   3.996   9.286 -0.7048  0.4274  0.8971
  161SOPE  H11R18027   2.748   4.045   9.305  0.1492 -0.8657 -0.0361
  161SOPE  H11S18028   2.574   4.078   9.285  0.6984  1.8006 -1.2084
  161SOPE  C21218029   2.675   3.933   9.147 -0.1879  0.7567  0.2408
  161SOPE  H12R18030   2.590   3.876   9.102  0.4270  0.3688 -0.4467
  161SOPE  H12S18031   2.761   3.863   9.158 -0.1848  0.9791  1.8264
  161SOPE  C21318032   2.712   4.031   9.046 -0.0176 -0.3166  0.6383
  161SOPE  H13R18033   2.799   4.087   9.087  0.2158  0.6649 -1.0879
  161SOPE  H13S18034   2.630   4.102   9.020  1.3154  0.7455 -0.8506
  161SOPE  C21418035   2.759   3.964   8.910  0.1958 -0.4689  0.1090
  161SOPE  H14R18036   2.721   3.861   8.894  0.5412 -0.5580 -0.1288
  161SOPE  H14S18037   2.869   3.951   8.904 -0.0937 -3.4108 -0.0907
  161SOPE  C21518038   2.722   4.050   8.787  0.2331  0.7462  0.1191
  161SOPE  H15R18039   2.780   4.144   8.794  0.3495  0.9145 -2.1330
  161SOPE  H15S18040   2.615   4.078   8.787  0.0197 -0.0129  0.8893
  161SOPE  C21618041   2.747   3.975   8.657  0.4458  0.4440  0.8848
  161SOPE  H16R18042   2.665   3.899   8.651 -1.5889  2.6641 -1.8764
  161SOPE  H16S18043   2.842   3.917   8.664 -0.0423 -0.2089  2.5716
  161SOPE  C21718044   2.733   4.070   8.534  0.3198  0.5384  0.5534
  161SOPE  H17R18045   2.636   4.123   8.536 -0.2713 -0.3925 -1.3391
  161SOPE  H17S18046   2.733   4.014   8.438  2.2613 -1.0436  1.4140
  161SOPE  C21818047   2.845   4.177   8.532  0.3859 -0.3342  0.1105
  161SOPE  H18R18048   2.942   4.124   8.537  0.8023  0.5609  2.3918
  161SOPE  H18S18049   2.841   4.239   8.624  1.3971 -2.7013  1.8625
  161SOPE  H18T18050   2.847   4.236   8.438  0.9804 -0.7846 -0.1706
  161SOPE   C3318051   2.537   3.370  10.087  0.0175  0.2307  0.1719
  161SOPE   H3X18052   2.630   3.346  10.031 -1.2936 -2.2693 -1.0775
  161SOPE   H3Y18053   2.566   3.466  10.134  2.4426 -0.0362 -0.6354
  161SOPE   C3418054   2.418   3.372   9.992 -0.2056 -0.1381  0.7354
  161SOPE   H4X18055   2.327   3.395  10.050  1.1257 -1.7891  3.7010
  161SOPE   H4Y18056   2.408   3.274   9.942  0.0101  0.6644 -0.9763
  161SOPE   C3518057   2.437   3.473   9.878 -0.3148  0.2177  0.2340
  161SOPE   H5X18058   2.528   3.447   9.820  1.2626 -1.1483  3.1356
  161SOPE   H5Y18059   2.430   3.574   9.923  2.6895  0.2091  0.9400
  161SOPE   C3618060   2.322   3.464   9.773  0.0314 -0.1288  0.3930
  161SOPE   H6X18061   2.229   3.495   9.824  1.0858  1.9308  1.1808
  161SOPE   H6Y18062   2.309   3.357   9.745  0.8697 -0.3563  0.8361
  161SOPE   C3718063   2.345   3.539   9.649 -0.1318  0.2515 -0.4171
  161SOPE   H7X18064   2.384   3.640   9.675 -2.1788  1.1409 -0.6373
  161SOPE   H7Y18065   2.251   3.557   9.594 -1.2322  0.9599  1.5866
  161SOPE   C3818066   2.448   3.469   9.563  0.9411 -0.3668  0.8073
  161SOPE   H8X18067   2.392   3.375   9.542  1.7252 -0.7253  0.2442
  161SOPE   H8Y18068   2.544   3.447   9.615  1.3608  3.0878  1.7489
  161SOPE   C3918069   2.466   3.542   9.424 -0.7493 -0.5959 -0.4955
  161SOPE   H9X18070   2.542   3.623   9.435 -1.8109  0.7139 -2.2180
  161SOPE   H9Y18071   2.368   3.587   9.397 -0.5339  0.6901  0.7277
  161SOPE  C31018072   2.518   3.451   9.316 -0.1560 -0.4026  0.5970
  161SOPE  H10X18073   2.438   3.379   9.289  0.9972 -1.4686 -0.1189
  161SOPE  H10Y18074   2.610   3.400   9.352 -0.1515 -0.9943 -0.2365
  161SOPE  C31118075   2.541   3.521   9.175  0.1297  0.0333 -0.3292
  161SOPE  H11X18076   2.619   3.599   9.191  0.7658 -0.7403  0.5557
  161SOPE  H11Y18077   2.451   3.577   9.145  1.6906  2.9898  0.1524
  161SOPE  C31218078   2.600   3.444   9.066  0.5379 -0.2404  0.4096
  161SOPE  H12X18079   2.533   3.361   9.035  1.2985  0.2613 -2.8811
  161SOPE  H12Y18080   2.697   3.413   9.109  0.7101  1.6292  1.5010
  161SOPE  C31318081   2.627   3.520   8.938 -0.1405 -0.8990  0.1531
  161SOPE  H13X18082   2.688   3.609   8.963  0.9310 -1.3781 -0.6816
  161SOPE  H13Y18083   2.524   3.539   8.901 -0.2215  1.0187  1.2520
  161SOPE  C31418084   2.703   3.437   8.833 -0.2071  0.6998  0.1693
  161SOPE  H14X18085   2.638   3.350   8.808  0.8786 -0.3201  0.7810
  161SOPE  H14Y18086   2.792   3.402   8.891 -0.8323 -0.5790  0.4031
  161SOPE  C31518087   2.736   3.497   8.701 -0.1561 -0.2305  0.8760
  161SOPE  H15X18088   2.800   3.414   8.663 -0.3823 -1.7010  3.4916
  161SOPE  H15Y18089   2.785   3.595   8.710 -0.3408  0.0636 -0.9725
  161SOPE  C31618090   2.612   3.515   8.609  0.3813  0.2532  0.0006
  161SOPE  H16X18091   2.532   3.575   8.657 -0.6715  0.4419 -1.8807
  161SOPE  H16Y18092   2.559   3.418   8.597  1.4541 -0.4309  0.6521
  161SOPE  C31718093   2.648   3.585   8.477  0.7207  0.0116 -0.4867
  161SOPE  H17X18094   2.740   3.526   8.454  1.3021  0.5440  0.4243
  161SOPE  H17Y18095   2.682   3.689   8.493  0.3265  0.0750 -0.0426
  161SOPE  C31818096   2.552   3.550   8.354  1.2612  1.2207 -0.0822
  161SOPE  H18X18097   2.452   3.598   8.358  0.6698 -0.0637  2.7777
  161SOPE  H18Y18098   2.550   3.440   8.335 -1.8800  0.5960  2.9255
  161SOPE  H18Z18099   2.594   3.583   8.257  1.0323 -1.0040 -1.0166
  162SOPE     N18100   5.493   2.276  10.932 -0.1688 -0.4762  0.1522
  162SOPE   HN118101   5.464   2.285  11.031 -1.5158 -1.2803 -0.1429
  162SOPE   HN218102   5.435   2.204  10.884 -0.7209  0.9037 -1.3516
  162SOPE   HN318103   5.592   2.247  10.933  0.8201  2.4175 -1.3661
  162SOPE   C1218104   5.477   2.408  10.853  0.2653  0.3075 -0.2288
  162SOPE  H12A18105   5.501   2.392  10.746 -0.0544  0.6364 -0.3511
  162SOPE  H12B18106   5.545   2.479  10.905  1.6394 -1.5145  0.5697
  162SOPE   C1118107   5.327   2.444  10.853 -0.4354 -0.3756  0.4278
  162SOPE  H11A18108   5.320   2.542  10.800 -2.2549 -1.4369 -1.4468
  162SOPE  H11B18109   5.292   2.449  10.958 -0.6729  0.6334  0.3068
  162SOPE     P18110   5.099   2.345  10.777  0.1489 -0.1716  0.1825
  162SOPE   O1318111   5.049   2.451  10.856 -0.3214 -0.3832 -0.3593
  162SOPE   O1418112   5.054   2.212  10.805  0.8266 -0.1491  0.0621
  162SOPE   O1218113   5.252   2.353  10.773  0.0809 -1.2055  0.3857
  162SOPE   O1118114   5.063   2.382  10.634 -0.0573 -0.5944 -0.2485
  162SOPE    C118115   5.123   2.477  10.549  0.2548  1.2514 -0.1068
  162SOPE    HA18116   5.111   2.440  10.445 -0.3339  1.1016  0.0118
  162SOPE    HB18117   5.234   2.482  10.551  0.5742 -1.8284 -2.2924
  162SOPE    C218118   5.051   2.604  10.562 -0.4934  0.5771 -0.0560
  162SOPE    HS18119   5.025   2.623  10.668 -1.7620  0.7559 -0.3930
  162SOPE   O2118120   4.941   2.604  10.474  0.0919 -0.4990  0.5362
  162SOPE   C2118121   4.872   2.711  10.475  0.1138  0.1909 -0.2462
  162SOPE   O2218122   4.867   2.786  10.571 -0.0402 -0.0565 -0.7006
  162SOPE   C2218123   4.793   2.738  10.352 -0.1228 -0.4478  0.1685
  162SOPE   H2R18124   4.849   2.812  10.291  1.6798 -1.6545  0.2916
  162SOPE   H2S18125   4.700   2.789  10.384 -0.0034 -1.2564  1.9674
  162SOPE    C318126   5.149   2.713  10.513  0.2600  0.7348  0.4797
  162SOPE    HX18127   5.237   2.706  10.581  0.2043 -1.4345  0.4228
  162SOPE    HY18128   5.108   2.814  10.530  1.8925  1.4070  0.5691
  162SOPE   O3118129   5.191   2.689  10.376  0.5730 -0.7716 -0.1571
  162SOPE   C3118130   5.283   2.763  10.338 -1.2165 -0.6385 -0.6463
  162SOPE   O3218131   5.349   2.841  10.405  0.6125  0.2192  0.1487
  162SOPE   C3218132   5.324   2.732  10.196  0.0886 -0.2146  0.5363
  162SOPE   H2X18133   5.233   2.749  10.135  1.8571  0.5460 -2.0889
  162SOPE   H2Y18134   5.338   2.622  10.186  0.1713 -0.1848  0.3270
  162SOPE   C2318135   4.765   2.606  10.268 -0.6601  0.2044  0.2090
  162SOPE   H3R18136   4.731   2.525  10.336  1.4014  0.7800  2.0109
  162SOPE   H3S18137   4.864   2.580  10.225  0.0443  0.4389  1.6357
  162SOPE   C2418138   4.680   2.629  10.152  0.0443  0.2527  0.1766
  162SOPE   H4R18139   4.588   2.663  10.205  0.7025 -0.8884  2.1397
  162SOPE   H4S18140   4.719   2.713  10.090 -2.5389  1.3543 -0.0713
  162SOPE   C2518141   4.639   2.508  10.073 -0.6169  0.5742 -1.0503
  162SOPE   H5R18142   4.735   2.466  10.037 -0.0038  1.4759 -0.5123
  162SOPE   H5S18143   4.597   2.430  10.139 -0.1356  0.3182 -1.0436
  162SOPE   C2618144   4.549   2.543   9.949  0.3127  0.7480  0.6788
  162SOPE   H6R18145   4.595   2.627   9.893  0.1936  1.1356  1.1571
  162SOPE   H6S18146   4.534   2.455   9.883  2.6618 -0.1918  1.2909
  162SOPE   C2718147   4.417   2.602   9.995  0.0708  0.4187  0.2109
  162SOPE   H7R18148   4.375   2.535  10.073 -1.3994  0.8512 -0.1802
  162SOPE   H7S18149   4.442   2.696  10.048 -1.0756  0.2194  1.1426
  162SOPE   C2818150   4.313   2.628   9.888 -0.1325 -0.8886 -0.3739
  162SOPE   H8R18151   4.233   2.695   9.926  1.7222  1.1151  0.2032
  162SOPE   H8S18152   4.363   2.683   9.805 -0.7573 -1.8340 -1.4118
  162SOPE   C2918153   4.250   2.505   9.829  0.4657 -0.3101  0.1737
  162SOPE   H9118154   4.226   2.437   9.913 -1.4437  1.2605  0.9913
  162SOPE  C21018155   4.247   2.468   9.692  1.0673  0.4916 -1.3385
  162SOPE  H10118156   4.201   2.373   9.660 -1.7422  1.2789 -0.0019
  162SOPE  C21118157   4.308   2.547   9.580  0.2358  0.8025  0.3048
  162SOPE  H11R18158   4.417   2.561   9.595  0.9884 -2.6063 -0.9364
  162SOPE  H11S18159   4.250   2.641   9.573  1.4322  1.7244  2.0824
  162SOPE  C21218160   4.295   2.470   9.454 -0.5522  0.2467 -0.2664
  162SOPE  H12R18161   4.200   2.417   9.433 -0.3121 -1.3343  2.1224
  162SOPE  H12S18162   4.372   2.389   9.460 -0.0237  0.6891 -0.9189
  162SOPE  C21318163   4.330   2.553   9.337 -0.0277 -0.4113 -0.1654
  162SOPE  H13R18164   4.432   2.591   9.359  0.6407 -2.2515  0.0551
  162SOPE  H13S18165   4.255   2.635   9.331  1.5549  1.0421 -1.1484
  162SOPE  C21418166   4.344   2.475   9.205 -0.0414  0.2358  0.7821
  162SOPE  H14R18167   4.252   2.417   9.179  0.1961  1.2744 -3.0989
  162SOPE  H14S18168   4.415   2.391   9.221 -1.3842 -1.2532 -0.5712
  162SOPE  C21518169   4.377   2.563   9.085 -0.4698  0.3811 -0.0438
  162SOPE  H15R18170   4.467   2.624   9.109 -0.2088  0.7213 -1.7694
  162SOPE  H15S18171   4.295   2.634   9.061  1.6871  2.3256 -2.1958
  162SOPE  C21618172   4.424   2.480   8.960  0.0963  0.4620  1.5890
  162SOPE  H16R18173   4.346   2.417   8.913  1.4451  0.1096 -0.3159
  162SOPE  H16S18174   4.489   2.408   9.014  0.0136 -1.8721 -1.1907
  162SOPE  C21718175   4.493   2.572   8.857 -0.0317  0.8090 -0.7451
  162SOPE  H17R18176   4.531   2.663   8.909 -2.7550  1.5959  0.0359
  162SOPE  H17S18177   4.411   2.609   8.792 -1.8381  0.6246  1.3174
  162SOPE  C21818178   4.600   2.490   8.783  0.0534 -0.7938 -0.1740
  162SOPE  H18R18179   4.639   2.561   8.708  2.0292 -0.0259  1.5130
  162SOPE  H18S18180   4.569   2.394   8.735 -0.6962  0.4782 -2.3805
  162SOPE  H18T18181   4.681   2.470   8.856 -1.3414 -0.4426  1.5476
  162SOPE   C3318182   5.428   2.826  10.147  0.0258  0.0924  0.2791
  162SOPE   H3X18183   5.517   2.816  10.214  1.0578 -2.0445 -1.2851
  162SOPE   H3Y18184   5.395   2.932  10.151  1.5621  0.7088 -1.7177
  162SOPE   C3418185   5.483   2.787  10.013  0.2001 -0.4719  0.9015
  162SOPE   H4X18186   5.528   2.685  10.006  1.7064  0.1661  1.0411
  162SOPE   H4Y18187   5.569   2.855  10.006  0.7411 -1.2045  0.2674
  162SOPE   C3518188   5.388   2.811   9.895  0.0967 -0.2280  0.0550
  162SOPE   H5X18189   5.338   2.909   9.912 -3.1470 -1.7814  0.1218
  162SOPE   H5Y18190   5.303   2.740   9.899 -1.9595  2.0508 -0.7750
  162SOPE   C3618191   5.456   2.828   9.762 -0.5447  0.5723 -0.1975
  162SOPE   H6X18192   5.550   2.882   9.783 -1.1449  1.0392  1.4688
  162SOPE   H6Y18193   5.397   2.893   9.693 -0.3307 -0.6777 -1.6105
  162SOPE   C3718194   5.485   2.688   9.707 -0.1688  0.3678 -0.8417
  162SOPE   H7X18195   5.510   2.617   9.788  0.9281 -0.3873 -1.8118
  162SOPE   H7Y18196   5.565   2.680   9.630 -0.3095 -2.2761 -0.7929
  162SOPE   C3818197   5.354   2.637   9.642  0.0285  0.0178 -0.2467
  162SOPE   H8X18198   5.329   2.715   9.567  0.8624  0.6371  0.1024
  162SOPE   H8Y18199   5.271   2.623   9.715 -1.3220 -3.2744 -2.1615
  162SOPE   C3918200   5.365   2.501   9.572 -1.0339  0.4554  0.1086
  162SOPE   H9X18201   5.273   2.441   9.558  1.2396 -3.0614 -1.3415
  162SOPE   H9Y18202   5.419   2.444   9.651 -1.0457  1.1575  0.6305
  162SOPE  C31018203   5.450   2.510   9.446  0.0476  0.0065  0.3813
  162SOPE  H10X18204   5.473   2.404   9.425 -2.2483 -0.5093  0.1792
  162SOPE  H10Y18205   5.549   2.561   9.450  1.1350 -1.7825 -1.5209
  162SOPE  C31118206   5.370   2.563   9.333 -0.6935 -0.2757  0.4215
  162SOPE  H11X18207   5.335   2.668   9.349 -1.6317  0.2012 -3.5298
  162SOPE  H11Y18208   5.273   2.509   9.320 -0.7610  0.0779 -0.6465
  162SOPE  C31218209   5.446   2.564   9.202 -0.5854  0.1747 -0.4315
  162SOPE  H12X18210   5.379   2.569   9.113 -3.0074  0.6289  1.3163
  162SOPE  H12Y18211   5.495   2.465   9.195  0.9104  0.8220  0.4597
  162SOPE  C31318212   5.549   2.676   9.191 -0.5118  0.4746 -0.0369
  162SOPE  H13X18213   5.613   2.681   9.282  0.9176 -2.0524 -0.7883
  162SOPE  H13Y18214   5.497   2.772   9.170 -0.8879  0.2715 -0.0281
  162SOPE  C31418215   5.646   2.660   9.072  0.2551 -0.0038 -0.0621
  162SOPE  H14X18216   5.723   2.740   9.069  1.8730 -1.5327 -2.0003
  162SOPE  H14Y18217   5.579   2.685   8.987 -1.2470 -4.3605 -0.4033
  162SOPE  C31518218   5.700   2.521   9.049 -0.5687  0.0997 -0.2956
  162SOPE  H15X18219   5.615   2.457   9.015 -0.7996  1.6897 -2.9682
  162SOPE  H15Y18220   5.739   2.484   9.146 -0.0734  0.3787 -0.3835
  162SOPE  C31618221   5.801   2.514   8.934 -0.0266 -0.6949  0.0571
  162SOPE  H16X18222   5.871   2.428   8.936 -0.8508 -1.4877 -2.3245
  162SOPE  H16Y18223   5.858   2.609   8.938 -0.1007 -0.5880 -1.2150
  162SOPE  C31718224   5.733   2.505   8.798 -0.3767  0.3458  0.3992
  162SOPE  H17X18225   5.663   2.591   8.792 -2.4165 -1.3348 -1.3946
  162SOPE  H17Y18226   5.664   2.418   8.788  0.8061 -0.2697 -4.0809
  162SOPE  C31818227   5.829   2.506   8.688  0.5263 -0.0785 -0.2186
  162SOPE  H18X18228   5.900   2.591   8.699 -0.3655  0.3661  4.1056
  162SOPE  H18Y18229   5.772   2.520   8.594  1.9346 -0.7167 -1.2167
  162SOPE  H18Z18230   5.873   2.404   8.684 -0.3135 -0.4295 -0.8317
  163SOPE     N18231   0.445   6.020  11.118 -0.5752 -0.0874 -0.6564
  163SOPE   HN118232   0.368   6.080  11.154  0.4543  1.2599 -0.6130
  163SOPE   HN218233   0.424   5.980  11.024  0.6991  0.0080 -0.9956
  163SOPE   HN318234   0.475   5.945  11.183 -1.8624  0.7246  0.9439
  163SOPE   C1218235   0.556   6.119  11.101 -0.5636  0.4886  0.6724
  163SOPE  H12A18236   0.623   6.093  11.186 -1.1623 -1.7793  0.5268
  163SOPE  H12B18237   0.511   6.220  11.100 -2.2552 -0.2309  0.6942
  163SOPE   C1118238   0.630   6.099  10.968 -0.4405 -0.0451 -0.0017
  163SOPE  H11A18239   0.660   5.994  10.948  0.5597 -0.0188  1.1800
  163SOPE  H11B18240   0.723   6.160  10.973 -0.7351  0.6036 -1.7356
  163SOPE     P18241   0.449   6.096  10.765  0.1396  0.2494  0.2286
  163SOPE   O1318242   0.361   6.207  10.733  1.0455  0.6567 -0.1879
  163SOPE   O1418243   0.392   5.980  10.842 -0.3596  0.1172 -0.5371
  163SOPE   O1218244   0.561   6.160  10.860  0.0716 -0.5420 -0.2442
  163SOPE   O1118245   0.505   6.041  10.628 -0.7039 -0.1672 -0.6821
  163SOPE    C118246   0.590   6.109  10.525 -0.4495  0.1855  0.6368
  163SOPE    HA18247   0.676   6.043  10.498  0.2887  1.3449  0.0560
  163SOPE    HB18248   0.639   6.200  10.565  0.9183 -0.0825 -0.3501
  163SOPE    C218249   0.497   6.148  10.400  0.5262 -0.3251 -0.1522
  163SOPE    HS18250   0.394   6.158  10.443  0.1156 -0.9170 -0.9661
  163SOPE   O2118251   0.506   6.040  10.311  0.5847  0.3516  1.1208
  163SOPE   C2118252   0.403   6.015  10.229 -0.1876 -0.6735  0.6052
  163SOPE   O2218253   0.295   6.067  10.235  0.0656  0.2027 -0.4125
  163SOPE   C2218254   0.429   5.901  10.134 -0.2234  0.0190  0.6207
  163SOPE   H2R18255   0.387   5.809  10.178  1.3112 -2.4445 -2.6000
  163SOPE   H2S18256   0.538   5.892  10.114 -0.0907  0.3048  1.2175
  163SOPE    C318257   0.536   6.284  10.337  0.2498 -0.5248 -0.1604
  163SOPE    HX18258   0.637   6.265  10.296  0.2482 -0.1658 -0.3333
  163SOPE    HY18259   0.546   6.372  10.405 -0.6554 -1.0049  0.6090
  163SOPE   O3118260   0.457   6.318  10.212 -0.9949 -0.7016 -0.1386
  163SOPE   C3118261   0.335   6.357  10.247  0.4844  0.0342 -0.5836
  163SOPE   O3218262   0.301   6.392  10.356  0.8221  0.7155  0.8046
  163SOPE   C3218263   0.261   6.385  10.114 -0.4395  0.5610 -1.3550
  163SOPE   H2X18264   0.316   6.331  10.034  0.7566 -2.1947  1.1474
  163SOPE   H2Y18265   0.263   6.493  10.088 -3.8209  1.2813  0.6800
  163SOPE   C2318266   0.352   5.909   9.994 -0.0024 -0.0532  0.2107
  163SOPE   H3R18267   0.251   5.954   9.990 -0.6907 -1.6176 -1.4799
  163SOPE   H3S18268   0.336   5.803   9.963  0.6295  0.1335 -0.8302
  163SOPE   C2418269   0.439   5.979   9.896  1.2430 -0.8430  0.0410
  163SOPE   H4R18270   0.406   6.083   9.876  1.6257 -1.0102 -1.5776
  163SOPE   H4S18271   0.545   5.984   9.927  0.9228  1.4213  0.9339
  163SOPE   C2518272   0.429   5.912   9.756 -0.6073 -0.8439 -0.6406
  163SOPE   H5R18273   0.492   5.960   9.679  0.2190 -0.5157  0.2209
  163SOPE   H5S18274   0.469   5.811   9.780 -3.0608 -1.5937  0.6621
  163SOPE   C2618275   0.297   5.895   9.684  0.7348  0.6894  0.2613
  163SOPE   H6R18276   0.296   5.806   9.618 -0.8850 -1.6000  3.1359
  163SOPE   H6S18277   0.222   5.880   9.765  1.0204  2.5839  0.9342
  163SOPE   C2718278   0.263   6.009   9.589  0.3166 -0.5958  0.4751
  163SOPE   H7R18279   0.155   6.012   9.564  0.3403  1.8080  0.3753
  163SOPE   H7S18280   0.283   6.101   9.647 -3.0300  0.9137 -0.4917
  163SOPE   C2818281   0.349   6.019   9.451 -0.1689  0.0352 -0.0208
  163SOPE   H8R18282   0.459   6.019   9.471 -0.0264 -1.0020 -0.7163
  163SOPE   H8S18283   0.328   5.930   9.388  3.5093 -0.3258 -1.0146
  163SOPE   C2918284   0.303   6.139   9.380 -0.4532  0.1466 -0.0305
  163SOPE   H9118285   0.336   6.227   9.436 -2.6372  0.9056  0.1569
  163SOPE  C21018286   0.212   6.142   9.283  0.3855  0.0872 -0.2640
  163SOPE  H10118287   0.186   6.240   9.242 -0.0469  0.7601  1.5511
  163SOPE  C21118288   0.139   6.022   9.220  0.5334  0.7168  0.0339
  163SOPE  H11R18289   0.033   6.054   9.207  0.4438  0.5585  0.3654
  163SOPE  H11S18290   0.154   5.930   9.281  1.7500  1.3305  0.6924
  163SOPE  C21218291   0.194   5.984   9.082  0.0289 -0.0232  0.2638
  163SOPE  H12R18292   0.304   5.967   9.083 -0.0225 -0.3414  0.5462
  163SOPE  H12S18293   0.188   6.070   9.011  2.4876 -1.0160 -1.2589
  163SOPE  C21318294   0.119   5.858   9.035  0.9792  0.4621  0.5110
  163SOPE  H13R18295   0.015   5.868   9.072 -0.5663 -2.0900 -2.6250
  163SOPE  H13S18296   0.162   5.766   9.080  0.6495  0.4070  0.7147
  163SOPE  C21418297   0.128   5.841   8.877  0.6002  0.8114 -0.7031
  163SOPE  H14R18298   0.226   5.792   8.855  0.3728  0.5101 -1.0684
  163SOPE  H14S18299   0.128   5.938   8.823 -0.1960  1.3548  0.2449
  163SOPE  C21518300   0.021   5.742   8.820 -0.2567 -0.0426 -0.0585
  163SOPE  H15R18301   0.019   5.651   8.884 -0.4979  0.4997  0.7101
  163SOPE  H15S18302   0.052   5.711   8.718  1.1230 -2.7039  1.0494
  163SOPE  C21618303  -0.123   5.804   8.813 -0.0118 -0.1109  0.7901
  163SOPE  H16R18304  -0.118   5.895   8.750  0.6134 -0.9834 -0.4614
  163SOPE  H16S18305  -0.151   5.849   8.910 -0.6659  1.2212  0.0060
  163SOPE  C21718306  -0.217   5.706   8.759  0.8522  0.6139  0.1086
  163SOPE  H17R18307  -0.205   5.611   8.814  0.2146 -1.1089 -2.5718
  163SOPE  H17S18308  -0.201   5.694   8.650  0.9896 -2.2097  0.3873
  163SOPE  C21818309  -0.370   5.744   8.781 -0.2609 -0.3466  0.3844
  163SOPE  H18R18310  -0.386   5.752   8.891 -2.1257  1.7670  0.0342
  163SOPE  H18S18311  -0.420   5.652   8.742 -1.0902 -0.1492  0.9577
  163SOPE  H18T18312  -0.382   5.840   8.726  0.9759  0.4784  1.5047
  163SOPE   C3318313   0.115   6.334  10.113 -0.2161  0.0220  0.0227
  163SOPE   H3X18314   0.065   6.383  10.199  2.4053  1.3167  0.9191
  163SOPE   H3Y18315   0.121   6.224  10.132  3.5663  0.0172 -0.4032
  163SOPE   C3418316   0.034   6.375   9.985  0.9057  0.1746  0.5300
  163SOPE   H4X18317   0.059   6.484   9.983 -0.1971  0.4215 -0.4049
  163SOPE   H4Y18318  -0.071   6.367  10.021  0.9926  0.9112  0.9842
  163SOPE   C3518319   0.064   6.300   9.857 -0.3810 -0.3902 -0.8311
  163SOPE   H5X18320   0.026   6.197   9.872 -1.3527 -0.3010 -2.5286
  163SOPE   H5Y18321   0.174   6.299   9.841 -0.6308  0.8585 -3.0372
  163SOPE   C3618322  -0.000   6.382   9.746 -0.0114 -0.3058 -0.5418
  163SOPE   H6X18323   0.062   6.472   9.728  0.9615 -0.0851  3.0610
  163SOPE   H6Y18324  -0.101   6.414   9.781  0.3602  1.6897 -1.1748
  163SOPE   C3718325  -0.006   6.298   9.621  0.0603 -0.3951  0.1397
  163SOPE   H7X18326  -0.063   6.206   9.647 -1.1533  0.4076  0.3703
  163SOPE   H7Y18327   0.101   6.282   9.595 -0.1893  0.8036 -1.8530
  163SOPE   C3818328  -0.071   6.370   9.500  0.2061 -0.7670  0.1985
  163SOPE   H8X18329  -0.156   6.435   9.532  0.8344 -0.2113  0.7659
  163SOPE   H8Y18330  -0.118   6.285   9.445  1.8781 -1.2770 -0.5063
  163SOPE   C3918331   0.029   6.453   9.422 -0.4472  0.0908  0.8770
  163SOPE   H9X18332   0.123   6.398   9.402 -0.6981  0.2639 -0.9442
  163SOPE   H9Y18333   0.056   6.542   9.482  0.9477  0.1084  0.2532
  163SOPE  C31018334  -0.036   6.514   9.295  0.2052  0.4139  0.2761
  163SOPE  H10X18335  -0.082   6.426   9.244  0.6312  1.1698 -1.4721
  163SOPE  H10Y18336   0.044   6.552   9.227  1.3076  1.0544  1.8825
  163SOPE  C31118337  -0.147   6.622   9.315  0.9425  0.3032  0.6686
  163SOPE  H11X18338  -0.084   6.714   9.311  1.8487 -0.2609  1.4456
  163SOPE  H11Y18339  -0.189   6.616   9.417  1.1331 -1.8380  0.6646
  163SOPE  C31218340  -0.263   6.605   9.211 -0.5500  0.0698  0.6880
  163SOPE  H12X18341  -0.352   6.663   9.244  0.1111  3.0652 -2.2119
  163SOPE  H12Y18342  -0.304   6.501   9.206 -2.3523  0.7509  0.5055
  163SOPE  C31318343  -0.235   6.653   9.068 -0.0568  0.4153 -0.5275
  163SOPE  H13X18344  -0.150   6.592   9.031 -0.7884 -0.1946 -1.2348
  163SOPE  H13Y18345  -0.205   6.759   9.081  1.0870  0.1148 -0.5781
  163SOPE  C31418346  -0.353   6.632   8.977 -0.5426  0.7082  0.3102
  163SOPE  H14X18347  -0.436   6.703   8.998  0.6722  2.1926  0.2663
  163SOPE  H14Y18348  -0.383   6.527   8.999 -1.0667  0.5784 -0.9487
  163SOPE  C31518349  -0.327   6.638   8.825  0.0162  0.8910 -0.1969
  163SOPE  H15X18350  -0.352   6.743   8.796 -1.0403  0.7643  0.2433
  163SOPE  H15Y18351  -0.404   6.578   8.772  0.9049  1.6376 -2.4617
  163SOPE  C31618352  -0.188   6.586   8.789 -0.1974 -0.2169 -0.1740
  163SOPE  H16X18353  -0.156   6.504   8.857  0.2996  2.0033  2.3895
  163SOPE  H16Y18354  -0.121   6.672   8.808  1.0724 -1.0409 -0.7385
  163SOPE  C31718355  -0.178   6.553   8.637  0.1064 -0.4134 -0.4717
  163SOPE  H17X18356  -0.204   6.647   8.584  2.5721  0.7364  0.2039
  163SOPE  H17Y18357  -0.241   6.468   8.604  1.3611 -1.5513 -0.0382
  163SOPE  C31818358  -0.029   6.517   8.598  0.1720 -0.3337 -0.4927
  163SOPE  H18X18359  -0.025   6.489   8.490 -0.1305 -2.4911  0.0296
  163SOPE  H18Y18360   0.019   6.433   8.653 -1.7484  0.5639  2.7574
  163SOPE  H18Z18361   0.030   6.609   8.619 -1.4535  0.5868  0.1780
  164SOPE     N18362   1.815   1.116  10.807  0.0135  0.5359  0.1956
  164SOPE   HN118363   1.784   1.017  10.802  1.1551  0.1887 -0.5331
  164SOPE   HN218364   1.890   1.140  10.875  1.2371 -1.5663 -0.3170
  164SOPE   HN318365   1.737   1.184  10.816 -0.3547  0.1525 -0.0465
  164SOPE   C1218366   1.855   1.152  10.664 -0.0800  0.6242 -0.9904
  164SOPE  H12A18367   1.768   1.120  10.601 -1.2012 -0.7036  1.1106
  164SOPE  H12B18368   1.935   1.082  10.632 -1.1213 -1.2856  0.3892
  164SOPE   C1118369   1.903   1.299  10.644  0.2491  0.1983  0.4417
  164SOPE  H11A18370   1.917   1.306  10.534 -0.0713 -2.2459  0.1759
  164SOPE  H11B18371   2.003   1.308  10.691  0.3429  1.2369  0.0689
  164SOPE     P18372   1.854   1.545  10.713 -0.2672 -0.3478 -0.0508
  164SOPE   O1318373   1.994   1.564  10.660 -0.4529  0.2189 -0.0335
  164SOPE   O1418374   1.837   1.593  10.851 -0.3156  0.4144 -0.1292
  164SOPE   O1218375   1.812   1.394  10.698  0.5537  0.7646 -0.3406
  164SOPE   O1118376   1.758   1.624  10.610 -0.8235  0.2301 -0.0983
  164SOPE    C118377   1.625   1.571  10.593  0.4379  0.4956  0.2147
  164SOPE    HA18378   1.564   1.661  10.573  0.4387  0.7891  1.4564
  164SOPE    HB18379   1.582   1.524  10.684 -1.5836  1.4070 -0.2224
  164SOPE    C218380   1.613   1.469  10.483  0.1960 -0.0884  0.1643
  164SOPE    HS18381   1.658   1.375  10.522  0.4205 -0.2519 -0.4830
  164SOPE   O2118382   1.672   1.516  10.360  0.2302  0.7504  0.5034
  164SOPE   C2118383   1.734   1.412  10.291 -0.4013 -0.3083 -0.2305
  164SOPE   O2218384   1.745   1.300  10.337 -0.3454 -0.1699 -0.4902
  164SOPE   C2218385   1.797   1.466  10.163 -0.4675  0.3818  0.4210
  164SOPE   H2R18386   1.853   1.561  10.176 -0.5872  0.6087 -0.6623
  164SOPE   H2S18387   1.713   1.497  10.097  0.7259  2.6884 -0.1023
  164SOPE    C318388   1.463   1.426  10.455  0.3554  0.8476 -0.0218
  164SOPE    HX18389   1.403   1.516  10.430 -0.4162  0.2247 -0.4913
  164SOPE    HY18390   1.435   1.386  10.555  3.5854 -2.3784 -0.2255
  164SOPE   O3118391   1.441   1.325  10.354 -0.7484 -0.3901 -0.6549
  164SOPE   C3118392   1.452   1.197  10.377 -0.8342  0.8005  0.5783
  164SOPE   O3218393   1.490   1.144  10.481  0.1188  0.0698 -0.0895
  164SOPE   C3218394   1.399   1.122  10.252 -0.2413  0.1215 -0.6439
  164SOPE   H2X18395   1.310   1.180  10.221 -0.4350  1.6058  2.3273
  164SOPE   H2Y18396   1.363   1.020  10.276  0.1290 -0.0070 -0.6324
  164SOPE   C2318397   1.883   1.361  10.080  0.3323 -0.2127  0.7491
  164SOPE   H3R18398   1.812   1.282  10.046 -1.9335  1.4949  1.2386
  164SOPE   H3S18399   1.950   1.317  10.156  0.6594  0.5312  0.9038
  164SOPE   C2418400   1.982   1.420   9.979  0.2255  0.2224  0.3057
  164SOPE   H4R18401   2.050   1.489  10.034 -1.5114 -2.2803  6.3816
  164SOPE   H4S18402   2.042   1.333   9.944  0.8405  0.3640  0.9875
  164SOPE   C2518403   1.914   1.483   9.865  0.0171  0.0873  0.1009
  164SOPE   H5R18404   1.837   1.560   9.888  0.4921  0.8500 -0.7792
  164SOPE   H5S18405   1.986   1.546   9.808 -1.3488  0.0797 -1.7530
  164SOPE   C2618406   1.857   1.386   9.752  0.2106  0.1069  0.2749
  164SOPE   H6R18407   1.943   1.322   9.720  0.6172  0.3748  0.8202
  164SOPE   H6S18408   1.776   1.319   9.788  0.5959 -0.4641  0.0953
  164SOPE   C2718409   1.809   1.464   9.628 -0.9514 -0.5536  0.7457
  164SOPE   H7R18410   1.775   1.396   9.547 -0.8620  0.6864 -0.3664
  164SOPE   H7S18411   1.723   1.528   9.659  0.3376  1.4163  0.4074
  164SOPE   C2818412   1.912   1.561   9.559  0.1140  0.3058 -0.6759
  164SOPE   H8R18413   1.857   1.606   9.473 -1.4002  0.6800  0.4672
  164SOPE   H8S18414   1.931   1.632   9.642 -0.3453 -1.5573  1.1041
  164SOPE   C2918415   2.032   1.497   9.497 -0.0742 -0.3623 -0.4209
  164SOPE   H9118416   2.110   1.475   9.571  0.2324 -1.2045 -0.9861
  164SOPE  C21018417   2.056   1.448   9.372  0.0747 -0.0534  0.1230
  164SOPE  H10118418   2.158   1.418   9.344 -0.1882 -0.4308 -0.4572
  164SOPE  C21118419   1.966   1.456   9.254  0.1064 -0.0218 -0.1509
  164SOPE  H11R18420   1.862   1.467   9.291 -0.5778  0.0624 -1.9937
  164SOPE  H11S18421   1.972   1.355   9.207  2.8486  0.2016 -0.4157
  164SOPE  C21218422   2.005   1.562   9.145  0.0526  0.2490 -0.3417
  164SOPE  H12R18423   2.112   1.556   9.113  0.6759  2.1865  1.1655
  164SOPE  H12S18424   1.997   1.662   9.191 -0.3057 -0.4756  1.2499
  164SOPE  C21318425   1.892   1.564   9.043  0.1516 -0.1441 -0.0094
  164SOPE  H13R18426   1.799   1.586   9.099  0.2809  0.2869  0.0395
  164SOPE  H13S18427   1.889   1.463   8.998 -1.0466  1.3633 -3.6913
  164SOPE  C21418428   1.920   1.644   8.916 -0.1846  0.5370  0.1880
  164SOPE  H14R18429   2.024   1.613   8.893 -0.3074  1.4877 -1.7708
  164SOPE  H14S18430   1.913   1.754   8.927 -1.6611  0.3641  1.3357
  164SOPE  C21518431   1.816   1.602   8.809  0.1795  0.0137 -0.4645
  164SOPE  H15R18432   1.726   1.667   8.820 -0.2281 -0.7084  0.6021
  164SOPE  H15S18433   1.779   1.500   8.830 -2.9457  1.2610  0.6683
  164SOPE  C21618434   1.867   1.622   8.666 -0.4610  0.3722  0.8491
  164SOPE  H16R18435   1.814   1.550   8.599  0.9515  0.3609 -0.2981
  164SOPE  H16S18436   1.971   1.585   8.655 -0.5670  0.2365  0.2753
  164SOPE  C21718437   1.876   1.761   8.607  0.3370  0.4482 -1.0746
  164SOPE  H17R18438   1.957   1.826   8.648 -0.4160  2.4010 -2.5381
  164SOPE  H17S18439   1.782   1.818   8.621 -0.7887 -1.2666 -1.3814
  164SOPE  C21818440   1.907   1.755   8.461  0.3253 -0.4198  0.1885
  164SOPE  H18R18441   1.814   1.727   8.407  1.5368 -0.0077 -2.2416
  164SOPE  H18S18442   1.988   1.680   8.446  2.2925  1.2701  1.7802
  164SOPE  H18T18443   1.945   1.853   8.425  1.1132  0.5623  3.3413
  164SOPE   C3318444   1.499   1.126  10.127  0.2172 -0.3238 -0.2546
  164SOPE   H3X18445   1.591   1.080  10.171 -1.2802 -0.2133  3.3564
  164SOPE   H3Y18446   1.503   1.236  10.111 -0.5364 -0.5640 -2.3765
  164SOPE   C3418447   1.451   1.043  10.006  0.4691  0.1586 -0.3829
  164SOPE   H4X18448   1.363   1.095   9.963 -0.8819 -1.2316  0.5654
  164SOPE   H4Y18449   1.422   0.942  10.041  0.8464  0.1476 -0.0978
  164SOPE   C3518450   1.567   1.026   9.902  0.3111 -0.0891 -0.4601
  164SOPE   H5X18451   1.648   0.967   9.950 -0.9707 -1.1919  0.4121
  164SOPE   H5Y18452   1.605   1.127   9.877 -2.3872  0.7025 -1.7320
  164SOPE   C3618453   1.529   0.954   9.767  1.0050 -0.2282 -0.4084
  164SOPE   H6X18454   1.607   0.973   9.691 -1.3097  3.2404 -2.1827
  164SOPE   H6Y18455   1.442   1.018   9.741 -0.6354 -0.7623  3.2071
  164SOPE   C3718456   1.472   0.818   9.786 -0.3958  1.1219 -0.7139
  164SOPE   H7X18457   1.381   0.840   9.846  1.3410  2.5918  1.5725
  164SOPE   H7Y18458   1.547   0.763   9.846 -1.4399  1.4396  0.9562
  164SOPE   C3818459   1.450   0.763   9.642 -0.6347  0.1135 -0.4138
  164SOPE   H8X18460   1.398   0.838   9.577 -0.3936  0.5530 -0.0988
  164SOPE   H8Y18461   1.394   0.667   9.646  1.0653 -0.9800 -1.5141
  164SOPE   C3918462   1.585   0.728   9.564 -0.2683  0.0478 -0.0974
  164SOPE   H9X18463   1.647   0.683   9.646 -0.3706  0.3048  0.1215
  164SOPE   H9Y18464   1.637   0.821   9.534 -1.3349  0.4661 -0.6737
  164SOPE  C31018465   1.575   0.620   9.460 -0.0944  0.9877 -0.0361
  164SOPE  H10X18466   1.517   0.661   9.374 -0.8021  1.6121  0.7235
  164SOPE  H10Y18467   1.518   0.543   9.515 -0.2127  0.8598 -0.3346
  164SOPE  C31118468   1.705   0.555   9.414 -0.5792 -0.4234  0.1394
  164SOPE  H11X18469   1.690   0.465   9.351 -0.8730  0.0205 -0.4267
  164SOPE  H11Y18470   1.758   0.512   9.502 -0.2942  2.1933  1.3588
  164SOPE  C31218471   1.801   0.643   9.342 -0.2199  0.5244  0.0026
  164SOPE  H12X18472   1.905   0.603   9.338 -0.0865  0.7721  0.7806
  164SOPE  H12Y18473   1.816   0.737   9.399 -1.7649  0.5868  0.3298
  164SOPE  C31318474   1.743   0.685   9.209  0.6125  0.0525  0.8880
  164SOPE  H13X18475   1.679   0.772   9.235  0.1984  0.9761 -2.6421
  164SOPE  H13Y18476   1.671   0.617   9.157  0.3641  1.0975 -0.1762
  164SOPE  C31418477   1.845   0.724   9.105 -0.5299  0.0745  0.0792
  164SOPE  H14X18478   1.790   0.771   9.020 -0.2465  3.9977  1.8501
  164SOPE  H14Y18479   1.899   0.635   9.068 -0.8856 -0.6502  1.2515
  164SOPE  C31518480   1.945   0.828   9.168  0.3070 -0.0410 -0.0999
  164SOPE  H15X18481   2.031   0.781   9.220  0.5014  1.7089  1.2433
  164SOPE  H15Y18482   1.897   0.896   9.241  0.0884 -0.1909 -0.1027
  164SOPE  C31618483   1.987   0.925   9.055  0.1537 -0.2294 -0.0777
  164SOPE  H16X18484   1.903   0.972   9.000  1.9264  0.1327 -2.6608
  164SOPE  H16Y18485   2.038   0.863   8.978 -0.1779  1.6031 -1.8344
  164SOPE  C31718486   2.086   1.040   9.102  0.1132  0.1828  0.0048
  164SOPE  H17X18487   2.184   0.999   9.136 -0.3750  0.9098  2.5462
  164SOPE  H17Y18488   2.042   1.078   9.197 -4.5000 -0.2792 -1.6862
  164SOPE  C31818489   2.094   1.143   8.996  0.4856  0.0567  0.0379
  164SOPE  H18X18490   2.140   1.106   8.902 -2.4283 -0.2847 -1.3779
  164SOPE  H18Y18491   2.153   1.230   9.035 -0.3863  0.0675  1.4082
  164SOPE  H18Z18492   1.991   1.176   8.971  0.1878 -1.9290 -1.5676
  165SOPE     N18493   0.727   5.114  10.770  0.2953  0.0887 -0.4208
  165SOPE   HN118494   0.716   5.076  10.867 -2.5151  1.1496 -0.2331
  165SOPE   HN218495   0.826   5.144  10.757  0.1008  0.2678 -1.6017
  165SOPE   HN318496   0.677   5.204  10.762 -0.5693 -0.5297 -2.4938
  165SOPE   C1218497   0.666   5.022  10.670  0.3932  0.0818 -0.5880
  165SOPE  H12A18498   0.646   5.086  10.582 -0.1316  1.0766  0.2426
  165SOPE  H12B18499   0.572   4.979  10.711  0.2490 -1.4608 -2.3521
  165SOPE   C1118500   0.769   4.921  10.618 -0.8767  0.1870  0.1833
  165SOPE  H11A18501   0.851   4.981  10.572 -0.6376  0.1275  0.5293
  165SOPE  H11B18502   0.730   4.855  10.537  1.0174 -0.4291 -0.2931
  165SOPE     P18503   0.970   4.783  10.745  0.2713  0.2070  0.2522
  165SOPE   O1318504   0.994   4.636  10.725  0.1475 -0.3075  0.2451
  165SOPE   O1418505   1.018   4.839  10.874 -0.5925 -0.5177 -0.0539
  165SOPE   O1218506   0.812   4.826  10.729 -0.2941 -0.2340  0.2096
  165SOPE   O1118507   1.047   4.863  10.632 -0.0951 -0.0745  0.2420
  165SOPE    C118508   1.078   4.816  10.499 -0.0518 -0.0454 -0.2045
  165SOPE    HA18509   0.989   4.793  10.437  0.2847  0.4809 -0.8994
  165SOPE    HB18510   1.144   4.727  10.505 -0.1546 -0.0578  1.3067
  165SOPE    C218511   1.170   4.930  10.432 -0.1837  0.3894 -0.8527
  165SOPE    HS18512   1.114   5.025  10.439 -0.0806  0.3502  0.6498
  165SOPE   O2118513   1.206   4.886  10.304 -0.0445  0.1480  0.5123
  165SOPE   C2118514   1.109   4.915  10.212  0.0318 -0.3677  0.2411
  165SOPE   O2218515   1.002   4.963  10.240 -0.0883  0.7494  0.0786
  165SOPE   C2218516   1.164   4.887  10.072  0.4766  0.1030 -0.1440
  165SOPE   H2R18517   1.226   4.794  10.065  0.4583  0.1845 -1.8384
  165SOPE   H2S18518   1.238   4.969  10.058  1.1644 -0.0141  2.3539
  165SOPE    C318519   1.294   4.966  10.516 -0.0222  0.2839 -0.9544
  165SOPE    HX18520   1.362   4.879  10.504 -0.3327  0.0117 -0.7507
  165SOPE    HY18521   1.263   4.969  10.622 -0.3326  0.0274 -1.0367
  165SOPE   O3118522   1.353   5.091  10.469 -0.1812 -0.0037  0.0175
  165SOPE   C3118523   1.296   5.205  10.514 -0.2496 -0.6909  0.4526
  165SOPE   O3218524   1.218   5.203  10.610 -0.4143 -0.5409 -0.6639
  165SOPE   C3218525   1.336   5.318  10.432 -0.1139 -0.5762 -0.6421
  165SOPE   H2X18526   1.422   5.290  10.368 -1.5072 -0.7358 -2.5347
  165SOPE   H2Y18527   1.365   5.399  10.502 -0.7489 -0.7542 -0.1550
  165SOPE   C2318528   1.058   4.877   9.956  1.2029  0.3461 -0.2708
  165SOPE   H3R18529   0.983   4.955   9.980 -0.4571 -1.0986 -0.5455
  165SOPE   H3S18530   1.006   4.779   9.951 -0.2072  0.9216  2.0104
  165SOPE   C2418531   1.123   4.911   9.822  0.1758  0.1067 -0.3286
  165SOPE   H4R18532   1.183   5.005   9.818  0.2326  0.0413 -1.4069
  165SOPE   H4S18533   1.194   4.826   9.812  0.1772  0.1278 -0.4948
  165SOPE   C2518534   1.026   4.910   9.705  0.3897  0.3431 -0.3798
  165SOPE   H5R18535   0.986   4.807   9.700  0.4312  0.3431 -0.6806
  165SOPE   H5S18536   0.951   4.992   9.716 -0.0503  0.0242 -0.9313
  165SOPE   C2618537   1.094   4.940   9.567  0.1836 -0.3612 -0.1120
  165SOPE   H6R18538   1.115   5.049   9.572  1.5045 -0.5260 -1.4470
  165SOPE   H6S18539   1.191   4.885   9.566  0.1534 -0.4827  1.3041
  165SOPE   C2718540   1.013   4.920   9.444 -0.4601 -0.3982 -0.3252
  165SOPE   H7R18541   0.947   4.831   9.454 -0.7942 -0.1369 -0.1960
  165SOPE   H7S18542   0.946   5.009   9.441 -3.5467 -2.4417  1.8314
  165SOPE   C2818543   1.080   4.929   9.311 -0.6158  0.5100 -0.0288
  165SOPE   H8R18544   1.161   4.853   9.308 -3.6286 -3.0450  0.4095
  165SOPE   H8S18545   1.003   4.885   9.244 -0.8845  0.6447  0.1879
  165SOPE   C2918546   1.137   5.065   9.282 -0.1010 -0.3026  0.2826
  165SOPE   H9118547   1.231   5.089   9.335  0.1966 -0.5318 -0.1360
  165SOPE  C21018548   1.081   5.156   9.196 -0.4687 -0.0197 -0.8884
  165SOPE  H10118549   1.125   5.257   9.190  2.4882 -1.1483  0.4421
  165SOPE  C21118550   0.955   5.142   9.114  0.5503 -0.2869  0.4943
  165SOPE  H11R18551   0.927   5.034   9.121  0.5498 -0.2300  1.6075
  165SOPE  H11S18552   0.975   5.160   9.006 -2.4747 -0.1934 -0.1230
  165SOPE  C21218553   0.829   5.218   9.159 -0.4317  0.3759  0.0968
  165SOPE  H12R18554   0.864   5.323   9.160  1.2415 -0.0496 -2.7486
  165SOPE  H12S18555   0.804   5.180   9.261  1.3600 -0.9907  0.0864
  165SOPE  C21318556   0.704   5.196   9.075 -0.3563 -0.8583 -0.5495
  165SOPE  H13R18557   0.738   5.192   8.970  0.3172  3.2707 -0.6764
  165SOPE  H13S18558   0.649   5.293   9.075  0.6980 -0.2127 -2.0599
  165SOPE  C21418559   0.614   5.082   9.126 -0.3114  0.2648  0.0426
  165SOPE  H14R18560   0.582   5.097   9.231  0.7414  0.5382  0.3384
  165SOPE  H14S18561   0.666   4.984   9.121  0.6400  0.8154 -1.9753
  165SOPE  C21518562   0.491   5.051   9.039  0.4694 -0.0783 -0.5675
  165SOPE  H15R18563   0.415   5.132   9.040 -0.3337 -0.8049 -0.3744
  165SOPE  H15S18564   0.429   4.965   9.074  0.0505  0.6282  0.5097
  165SOPE  C21618565   0.517   5.020   8.896 -0.1881 -0.3407  0.4145
  165SOPE  H16R18566   0.598   4.945   8.906 -0.4150 -0.5429  0.7422
  165SOPE  H16S18567   0.566   5.105   8.845  0.4855 -1.3328 -0.6447
  165SOPE  C21718568   0.404   4.958   8.822  0.2700 -0.1976 -0.3008
  165SOPE  H17R18569   0.374   4.863   8.870  0.1465  0.9472  2.0370
  165SOPE  H17S18570   0.432   4.921   8.722 -0.9440  2.3373 -1.6901
  165SOPE  C21818571   0.284   5.054   8.803  0.0463  0.3647 -0.4798
  165SOPE  H18R18572   0.323   5.146   8.754  0.8159  0.7927  0.8788
  165SOPE  H18S18573   0.244   5.100   8.896  1.3143 -1.3390  0.9909
  165SOPE  H18T18574   0.198   5.023   8.741  1.1337  2.1963 -3.0787
  165SOPE   C3318575   1.226   5.379  10.349  0.8824  0.0089  0.3226
  165SOPE   H3X18576   1.235   5.483  10.311 -0.1838 -0.6240 -1.8200
  165SOPE   H3Y18577   1.134   5.385  10.411  1.4107  0.7001  1.0701
  165SOPE   C3418578   1.192   5.290  10.227  0.0724  0.2641  0.5684
  165SOPE   H4X18579   1.172   5.185  10.258 -2.0923 -0.2407 -2.2073
  165SOPE   H4Y18580   1.281   5.270  10.164  0.0102 -0.5077  0.7065
  165SOPE   C3518581   1.083   5.349  10.137 -0.8001  0.0691  0.3842
  165SOPE   H5X18582   1.132   5.439  10.094 -3.4212  1.4855  0.1700
  165SOPE   H5Y18583   1.006   5.393  10.203 -0.1634 -0.2618  1.3798
  165SOPE   C3618584   1.047   5.265  10.020  0.5970  0.4209 -0.1434
  165SOPE   H6X18585   0.992   5.182  10.069 -0.5736  1.2768  0.0501
  165SOPE   H6Y18586   1.124   5.211   9.961 -0.5908 -0.0556 -1.2935
  165SOPE   C3718587   0.959   5.331   9.925 -0.1144  0.1074  0.1210
  165SOPE   H7X18588   0.887   5.398   9.976 -1.5832 -1.3055 -0.0077
  165SOPE   H7Y18589   0.905   5.243   9.883 -0.0726 -1.1786  2.5237
  165SOPE   C3818590   1.040   5.406   9.814 -0.1607 -0.9573  0.3942
  165SOPE   H8X18591   1.124   5.465   9.856 -0.4668  0.0789 -0.4188
  165SOPE   H8Y18592   0.970   5.482   9.773  0.9481  0.8247  1.6859
  165SOPE   C3918593   1.085   5.314   9.698 -0.4136  0.1759  0.2714
  165SOPE   H9X18594   1.010   5.232   9.690  0.9132 -1.0830  0.4749
  165SOPE   H9Y18595   1.179   5.264   9.730  1.0662  2.3500 -0.4779
  165SOPE  C31018596   1.103   5.389   9.571  0.1971 -0.5755 -0.2710
  165SOPE  H10X18597   1.004   5.422   9.532  0.7813 -0.7917 -2.0096
  165SOPE  H10Y18598   1.152   5.322   9.497 -1.1034 -0.2981 -1.4377
  165SOPE  C31118599   1.195   5.510   9.585 -0.2478 -0.5795 -0.5961
  165SOPE  H11X18600   1.305   5.496   9.578 -0.0317  1.6102 -3.0717
  165SOPE  H11Y18601   1.176   5.576   9.672  1.0296 -0.3373 -0.4908
  165SOPE  C31218602   1.174   5.603   9.467 -0.0317 -0.1272 -0.8516
  165SOPE  H12X18603   1.185   5.550   9.370 -2.3040  0.5458 -1.5308
  165SOPE  H12Y18604   1.250   5.684   9.461  0.2785 -0.4321 -1.1210
  165SOPE  C31318605   1.039   5.676   9.461  0.0799  0.1548  0.6433
  165SOPE  H13X18606   1.038   5.749   9.545 -1.9561 -0.5940  1.3376
  165SOPE  H13Y18607   0.953   5.607   9.477  0.6857 -0.5105  1.0833
  165SOPE  C31418608   1.000   5.764   9.340  0.0959  0.5953  0.0744
  165SOPE  H14X18609   1.080   5.836   9.312 -1.7528  2.3778 -0.9494
  165SOPE  H14Y18610   0.905   5.820   9.358 -1.0048 -0.7114 -1.3834
  165SOPE  C31518611   0.988   5.689   9.204 -0.0767  0.6173  0.2880
  165SOPE  H15X18612   0.887   5.643   9.211  0.6897 -1.1463  0.4042
  165SOPE  H15Y18613   1.060   5.606   9.188  0.6559  0.7994  2.2659
  165SOPE  C31618614   0.992   5.788   9.079 -0.0423  0.8499  0.4177
  165SOPE  H16X18615   1.095   5.828   9.087 -0.0365  0.8591  0.2953
  165SOPE  H16Y18616   0.917   5.869   9.089 -1.9148 -0.8413  0.6977
  165SOPE  C31718617   0.976   5.719   8.944  0.1179 -0.3210 -0.3743
  165SOPE  H17X18618   0.868   5.703   8.922 -0.5627  2.4067  0.6563
  165SOPE  H17Y18619   1.014   5.615   8.958 -1.1600 -0.5438  1.7412
  165SOPE  C31818620   1.068   5.783   8.831 -0.0637  0.5118  0.0650
  165SOPE  H18X18621   1.038   5.732   8.737 -0.5593  2.0145 -0.6303
  165SOPE  H18Y18622   1.174   5.766   8.857  0.1098  2.0474  0.4374
  165SOPE  H18Z18623   1.055   5.893   8.822  0.5197  0.5805  0.0244
  166SOPE     N18624   2.278   4.196  10.958  0.1544 -0.2298 -0.1574
  166SOPE   HN118625   2.244   4.140  11.038 -2.6475  0.2886 -0.8636
  166SOPE   HN218626   2.359   4.156  10.906 -0.3028 -0.1673 -0.9416
  166SOPE   HN318627   2.308   4.286  10.999 -1.5741 -0.1952  1.1412
  166SOPE   C1218628   2.176   4.206  10.847  0.9103 -0.0332 -0.1827
  166SOPE  H12A18629   2.084   4.250  10.891  0.8056  0.1655 -0.5943
  166SOPE  H12B18630   2.154   4.100  10.820 -1.2026  0.2267  0.3647
  166SOPE   C1118631   2.210   4.284  10.720 -0.2580 -0.8813  0.3508
  166SOPE  H11A18632   2.141   4.278  10.634  0.2889  0.4866 -0.2071
  166SOPE  H11B18633   2.305   4.243  10.679  0.6872  1.3413  0.1905
  166SOPE     P18634   2.131   4.534  10.747 -0.1915 -0.1078 -0.4771
  166SOPE   O1318635   2.193   4.650  10.818 -0.2644  0.0712 -0.1882
  166SOPE   O1418636   2.003   4.477  10.804 -0.1148 -0.1615  0.5996
  166SOPE   O1218637   2.236   4.418  10.757 -0.6308 -0.0239  0.0568
  166SOPE   O1118638   2.111   4.570  10.594  0.1981 -0.2342  0.5484
  166SOPE    C118639   2.207   4.644  10.521 -0.1805 -0.0167 -0.4851
  166SOPE    HA18640   2.306   4.643  10.571 -0.4691 -0.6460  0.0926
  166SOPE    HB18641   2.180   4.749  10.497  0.1941  0.0549 -0.6056
  166SOPE    C218642   2.251   4.579  10.383 -0.0138  0.7700 -0.3416
  166SOPE    HS18643   2.340   4.629  10.339  0.1224  1.4340  0.6753
  166SOPE   O2118644   2.145   4.582  10.281  0.2944  0.0377 -0.1939
  166SOPE   C2118645   2.127   4.703  10.233 -0.8791 -0.9765  0.4729
  166SOPE   O2218646   2.192   4.803  10.268  0.1167  0.3491 -0.2118
  166SOPE   C2218647   2.011   4.708  10.140  1.1007  0.0987 -0.2067
  166SOPE   H2R18648   1.991   4.816  10.129 -2.0737 -0.6308 -2.9745
  166SOPE   H2S18649   1.929   4.663  10.200  0.2847  1.5887 -0.1626
  166SOPE    C318650   2.291   4.433  10.396 -0.9311  0.1369  0.4218
  166SOPE    HX18651   2.199   4.381  10.430 -2.1583  2.4129  0.7680
  166SOPE    HY18652   2.366   4.423  10.477 -0.0776 -2.0226 -0.5528
  166SOPE   O3118653   2.349   4.364  10.276  0.1544 -1.0188 -0.2841
  166SOPE   C3118654   2.465   4.418  10.245 -0.1826 -0.0196 -0.0790
  166SOPE   O3218655   2.527   4.505  10.306  0.1074  0.8112  0.4192
  166SOPE   C3218656   2.517   4.351  10.124 -0.3925  0.1059 -0.8892
  166SOPE   H2X18657   2.480   4.246  10.123  3.1069 -1.3005  1.1917
  166SOPE   H2Y18658   2.628   4.351  10.126 -0.3745  1.8694  0.6206
  166SOPE   C2318659   2.026   4.645  10.002 -0.3250  0.3480 -0.0408
  166SOPE   H3R18660   1.930   4.669   9.951 -1.4967 -2.9775  0.3854
  166SOPE   H3S18661   2.036   4.535  10.008  2.0798  0.4447 -0.9858
  166SOPE   C2418662   2.146   4.700   9.915 -0.6317 -0.1679 -0.7013
  166SOPE   H4R18663   2.125   4.809   9.914 -0.4843 -0.0625  1.7728
  166SOPE   H4S18664   2.244   4.677   9.961 -0.0722  0.9476 -1.3041
  166SOPE   C2518665   2.131   4.646   9.772 -0.1705 -0.2384 -0.0803
  166SOPE   H5R18666   2.109   4.538   9.774  1.7875 -0.7045 -1.2302
  166SOPE   H5S18667   2.040   4.681   9.719 -1.3755 -0.4341  1.7672
  166SOPE   C2618668   2.247   4.684   9.679 -0.1864  0.3305 -0.3673
  166SOPE   H6R18669   2.245   4.793   9.660 -2.3924  0.3525 -0.2582
  166SOPE   H6S18670   2.343   4.656   9.729 -0.1951  0.6667 -0.1645
  166SOPE   C2718671   2.248   4.613   9.545 -0.0159 -0.0967  0.2239
  166SOPE   H7R18672   2.344   4.636   9.494  0.8849 -2.7448  0.5864
  166SOPE   H7S18673   2.232   4.503   9.554  0.6256 -0.4632 -2.2098
  166SOPE   C2818674   2.133   4.649   9.448  0.4710 -0.4570 -0.5155
  166SOPE   H8R18675   2.141   4.580   9.362  1.0253 -2.6983  1.2280
  166SOPE   H8S18676   2.030   4.643   9.489 -0.9532  1.6807 -3.4762
  166SOPE   C2918677   2.167   4.784   9.392 -0.2018  0.2417 -0.6991
  166SOPE   H9118678   2.168   4.870   9.460 -3.3628 -0.7083  0.7274
  166SOPE  C21018679   2.188   4.811   9.259 -0.5100 -0.1011 -0.4327
  166SOPE  H10118680   2.196   4.918   9.235 -0.6465  0.2392  0.9482
  166SOPE  C21118681   2.194   4.716   9.143 -0.5939 -0.2071 -0.6275
  166SOPE  H11R18682   2.224   4.612   9.169 -0.7711 -0.0210  0.3858
  166SOPE  H11S18683   2.275   4.756   9.077  0.7030 -0.6715  0.6260
  166SOPE  C21218684   2.054   4.719   9.074 -0.0939  0.0966 -0.1749
  166SOPE  H12R18685   1.981   4.697   9.155 -0.6962 -1.7044 -1.1640
  166SOPE  H12S18686   2.056   4.630   9.008  1.0651  0.1261 -0.1887
  166SOPE  C21318687   2.022   4.849   8.998 -0.2188  0.0389  1.1709
  166SOPE  H13R18688   2.121   4.897   8.988  0.2475 -1.1763 -0.3112
  166SOPE  H13S18689   1.954   4.920   9.051  1.4887  1.5921  1.3671
  166SOPE  C21418690   1.964   4.819   8.856  0.0443 -0.2767  0.3299
  166SOPE  H14R18691   1.873   4.761   8.881 -0.0057 -0.7090 -0.7947
  166SOPE  H14S18692   2.027   4.742   8.805  0.9496  0.3324  0.5005
  166SOPE  C21518693   1.926   4.941   8.769 -0.3388  0.3210  0.0649
  166SOPE  H15R18694   2.019   4.994   8.738 -0.1604 -0.3423 -0.5502
  166SOPE  H15S18695   1.853   5.003   8.824  0.2604  1.0316  0.0795
  166SOPE  C21618696   1.869   4.880   8.636  0.8009  0.7471  1.0520
  166SOPE  H16R18697   1.911   4.779   8.619  0.1237  0.6278 -0.0148
  166SOPE  H16S18698   1.906   4.959   8.567 -0.1560 -0.4725 -0.9501
  166SOPE  C21718699   1.713   4.869   8.642 -0.5813 -0.3957 -0.5293
  166SOPE  H17R18700   1.662   4.959   8.683 -1.1094 -0.7256 -0.4521
  166SOPE  H17S18701   1.691   4.781   8.706 -0.4516 -0.7377 -0.9485
  166SOPE  C21818702   1.665   4.857   8.502 -0.3998  0.5425  0.1702
  166SOPE  H18R18703   1.555   4.873   8.509 -0.1935  2.8510 -0.9409
  166SOPE  H18S18704   1.690   4.760   8.454 -0.4234 -0.2518  1.7035
  166SOPE  H18T18705   1.711   4.932   8.435  1.5868 -1.0123 -0.3052
  166SOPE   C3318706   2.467   4.420   9.990  0.1071 -0.1063  0.1298
  166SOPE   H3X18707   2.465   4.531   9.998  2.5246  0.1651 -1.7060
  166SOPE   H3Y18708   2.371   4.379   9.953 -0.5373  1.4857 -0.0738
  166SOPE   C3418709   2.568   4.396   9.872  0.6513  0.2953  0.1843
  166SOPE   H4X18710   2.558   4.289   9.846  1.7019  0.5093 -1.2223
  166SOPE   H4Y18711   2.674   4.427   9.887  0.6190  1.4476 -1.6370
  166SOPE   C3518712   2.524   4.476   9.743 -0.2593  0.9336 -0.5057
  166SOPE   H5X18713   2.545   4.582   9.765  3.4637  0.2482 -0.1972
  166SOPE   H5Y18714   2.419   4.446   9.719 -0.2072  1.2009 -1.0854
  166SOPE   C3618715   2.614   4.443   9.621 -0.0114 -0.1935  0.7896
  166SOPE   H6X18716   2.591   4.340   9.586 -1.1896  0.0468  0.8159
  166SOPE   H6Y18717   2.724   4.446   9.642  0.0847 -1.4990  0.5443
  166SOPE   C3718718   2.608   4.543   9.501  0.4953  0.0528 -0.0857
  166SOPE   H7X18719   2.628   4.644   9.541 -0.3849  0.0422  0.3960
  166SOPE   H7Y18720   2.508   4.540   9.454 -1.0623 -2.9790  2.9827
  166SOPE   C3818721   2.711   4.510   9.397  0.3409  0.0385  0.5196
  166SOPE   H8X18722   2.689   4.413   9.348 -1.9928  0.3947  0.7838
  166SOPE   H8Y18723   2.813   4.500   9.441  1.2194 -1.1883 -1.6325
  166SOPE   C3918724   2.728   4.598   9.274 -0.7693 -0.8753 -0.2168
  166SOPE   H9X18725   2.834   4.592   9.240 -0.3296  1.2440  0.6598
  166SOPE   H9Y18726   2.705   4.703   9.302 -0.6282 -0.7434 -0.5824
  166SOPE  C31018727   2.619   4.567   9.164  0.7233  0.1609 -0.2532
  166SOPE  H10X18728   2.517   4.574   9.207  1.4681  1.9114  1.4077
  166SOPE  H10Y18729   2.639   4.465   9.125 -2.4577 -0.9548  0.7356
  166SOPE  C31118730   2.622   4.660   9.043  0.2491 -0.8512  0.5048
  166SOPE  H11X18731   2.591   4.762   9.072  1.3433 -0.0511 -1.0058
  166SOPE  H11Y18732   2.559   4.623   8.959 -0.6570  0.8758  0.3819
  166SOPE  C31218733   2.762   4.669   8.971  0.2860 -0.2026  0.5688
  166SOPE  H12X18734   2.810   4.570   8.960 -0.8996 -0.6935 -0.3386
  166SOPE  H12Y18735   2.834   4.732   9.027 -1.1286  2.4068 -0.3349
  166SOPE  C31318736   2.745   4.740   8.837  0.2091 -0.2760 -0.0908
  166SOPE  H13X18737   2.710   4.845   8.847 -1.4622 -0.6069 -1.9946
  166SOPE  H13Y18738   2.661   4.696   8.780 -1.6149  0.7762  1.6776
  166SOPE  C31418739   2.872   4.742   8.748 -0.0173  0.1640 -0.0572
  166SOPE  H14X18740   2.914   4.640   8.735  0.6694  0.4874 -0.5022
  166SOPE  H14Y18741   2.948   4.806   8.799  0.8510 -0.5204 -0.4627
  166SOPE  C31518742   2.841   4.796   8.615 -1.0750 -0.4132  0.5203
  166SOPE  H15X18743   2.778   4.887   8.615 -1.1293 -0.4460 -0.2435
  166SOPE  H15Y18744   2.768   4.722   8.575 -1.0838 -0.8883  1.3911
  166SOPE  C31618745   2.966   4.815   8.532  0.3835 -0.2042  0.3192
  166SOPE  H16X18746   2.920   4.829   8.431  0.6371 -0.0926  0.2181
  166SOPE  H16Y18747   3.016   4.717   8.522 -1.9288 -1.2489 -2.9564
  166SOPE  C31718748   3.069   4.923   8.566  0.0341  0.2490  0.3173
  166SOPE  H17X18749   3.113   4.932   8.464 -2.5186 -0.9965 -1.0015
  166SOPE  H17Y18750   3.142   4.903   8.647  1.6852  3.5368 -0.1902
  166SOPE  C31818751   3.010   5.062   8.605  0.2742 -0.1495 -0.3646
  166SOPE  H18X18752   3.083   5.140   8.635 -1.3044  1.5376 -0.6737
  166SOPE  H18Y18753   2.940   5.046   8.690 -0.4184  1.9873 -0.4463
  166SOPE  H18Z18754   2.928   5.094   8.536 -0.3811  0.8753  0.8352
  167SOPE     N18755   5.294   3.615   5.957  0.6707  0.0917  0.0425
  167SOPE   HN118756   5.256   3.677   6.030 -1.9673 -1.7121  0.3382
  167SOPE   HN218757   5.325   3.678   5.880 -0.8094  0.3675 -0.3571
  167SOPE   HN318758   5.220   3.552   5.918  0.5043  0.3168 -0.0039
  167SOPE   C1218759   5.410   3.545   6.015 -0.2288  0.3844 -0.0548
  167SOPE  H12A18760   5.493   3.616   6.033  0.9035 -0.7059 -0.7293
  167SOPE  H12B18761   5.450   3.477   5.936 -0.2343  2.8176 -2.2761
  167SOPE   C1118762   5.368   3.458   6.131  0.3363 -0.3149 -0.4673
  167SOPE  H11A18763   5.331   3.511   6.221 -1.2133 -0.7876 -0.8051
  167SOPE  H11B18764   5.453   3.393   6.161 -0.7621 -1.7094 -0.2792
  167SOPE     P18765   5.188   3.262   6.165 -0.0159 -0.8713  0.0691
  167SOPE   O1318766   5.291   3.166   6.203 -0.1068 -0.3970  0.1483
  167SOPE   O1418767   5.074   3.221   6.085  0.2641  0.5397  0.3081
  167SOPE   O1218768   5.264   3.379   6.087  0.5749  0.3687 -0.0385
  167SOPE   O1118769   5.143   3.332   6.294 -0.3176 -0.4856 -0.1333
  167SOPE    C118770   5.061   3.444   6.300 -0.7384 -0.3860 -0.5045
  167SOPE    HA18771   4.959   3.422   6.264 -1.4661 -0.0699  1.2681
  167SOPE    HB18772   5.102   3.527   6.239  0.1902 -1.5700 -1.5377
  167SOPE    C218773   5.047   3.487   6.444  0.1437 -0.0839 -0.1373
  167SOPE    HS18774   4.968   3.563   6.457 -0.2003 -0.8944  3.5474
  167SOPE   O2118775   5.176   3.537   6.487 -0.5204 -0.0285 -0.1234
  167SOPE   C2118776   5.224   3.650   6.437 -0.5949 -0.1743 -0.5418
  167SOPE   O2218777   5.170   3.733   6.368 -0.1518 -0.3334  0.2805
  167SOPE   C2218778   5.367   3.667   6.477  0.3259  0.0704  0.0521
  167SOPE   H2R18779   5.395   3.772   6.457  0.6963  0.2581  1.4963
  167SOPE   H2S18780   5.423   3.587   6.422 -0.3581  0.9397 -2.0345
  167SOPE    C318781   5.010   3.362   6.533  0.4446 -0.1424  0.3200
  167SOPE    HX18782   5.098   3.295   6.520 -0.6730 -1.3823 -1.1578
  167SOPE    HY18783   4.928   3.297   6.495  1.0660 -0.3961 -0.6178
  167SOPE   O3118784   4.993   3.387   6.677 -0.0573 -0.3234  0.9255
  167SOPE   C3118785   4.872   3.378   6.725 -0.1036 -0.0498 -0.6939
  167SOPE   O3218786   4.772   3.361   6.657 -0.2247 -0.0232 -0.7792
  167SOPE   C3218787   4.875   3.424   6.874  0.6306 -0.0763  0.7591
  167SOPE   H2X18788   4.913   3.528   6.864  0.5329 -0.0662  0.4960
  167SOPE   H2Y18789   4.958   3.378   6.932  1.5799  0.0839 -0.4285
  167SOPE   C2318790   5.384   3.639   6.624 -0.4339  0.5006  0.2939
  167SOPE   H3R18791   5.490   3.636   6.656 -0.6450 -1.2638  0.9133
  167SOPE   H3S18792   5.344   3.536   6.634 -1.2163  0.3793 -2.9747
  167SOPE   C2418793   5.303   3.733   6.716  0.0782 -0.2365  0.1167
  167SOPE   H4R18794   5.347   3.835   6.723 -1.1947  0.3171  0.2691
  167SOPE   H4S18795   5.198   3.748   6.683  0.7208  0.0218 -1.9872
  167SOPE   C2518796   5.293   3.669   6.852  0.3940 -0.8180  0.2214
  167SOPE   H5R18797   5.230   3.579   6.837  1.2114 -0.9737 -2.9015
  167SOPE   H5S18798   5.394   3.645   6.891  1.2932  1.2510 -0.6671
  167SOPE   C2618799   5.219   3.768   6.944  0.3918  0.2215  0.0674
  167SOPE   H6R18800   5.251   3.753   7.049  0.1996 -1.9719 -0.1303
  167SOPE   H6S18801   5.259   3.866   6.911  0.7450 -0.4383 -1.5636
  167SOPE   C2718802   5.064   3.760   6.941 -0.6885  0.2090 -0.6869
  167SOPE   H7R18803   5.034   3.767   6.834  1.2165  1.0892 -1.2114
  167SOPE   H7S18804   5.047   3.658   6.981 -4.0703  0.7970 -0.2986
  167SOPE   C2818805   4.991   3.873   7.015 -0.6299 -0.3423 -0.0493
  167SOPE   H8R18806   5.050   3.896   7.106 -0.4119 -1.0636 -0.0049
  167SOPE   H8S18807   4.989   3.967   6.955  2.3169 -0.7127 -0.8647
  167SOPE   C2918808   4.845   3.839   7.048 -0.2823 -0.1467  0.5482
  167SOPE   H9118809   4.783   3.887   6.971  0.7283  0.6790  0.2247
  167SOPE  C21018810   4.787   3.743   7.126  0.6813 -0.0914 -0.1096
  167SOPE  H10118811   4.677   3.742   7.121  0.6858 -2.5905 -1.0086
  167SOPE  C21118812   4.854   3.640   7.207 -0.6598  0.7285 -0.0198
  167SOPE  H11R18813   4.930   3.595   7.140  2.5298  1.9421  2.5075
  167SOPE  H11S18814   4.784   3.560   7.239  0.0797  0.2066  0.3193
  167SOPE  C21218815   4.921   3.688   7.343  0.4070 -0.4294 -1.1125
  167SOPE  H12R18816   4.988   3.775   7.326  0.2215  0.3208  1.5675
  167SOPE  H12S18817   4.985   3.607   7.385  1.3785  1.1757  0.6092
  167SOPE  C21318818   4.819   3.713   7.456 -0.2421 -0.4170  0.6369
  167SOPE  H13R18819   4.738   3.638   7.450 -1.0323  0.4965 -0.7309
  167SOPE  H13S18820   4.763   3.808   7.443 -1.6759 -1.5353 -2.0303
  167SOPE  C21418821   4.890   3.697   7.585 -0.2732  0.2288 -0.3607
  167SOPE  H14R18822   5.000   3.703   7.573 -0.3799  0.6642 -1.2434
  167SOPE  H14S18823   4.867   3.595   7.621  0.4595 -0.1915 -1.0682
  167SOPE  C21518824   4.846   3.795   7.694  0.4739  0.2432  0.2691
  167SOPE  H15R18825   4.736   3.781   7.699  0.6884 -1.2870  1.2947
  167SOPE  H15S18826   4.868   3.903   7.675 -2.2190  1.1047  1.5529
  167SOPE  C21618827   4.906   3.756   7.828  1.1587  0.8974  0.4821
  167SOPE  H16R18828   5.014   3.783   7.831  1.5753 -0.7618  2.0736
  167SOPE  H16S18829   4.908   3.646   7.847  2.8228  0.7033 -0.6134
  167SOPE  C21718830   4.836   3.817   7.955  0.3640 -0.2027 -0.0729
  167SOPE  H17R18831   4.725   3.813   7.949  0.0421  1.5394  2.8397
  167SOPE  H17S18832   4.859   3.926   7.947  2.6123 -0.3636  2.6053
  167SOPE  C21818833   4.887   3.754   8.085 -0.3441 -0.5704 -0.5991
  167SOPE  H18R18834   4.822   3.804   8.159 -0.2226  0.0802 -0.9261
  167SOPE  H18S18835   4.996   3.768   8.106 -0.1247 -1.2766 -1.2116
  167SOPE  H18T18836   4.851   3.649   8.090  0.6756 -0.9082  0.2355
  167SOPE   C3318837   4.746   3.417   6.955  0.0494 -0.3729 -0.1695
  167SOPE   H3X18838   4.660   3.433   6.887  1.5336  1.0247 -1.7972
  167SOPE   H3Y18839   4.726   3.495   7.031 -0.1282 -0.8728  0.3012
  167SOPE   C3418840   4.721   3.273   7.010 -0.2869  0.2602  0.0639
  167SOPE   H4X18841   4.805   3.248   7.079  0.9317  0.3635 -1.3401
  167SOPE   H4Y18842   4.740   3.200   6.929  2.9305 -0.6330  1.4334
  167SOPE   C3518843   4.586   3.258   7.082  0.2357 -0.3885  0.8088
  167SOPE   H5X18844   4.564   3.156   7.121  0.3474 -0.6432  0.2241
  167SOPE   H5Y18845   4.504   3.283   7.012  1.1360  2.4039  0.6308
  167SOPE   C3618846   4.568   3.344   7.213  0.4711  0.0473  0.6915
  167SOPE   H6X18847   4.457   3.342   7.221  0.3885 -0.9225 -0.3438
  167SOPE   H6Y18848   4.596   3.449   7.194  0.2442 -0.3619 -2.3742
  167SOPE   C3718849   4.637   3.288   7.330  0.1593  0.0511  0.5251
  167SOPE   H7X18850   4.744   3.316   7.321  0.0988  0.0725 -0.1597
  167SOPE   H7Y18851   4.618   3.178   7.326 -0.1529  0.1007  0.6198
  167SOPE   C3818852   4.573   3.336   7.458 -0.7959 -0.0187 -0.5476
  167SOPE   H8X18853   4.465   3.312   7.468 -0.9303  1.2248  1.5774
  167SOPE   H8Y18854   4.574   3.447   7.468  3.3245  0.3000 -2.4673
  167SOPE   C3918855   4.639   3.271   7.584 -0.4119 -1.0086  0.3419
  167SOPE   H9X18856   4.749   3.263   7.572 -0.4611 -0.1211 -0.8896
  167SOPE   H9Y18857   4.592   3.171   7.595  0.1342 -1.1999  1.0263
  167SOPE  C31018858   4.605   3.351   7.711 -0.3277 -0.3863 -0.0062
  167SOPE  H10X18859   4.498   3.379   7.718  0.2653  2.1409 -0.3178
  167SOPE  H10Y18860   4.664   3.445   7.710 -0.2700 -0.4065  0.8724
  167SOPE  C31118861   4.642   3.283   7.842 -0.4128  0.3531 -0.0048
  167SOPE  H11X18862   4.752   3.281   7.856  0.2463 -0.7109 -4.1011
  167SOPE  H11Y18863   4.615   3.175   7.847  0.7722  0.1020  3.4855
  167SOPE  C31218864   4.582   3.349   7.972  0.5086  0.2482 -0.0911
  167SOPE  H12X18865   4.471   3.338   7.967  0.2812  1.2142  1.9291
  167SOPE  H12Y18866   4.606   3.457   7.978 -1.6634  0.8201 -0.7061
  167SOPE  C31318867   4.626   3.279   8.099  0.0896  0.5627 -0.4204
  167SOPE  H13X18868   4.736   3.272   8.109  0.0197  0.7043  0.5272
  167SOPE  H13Y18869   4.573   3.182   8.091  1.3111  0.0101 -2.7872
  167SOPE  C31418870   4.557   3.345   8.224 -0.4561  0.6027 -0.8910
  167SOPE  H14X18871   4.451   3.372   8.206 -0.5583 -0.2903 -1.7621
  167SOPE  H14Y18872   4.616   3.435   8.252  0.4711 -0.7131  1.7035
  167SOPE  C31518873   4.582   3.257   8.350  0.5988  0.5918  0.2479
  167SOPE  H15X18874   4.689   3.229   8.350  0.2787 -0.6774 -0.2008
  167SOPE  H15Y18875   4.536   3.157   8.338  2.7540 -0.5935  1.3302
  167SOPE  C31618876   4.542   3.325   8.480 -0.0171  0.5706  0.1755
  167SOPE  H16X18877   4.590   3.425   8.492 -1.0419  1.2479 -1.1359
  167SOPE  H16Y18878   4.577   3.271   8.570  3.0451  2.3230  0.1804
  167SOPE  C31718879   4.391   3.349   8.483  0.1862  0.9373 -0.1062
  167SOPE  H17X18880   4.346   3.251   8.456 -0.9345  1.0638  1.2134
  167SOPE  H17Y18881   4.366   3.433   8.416 -0.6733  1.1946  0.5203
  167SOPE  C31818882   4.326   3.394   8.617 -0.3893 -0.0463  0.2229
  167SOPE  H18X18883   4.215   3.394   8.614 -0.3899 -0.0901  0.2432
  167SOPE  H18Y18884   4.359   3.497   8.642  3.3372 -2.0535  5.2903
  167SOPE  H18Z18885   4.347   3.338   8.710 -2.3520  0.0384  0.7597
  168SOPE     N18886   4.127   5.884   6.055 -0.6650 -0.2986  0.2632
  168SOPE   HN118887   4.174   5.892   5.963  1.1621 -1.3342  1.0629
  168SOPE   HN218888   4.158   5.794   6.097 -0.1547  0.0656  0.6718
  168SOPE   HN318889   4.024   5.887   6.038 -0.5924 -0.9178 -0.3342
  168SOPE   C1218890   4.178   6.006   6.133  0.7315 -0.1246  0.4570
  168SOPE  H12A18891   4.178   6.097   6.070 -1.0368 -0.6041 -0.2998
  168SOPE  H12B18892   4.286   6.005   6.156  0.4005 -0.6226  2.1881
  168SOPE   C1118893   4.102   6.023   6.260 -0.1051 -1.0299 -0.8413
  168SOPE  H11A18894   4.149   6.110   6.311  0.4491 -0.7665 -1.7922
  168SOPE  H11B18895   4.120   5.934   6.324 -0.0563 -0.4759 -0.0655
  168SOPE     P18896   3.849   5.948   6.254  0.3322  0.6058 -0.0834
  168SOPE   O1318897   3.877   5.841   6.161  0.9039 -0.6787  0.5247
  168SOPE   O1418898   3.714   6.007   6.249  0.1918  0.0157  0.5477
  168SOPE   O1218899   3.963   6.059   6.250  0.5352 -0.2462  0.4397
  168SOPE   O1118900   3.867   5.884   6.399  0.6546 -0.3587  0.5567
  168SOPE    C118901   3.858   5.965   6.511  0.3257  0.0134 -0.0929
  168SOPE    HA18902   3.834   6.072   6.490  0.2912 -0.3363 -2.0478
  168SOPE    HB18903   3.958   5.972   6.558  0.6675  2.4048 -1.0065
  168SOPE    C218904   3.747   5.924   6.614  0.6216  0.7799 -0.4710
  168SOPE    HS18905   3.774   5.970   6.712  2.3884 -0.9970 -0.0844
  168SOPE   O2118906   3.759   5.777   6.640  0.4956  0.7255  0.1972
  168SOPE   C2118907   3.854   5.748   6.733  0.1660 -0.3123 -0.5283
  168SOPE   O2218908   3.926   5.828   6.791 -0.4875 -0.8245  0.2922
  168SOPE   C2218909   3.858   5.598   6.761 -0.2244  0.4146  0.3188
  168SOPE   H2R18910   3.959   5.576   6.802 -0.2203  0.0657  0.1271
  168SOPE   H2S18911   3.839   5.556   6.660  0.8072 -1.7867  0.9723
  168SOPE    C318912   3.607   5.956   6.571  0.2839 -0.0465  0.0364
  168SOPE    HX18913   3.587   5.936   6.463 -1.8156  0.1180  0.3483
  168SOPE    HY18914   3.597   6.065   6.588 -1.3024 -0.2963  0.8925
  168SOPE   O3118915   3.503   5.890   6.647 -0.3006  0.2767 -0.5636
  168SOPE   C3118916   3.506   5.924   6.776  0.7165  0.1487  0.4889
  168SOPE   O3218917   3.568   6.009   6.828  0.1219 -0.1546 -0.0277
  168SOPE   C3218918   3.397   5.837   6.846  0.5272 -0.1549  0.4253
  168SOPE   H2X18919   3.399   5.732   6.809 -1.1938 -0.1986  0.4095
  168SOPE   H2Y18920   3.297   5.876   6.820  0.8015 -0.0635 -0.5576
  168SOPE   C2318921   3.744   5.549   6.855 -0.1497  1.2799 -0.6154
  168SOPE   H3R18922   3.751   5.438   6.862 -0.6267  1.3035  4.3228
  168SOPE   H3S18923   3.640   5.579   6.830 -0.9172 -0.4870  0.2268
  168SOPE   C2418924   3.776   5.567   7.008 -0.0493  0.3088  0.4741
  168SOPE   H4R18925   3.880   5.535   7.029 -0.8031 -0.9342  2.6230
  168SOPE   H4S18926   3.771   5.670   7.049  1.5533  0.4599  0.3724
  168SOPE   C2518927   3.669   5.481   7.092  0.7153  0.6240  0.1633
  168SOPE   H5R18928   3.564   5.510   7.071  0.7142 -0.3036 -1.2038
  168SOPE   H5S18929   3.672   5.375   7.057  1.3807  0.7217 -0.0848
  168SOPE   C2618930   3.702   5.472   7.243  0.2367 -0.8908  0.6605
  168SOPE   H6R18931   3.807   5.441   7.265  1.0462  0.1727 -1.4277
  168SOPE   H6S18932   3.683   5.576   7.278  0.5100 -0.2141 -1.1380
  168SOPE   C2718933   3.601   5.377   7.312 -0.4113 -0.3562  0.8932
  168SOPE   H7R18934   3.501   5.424   7.324 -0.9261 -0.5909 -1.8160
  168SOPE   H7S18935   3.585   5.292   7.242 -1.6923  0.2522  0.4298
  168SOPE   C2818936   3.654   5.343   7.450  0.3608 -0.2458  0.2514
  168SOPE   H8R18937   3.744   5.279   7.437  0.4381 -0.3427  1.1787
  168SOPE   H8S18938   3.679   5.431   7.512 -0.3889  0.8843 -1.0055
  168SOPE   C2918939   3.567   5.249   7.511  0.3030  0.2609 -0.5310
  168SOPE   H9118940   3.506   5.185   7.447 -2.4898  1.7306  0.4754
  168SOPE  C21018941   3.545   5.242   7.642  0.5263 -0.1049  0.0646
  168SOPE  H10118942   3.470   5.169   7.676  0.8635 -0.5195 -0.0770
  168SOPE  C21118943   3.606   5.322   7.759 -0.4942 -0.0670 -0.0917
  168SOPE  H11R18944   3.534   5.372   7.828  0.1855 -0.5854  1.0175
  168SOPE  H11S18945   3.665   5.409   7.724 -0.9366  1.8023  3.3511
  168SOPE  C21218946   3.696   5.232   7.849 -0.2266  0.6880  0.4039
  168SOPE  H12R18947   3.756   5.177   7.772  0.8925  0.1823  1.5912
  168SOPE  H12S18948   3.625   5.162   7.898 -1.7833  2.2537  0.4728
  168SOPE  C21318949   3.778   5.302   7.952 -0.7447 -0.3437  0.2920
  168SOPE  H13R18950   3.839   5.380   7.902 -0.2079 -1.1323 -0.3003
  168SOPE  H13S18951   3.848   5.222   7.982  1.2997  0.4360 -2.0686
  168SOPE  C21418952   3.694   5.360   8.064 -0.3747  0.0247 -0.4981
  168SOPE  H14R18953   3.658   5.270   8.118 -0.6252  0.3077 -0.1918
  168SOPE  H14S18954   3.605   5.416   8.030 -0.6846  1.2549  2.1358
  168SOPE  C21518955   3.774   5.450   8.160 -0.2177 -0.3892  0.0215
  168SOPE  H15R18956   3.717   5.488   8.248  2.1687  1.7718  0.7836
  168SOPE  H15S18957   3.806   5.537   8.098 -1.1500 -1.5277 -2.1555
  168SOPE  C21618958   3.890   5.384   8.227 -0.6819 -0.0180  0.2693
  168SOPE  H16R18959   3.940   5.458   8.293  1.3697 -1.8841  0.9658
  168SOPE  H16S18960   3.962   5.358   8.146 -0.2361  1.1450  0.2663
  168SOPE  C21718961   3.876   5.256   8.307  1.0613 -0.5364  0.2332
  168SOPE  H17R18962   3.976   5.214   8.334  1.2730  0.0088  0.2932
  168SOPE  H17S18963   3.814   5.182   8.251  0.0152  0.1324  0.4931
  168SOPE  C21818964   3.798   5.288   8.437 -0.7292  0.5310  0.4085
  168SOPE  H18R18965   3.805   5.391   8.476 -0.9494 -0.0619  2.0828
  168SOPE  H18S18966   3.835   5.219   8.516 -0.1908  1.7566  1.2440
  168SOPE  H18T18967   3.694   5.254   8.417 -0.8735  0.4138  1.3391
  168SOPE   C3318968   3.409   5.824   7.002 -0.4458 -0.3708  0.0449
  168SOPE   H3X18969   3.509   5.788   7.035 -0.3818  1.2964  1.8688
  168SOPE   H3Y18970   3.334   5.751   7.037 -0.6425 -0.0584  0.2867
  168SOPE   C3418971   3.386   5.958   7.081  0.0790  0.7410 -0.1207
  168SOPE   H4X18972   3.298   6.006   7.033 -0.7164  0.7224  1.2703
  168SOPE   H4Y18973   3.473   6.027   7.079  1.7651 -1.1508  2.2287
  168SOPE   C3518974   3.341   5.925   7.228  0.2738  0.6119  0.5717
  168SOPE   H5X18975   3.269   5.840   7.230  1.7338 -0.6627  0.4319
  168SOPE   H5Y18976   3.281   6.010   7.268  0.1563 -0.0406  1.8408
  168SOPE   C3618977   3.451   5.904   7.334 -0.8298 -0.4837  1.1398
  168SOPE   H6X18978   3.532   5.976   7.308 -1.2071 -0.4764 -0.0980
  168SOPE   H6Y18979   3.486   5.804   7.303 -1.6164 -0.0900 -1.2271
  168SOPE   C3718980   3.397   5.915   7.470 -0.5364 -0.7116  0.4070
  168SOPE   H7X18981   3.298   5.865   7.483 -0.0879 -1.1817  2.2606
  168SOPE   H7Y18982   3.378   6.020   7.501  2.0971  0.7002 -2.3413
  168SOPE   C3818983   3.489   5.834   7.572  0.0590 -0.3815 -0.0727
  168SOPE   H8X18984   3.594   5.869   7.571  0.4880 -1.6257 -0.6096
  168SOPE   H8Y18985   3.483   5.737   7.520  0.3492  0.2172 -1.2558
  168SOPE   C3918986   3.435   5.823   7.716 -0.3407 -0.0047  0.5793
  168SOPE   H9X18987   3.330   5.788   7.721 -0.3879 -0.2344 -1.3714
  168SOPE   H9Y18988   3.433   5.927   7.755  0.4340  0.9623 -1.7370
  168SOPE  C31018989   3.528   5.736   7.802 -0.6294  0.7252 -0.4635
  168SOPE  H10X18990   3.631   5.755   7.764 -0.1750 -1.4681 -0.4598
  168SOPE  H10Y18991   3.507   5.630   7.780  1.0533  0.0819  0.8180
  168SOPE  C31118992   3.535   5.769   7.950  0.4284  0.5117 -0.2836
  168SOPE  H11X18993   3.563   5.876   7.952  1.5697  0.2133  0.5345
  168SOPE  H11Y18994   3.621   5.721   8.001  0.4018  1.0820  0.3167
  168SOPE  C31218995   3.415   5.736   8.031  0.0916  0.4488 -0.1561
  168SOPE  H12X18996   3.401   5.626   8.034 -0.8711  0.5331 -0.8687
  168SOPE  H12Y18997   3.326   5.789   7.990  0.3201  0.7414 -0.2765
  168SOPE  C31318998   3.424   5.774   8.181  0.0487 -0.3432  0.4350
  168SOPE  H13X18999   3.325   5.764   8.231 -1.0700  2.8953 -0.8380
  168SOPE  H13Y19000   3.453   5.881   8.194  0.6617 -0.5154  0.4887
  168SOPE  C31419001   3.509   5.682   8.263 -0.5367  0.4118  0.2623
  168SOPE  H14X19002   3.608   5.670   8.214  0.7182 -0.4478  2.8585
  168SOPE  H14Y19003   3.458   5.586   8.287 -1.3405  0.4921 -1.0303
  168SOPE  C31519004   3.544   5.746   8.400  0.1357  0.1967 -0.4718
  168SOPE  H15X19005   3.582   5.663   8.463  0.8292  0.4341 -0.5720
  168SOPE  H15Y19006   3.442   5.772   8.436 -0.4132 -0.2757 -1.6189
  168SOPE  C31619007   3.646   5.859   8.403  0.0526 -0.6264  0.5858
  168SOPE  H16X19008   3.615   5.929   8.322  0.9853 -0.3565  0.4524
  168SOPE  H16Y19009   3.746   5.817   8.380 -0.0734 -0.4647 -0.2912
  168SOPE  C31719010   3.643   5.924   8.539  0.6624 -0.3339  0.5554
  168SOPE  H17X19011   3.646   5.837   8.608  1.2396 -0.1113  0.8161
  168SOPE  H17Y19012   3.551   5.987   8.550  0.5209 -0.1527 -1.3412
  168SOPE  C31819013   3.768   6.006   8.571  0.0065 -0.2796 -0.5090
  168SOPE  H18X19014   3.863   5.949   8.579  0.6027  0.7394  0.0377
  168SOPE  H18Y19015   3.767   6.056   8.671  3.0272 -0.0318 -0.5090
  168SOPE  H18Z19016   3.779   6.087   8.495  1.0253 -1.7148 -1.9464
  169SOPE     N19017   5.730   6.304   6.310 -0.3874  0.1511 -0.2698
  169SOPE   HN119018   5.803   6.266   6.372  1.4881  1.0037 -1.8543
  169SOPE   HN219019   5.728   6.238   6.229 -3.0405  1.2399 -1.2047
  169SOPE   HN319020   5.767   6.395   6.277 -0.5556 -0.7363 -3.2122
  169SOPE   C1219021   5.593   6.307   6.364  0.1163  0.5550  0.2337
  169SOPE  H12A19022   5.595   6.389   6.439  3.4105  0.1053  0.7590
  169SOPE  H12B19023   5.575   6.217   6.427 -0.6784  1.6025  1.5671
  169SOPE   C1119024   5.495   6.330   6.253  0.0175  0.0910  0.2384
  169SOPE  H11A19025   5.519   6.270   6.162 -0.7762 -1.9453  1.3149
  169SOPE  H11B19026   5.504   6.435   6.217  3.4570 -0.1175  0.0824
  169SOPE     P19027   5.272   6.379   6.368 -0.0484 -0.1626 -0.1452
  169SOPE   O1319028   5.153   6.296   6.388  0.0831 -0.3089  0.2655
  169SOPE   O1419029   5.264   6.500   6.287  0.0634 -0.3860  0.4892
  169SOPE   O1219030   5.369   6.289   6.304  0.2209 -0.0940 -0.3110
  169SOPE   O1119031   5.341   6.404   6.508  0.4213  0.8109  0.3277
  169SOPE    C119032   5.320   6.515   6.592 -0.0174  0.5544  0.2063
  169SOPE    HA19033   5.219   6.562   6.590 -0.1624  0.2283 -1.6564
  169SOPE    HB19034   5.393   6.594   6.563 -0.2148  0.6893  0.0733
  169SOPE    C219035   5.337   6.472   6.738  0.4171 -0.3399 -0.1259
  169SOPE    HS19036   5.279   6.543   6.801  2.2720 -0.0055  1.3102
  169SOPE   O2119037   5.469   6.468   6.775  0.0325 -0.3113 -0.1381
  169SOPE   C2119038   5.538   6.588   6.782  0.3029 -0.2676  0.8049
  169SOPE   O2219039   5.483   6.698   6.774  0.0098  0.6124  0.5427
  169SOPE   C2219040   5.688   6.571   6.801 -0.1795  1.1534  0.1634
  169SOPE   H2R19041   5.732   6.673   6.795 -1.1801  1.5233 -1.5340
  169SOPE   H2S19042   5.733   6.500   6.729  1.9259 -0.1859  2.6065
  169SOPE    C319043   5.278   6.334   6.771 -0.2783  0.5723 -0.1845
  169SOPE    HX19044   5.337   6.255   6.721  1.6488  1.2985  0.8193
  169SOPE    HY19045   5.172   6.338   6.740 -1.8607 -0.3284  4.3433
  169SOPE   O3119046   5.278   6.319   6.915 -0.1074 -0.4060 -0.1967
  169SOPE   C3119047   5.300   6.195   6.962 -0.3358 -0.4882  0.0684
  169SOPE   O3219048   5.312   6.097   6.890 -0.5126  0.0065 -0.0571
  169SOPE   C3219049   5.315   6.193   7.114 -0.0695  0.0970  0.2753
  169SOPE   H2X19050   5.249   6.275   7.147  1.1331  1.2497 -0.0903
  169SOPE   H2Y19051   5.422   6.204   7.142 -0.2615 -0.4959  1.2767
  169SOPE   C2319052   5.727   6.510   6.939  0.0213 -0.6710  0.1437
  169SOPE   H3R19053   5.836   6.516   6.961  0.1767  0.2317 -0.8067
  169SOPE   H3S19054   5.694   6.404   6.943  2.0666 -1.4856 -2.2671
  169SOPE   C2419055   5.676   6.600   7.048 -0.3731  0.2921  0.5833
  169SOPE   H4R19056   5.695   6.708   7.030  0.0512  0.3606  1.3655
  169SOPE   H4S19057   5.565   6.592   7.044 -0.2285 -4.2341  0.5765
  169SOPE   C2519058   5.730   6.562   7.186 -0.7678 -0.2621 -0.4256
  169SOPE   H5R19059   5.790   6.471   7.163 -1.2835 -0.2377 -2.0194
  169SOPE   H5S19060   5.796   6.645   7.221 -1.6747 -0.1961  1.2219
  169SOPE   C2619061   5.625   6.532   7.293  0.6606 -0.4177  0.5458
  169SOPE   H6R19062   5.557   6.617   7.315 -1.0372 -1.0832 -1.7695
  169SOPE   H6S19063   5.554   6.458   7.252 -2.4404  2.6566 -0.1565
  169SOPE   C2719064   5.694   6.469   7.414  0.4188  0.3874  0.1061
  169SOPE   H7R19065   5.747   6.390   7.356 -0.0486  0.0037  0.1881
  169SOPE   H7S19066   5.767   6.545   7.448 -0.7255  1.9340 -0.7635
  169SOPE   C2819067   5.587   6.412   7.506  0.3086  0.4510 -0.0966
  169SOPE   H8R19068   5.641   6.376   7.597  0.2787 -1.3378 -0.7586
  169SOPE   H8S19069   5.518   6.496   7.532 -1.0758 -0.5621 -0.4030
  169SOPE   C2919070   5.513   6.289   7.456 -0.1934 -0.4356 -0.2681
  169SOPE   H9119071   5.527   6.264   7.350  0.3390  1.2542 -0.6263
  169SOPE  C21019072   5.438   6.211   7.532  0.5298 -0.0542 -0.4517
  169SOPE  H10119073   5.381   6.135   7.476 -0.5288 -1.2870  2.1572
  169SOPE  C21119074   5.406   6.220   7.685 -0.6461 -0.1501  0.7527
  169SOPE  H11R19075   5.346   6.313   7.698  1.9657  1.9015 -0.8451
  169SOPE  H11S19076   5.497   6.238   7.746  0.1184  0.5937 -0.5588
  169SOPE  C21219077   5.343   6.095   7.741 -0.2009  0.6852  0.7489
  169SOPE  H12R19078   5.399   6.000   7.736 -1.7748 -0.2319 -1.6114
  169SOPE  H12S19079   5.248   6.071   7.687  0.7641  1.1199 -1.2294
  169SOPE  C21319080   5.314   6.118   7.888  0.8375  0.3974  1.4283
  169SOPE  H13R19081   5.223   6.177   7.912  0.1996  0.2088 -0.3750
  169SOPE  H13S19082   5.404   6.160   7.939  0.6178  1.5239  0.9229
  169SOPE  C21419083   5.273   5.983   7.957 -0.1526 -0.6326  0.4437
  169SOPE  H14R19084   5.372   5.948   7.994  0.9252 -0.2223 -1.8568
  169SOPE  H14S19085   5.238   5.910   7.881 -2.9379  1.2401 -0.2039
  169SOPE  C21519086   5.159   5.996   8.061 -0.0526  0.5109 -0.5725
  169SOPE  H15R19087   5.063   6.017   8.009 -0.1774 -0.4005 -0.7315
  169SOPE  H15S19088   5.191   6.072   8.135 -0.6863  0.7492 -0.5349
  169SOPE  C21619089   5.137   5.859   8.136  0.1353 -0.6612 -0.4848
  169SOPE  H16R19090   5.230   5.832   8.191  0.5199 -0.5845 -1.0795
  169SOPE  H16S19091   5.111   5.776   8.067 -0.2987 -1.6022  0.7899
  169SOPE  C21719092   5.034   5.878   8.251 -0.3170  0.2302 -0.3425
  169SOPE  H17R19093   4.940   5.918   8.209 -0.6369 -0.6829 -0.5142
  169SOPE  H17S19094   5.077   5.945   8.328  0.3886  1.5209 -1.8055
  169SOPE  C21819095   4.993   5.751   8.310  0.2671  0.0036  0.4483
  169SOPE  H18R19096   5.066   5.720   8.388  0.1038 -2.1428 -0.1678
  169SOPE  H18S19097   4.998   5.666   8.238  1.4686  0.5331 -0.1311
  169SOPE  H18T19098   4.895   5.770   8.358 -0.6932 -1.6340 -0.7658
  169SOPE   C3319099   5.253   6.061   7.176  1.1357  0.5218 -0.2033
  169SOPE   H3X19100   5.332   6.008   7.234  0.2892 -0.4241  0.1018
  169SOPE   H3Y19101   5.211   6.007   7.089 -0.7257  2.0237 -0.3038
  169SOPE   C3419102   5.136   6.097   7.267  0.1737  0.0889 -0.6755
  169SOPE   H4X19103   5.047   6.127   7.208 -0.4333 -1.2376 -0.4650
  169SOPE   H4Y19104   5.166   6.177   7.337  0.3555 -2.3084  2.2009
  169SOPE   C3519105   5.119   5.985   7.364 -1.1070 -0.4566 -0.2783
  169SOPE   H5X19106   5.201   5.969   7.436 -0.2010 -0.7495 -1.3426
  169SOPE   H5Y19107   5.118   5.889   7.308  2.2066 -1.2401  0.8364
  169SOPE   C3619108   4.998   6.002   7.454  0.3353  0.3258  0.2421
  169SOPE   H6X19109   4.905   6.011   7.394  1.0663 -0.9315 -1.1030
  169SOPE   H6Y19110   5.006   6.076   7.537 -3.7889 -0.5643  1.6710
  169SOPE   C3719111   4.991   5.875   7.543 -0.1670  0.3336  0.0618
  169SOPE   H7X19112   5.085   5.872   7.602  0.6760 -3.2017 -1.2045
  169SOPE   H7Y19113   4.992   5.780   7.485 -2.8526 -1.2393  2.3477
  169SOPE   C3819114   4.866   5.872   7.630 -0.5591 -0.4414 -0.6718
  169SOPE   H8X19115   4.873   5.967   7.687  0.2873 -0.8742 -0.0311
  169SOPE   H8Y19116   4.776   5.866   7.565  0.8438 -0.5089 -2.7212
  169SOPE   C3919117   4.866   5.757   7.731  0.2127 -0.5332 -0.1713
  169SOPE   H9X19118   4.954   5.771   7.798  0.0226  3.0198 -0.4836
  169SOPE   H9Y19119   4.856   5.660   7.678  0.9015 -0.0604 -1.1918
  169SOPE  C31019120   4.742   5.780   7.815 -0.7536  0.4629  0.5839
  169SOPE  H10X19121   4.734   5.887   7.842  0.6572  0.5319  0.8017
  169SOPE  H10Y19122   4.751   5.719   7.907 -0.0923 -0.5341 -0.1209
  169SOPE  C31119123   4.612   5.721   7.757  0.0835 -0.6822  0.2349
  169SOPE  H11X19124   4.579   5.776   7.667  1.8538  1.4605  0.7969
  169SOPE  H11Y19125   4.532   5.712   7.834  1.3749 -1.3950  1.5598
  169SOPE  C31219126   4.625   5.571   7.728  0.8863 -0.0313  0.6034
  169SOPE  H12X19127   4.683   5.526   7.811  1.1234  0.0217  0.4653
  169SOPE  H12Y19128   4.673   5.549   7.630  2.0070  1.9289  0.6635
  169SOPE  C31319129   4.493   5.484   7.736  0.2125  0.3283  0.5246
  169SOPE  H13X19130   4.420   5.522   7.810  0.1287 -0.3048  0.7714
  169SOPE  H13Y19131   4.517   5.378   7.760 -0.0476  0.3875  1.0543
  169SOPE  C31419132   4.415   5.479   7.603  1.1055 -0.0379 -0.4081
  169SOPE  H14X19133   4.459   5.413   7.525 -0.3969 -0.9290 -0.5230
  169SOPE  H14Y19134   4.412   5.577   7.551 -0.4677  0.8812  1.2862
  169SOPE  C31519135   4.267   5.438   7.614 -0.4695  0.2032  0.1212
  169SOPE  H15X19136   4.223   5.494   7.699 -1.9839  1.1790 -1.2356
  169SOPE  H15Y19137   4.291   5.338   7.658  1.1790  0.6222  0.2392
  169SOPE  C31619138   4.169   5.432   7.500 -0.4391 -0.1040  0.4631
  169SOPE  H16X19139   4.210   5.394   7.404  1.0782  1.3094  0.5031
  169SOPE  H16Y19140   4.131   5.533   7.476  0.6570  0.4299  0.8739
  169SOPE  C31719141   4.045   5.341   7.520  0.0864  0.5834 -0.4398
  169SOPE  H17X19142   4.077   5.237   7.544 -1.6879  0.0325 -0.2770
  169SOPE  H17Y19143   3.992   5.325   7.424  4.1134 -2.7280 -2.4177
  169SOPE  C31819144   3.952   5.392   7.626  0.2838 -0.2214  0.1255
  169SOPE  H18X19145   3.924   5.497   7.602 -0.6066 -0.3011  0.7966
  169SOPE  H18Y19146   3.998   5.387   7.727 -1.0432 -3.8100  0.6944
  169SOPE  H18Z19147   3.860   5.330   7.628  0.7868 -1.0938 -1.4612
  170SOPE     N19148   1.494   5.558   6.361 -0.3834  0.2338  0.2394
  170SOPE   HN119149   1.546   5.647   6.348  0.0804 -0.0703 -0.0046
  170SOPE   HN219150   1.561   5.501   6.416 -0.2201  1.7561  1.7298
  170SOPE   HN319151   1.475   5.518   6.267  0.2937  2.7089 -1.0537
  170SOPE   C1219152   1.378   5.569   6.455 -1.0410 -0.3427 -0.3131
  170SOPE  H12A19153   1.350   5.471   6.499  1.2942 -1.0618 -0.3039
  170SOPE  H12B19154   1.295   5.593   6.386  0.3425  1.5029 -1.4494
  170SOPE   C1119155   1.408   5.670   6.569 -1.0175  0.5803 -0.0812
  170SOPE  H11A19156   1.504   5.643   6.619  0.7653  1.2931 -2.9188
  170SOPE  H11B19157   1.329   5.654   6.645 -0.1842 -0.8311  0.5330
  170SOPE     P19158   1.554   5.875   6.487 -0.1710 -0.3730  0.4363
  170SOPE   O1319159   1.525   6.010   6.437  0.8410 -0.0125  0.2033
  170SOPE   O1419160   1.641   5.789   6.400  0.0713  1.0760 -0.4308
  170SOPE   O1219161   1.414   5.803   6.518 -0.3853 -0.2970 -0.3829
  170SOPE   O1119162   1.609   5.893   6.636  0.0176  0.3643  0.4111
  170SOPE    C119163   1.606   6.005   6.718  0.5250  0.1594  0.2393
  170SOPE    HA19164   1.612   6.098   6.658 -0.8518  0.5124  0.6243
  170SOPE    HB19165   1.696   6.013   6.783  0.6241  0.2269  0.0946
  170SOPE    C219166   1.474   6.015   6.794 -0.9668 -0.8753  0.2864
  170SOPE    HS19167   1.494   6.089   6.874  3.3020 -0.7591 -0.6628
  170SOPE   O2119168   1.427   5.888   6.845 -0.0202 -1.0000 -0.0318
  170SOPE   C2119169   1.508   5.841   6.938 -0.1917  0.3625 -0.3594
  170SOPE   O2219170   1.616   5.881   6.975  0.3416 -0.5527  0.3513
  170SOPE   C2219171   1.428   5.725   7.000 -0.2361 -0.5954 -0.5528
  170SOPE   H2R19172   1.412   5.644   6.926 -0.6575 -0.1909 -0.9186
  170SOPE   H2S19173   1.323   5.748   7.030 -0.6198 -1.3733 -1.2508
  170SOPE    C319174   1.358   6.081   6.713 -0.4041  0.1378 -0.1345
  170SOPE    HX19175   1.336   6.001   6.639 -0.3288  0.5620 -0.6222
  170SOPE    HY19176   1.395   6.174   6.664  1.4333  0.1206  1.1168
  170SOPE   O3119177   1.234   6.102   6.792 -0.4082  0.6785  0.1579
  170SOPE   C3119178   1.149   6.165   6.715  0.9718  0.1927 -0.5850
  170SOPE   O3219179   1.159   6.201   6.601 -0.0922  0.2421  0.3617
  170SOPE   C3219180   1.030   6.201   6.812  0.1765  0.2045 -0.7667
  170SOPE   H2X19181   1.079   6.223   6.909  1.2520  0.0857 -1.2589
  170SOPE   H2Y19182   0.969   6.108   6.814 -1.2410  0.8549 -4.6354
  170SOPE   C2319183   1.500   5.667   7.124  0.3590  0.3528 -0.4210
  170SOPE   H3R19184   1.610   5.659   7.109  0.3218 -0.9045 -0.1672
  170SOPE   H3S19185   1.458   5.564   7.122 -2.2149  1.2606  1.7553
  170SOPE   C2419186   1.460   5.737   7.251 -0.0734  0.6799  0.2592
  170SOPE   H4R19187   1.492   5.843   7.253 -2.2854  1.4140 -0.1064
  170SOPE   H4S19188   1.351   5.759   7.255  0.0457  1.5026 -0.7332
  170SOPE   C2519189   1.489   5.661   7.381  0.1276 -0.1870  0.0599
  170SOPE   H5R19190   1.444   5.562   7.406 -0.0504 -0.0311  0.3540
  170SOPE   H5S19191   1.597   5.636   7.375 -0.1263 -1.1262 -1.0336
  170SOPE   C2619192   1.470   5.752   7.502 -0.6240 -0.0313  1.0576
  170SOPE   H6R19193   1.522   5.850   7.501 -1.1066  0.2657 -1.2132
  170SOPE   H6S19194   1.360   5.764   7.514 -1.0975 -3.2835  0.9099
  170SOPE   C2719195   1.514   5.677   7.618 -0.6004  0.2212  0.2224
  170SOPE   H7R19196   1.486   5.570   7.609  0.3813 -0.1608  1.4282
  170SOPE   H7S19197   1.625   5.686   7.627 -0.4769 -1.7009  1.1205
  170SOPE   C2819198   1.449   5.729   7.749  0.0652 -0.0842  0.2727
  170SOPE   H8R19199   1.464   5.839   7.755 -0.8058  0.0352  0.3940
  170SOPE   H8S19200   1.338   5.715   7.745 -0.2784  2.3554 -1.4717
  170SOPE   C2919201   1.504   5.641   7.862  0.4161 -0.6612 -0.3287
  170SOPE   H9119202   1.543   5.542   7.836  0.2727 -0.7049 -0.3790
  170SOPE  C21019203   1.501   5.679   7.996  0.3789 -0.3539  0.4346
  170SOPE  H10119204   1.555   5.617   8.069 -0.4277 -2.0286 -0.3454
  170SOPE  C21119205   1.443   5.805   8.053 -0.3515 -0.1372  0.3757
  170SOPE  H11R19206   1.378   5.862   7.983 -0.1589 -1.6145 -1.0765
  170SOPE  H11S19207   1.524   5.875   8.082  1.0136 -1.4233 -0.1391
  170SOPE  C21219208   1.366   5.772   8.177 -0.2552  0.8144  0.3909
  170SOPE  H12R19209   1.417   5.702   8.247 -2.4929 -0.0650  1.2546
  170SOPE  H12S19210   1.272   5.718   8.153  0.7532 -0.4113 -0.9398
  170SOPE  C21319211   1.327   5.899   8.254  0.7103 -0.6982  0.2905
  170SOPE  H13R19212   1.298   5.976   8.180 -1.7952 -3.2246 -1.5473
  170SOPE  H13S19213   1.421   5.944   8.293 -0.3355  1.1666  0.7758
  170SOPE  C21419214   1.222   5.867   8.364 -0.0610 -0.2500 -0.5014
  170SOPE  H14R19215   1.278   5.808   8.439  1.4679 -2.6153 -3.2898
  170SOPE  H14S19216   1.137   5.803   8.332 -1.6966  1.7488 -0.3660
  170SOPE  C21519217   1.149   5.988   8.434 -0.1966 -0.4222 -0.2171
  170SOPE  H15R19218   1.079   5.947   8.510 -0.3303 -0.8046 -0.5415
  170SOPE  H15S19219   1.090   6.028   8.349 -0.3709  0.7294  0.4256
  170SOPE  C21619220   1.247   6.102   8.484 -0.1149 -0.5990  0.7668
  170SOPE  H16R19221   1.198   6.201   8.480  1.5251  0.2204  0.3170
  170SOPE  H16S19222   1.321   6.103   8.401 -1.0266 -1.0987 -0.0726
  170SOPE  C21719223   1.304   6.062   8.617  0.4225  0.2666 -0.5319
  170SOPE  H17R19224   1.364   5.972   8.592 -1.2154 -0.7213 -1.0390
  170SOPE  H17S19225   1.231   6.014   8.685  0.9103 -0.2258 -0.3446
  170SOPE  C21819226   1.384   6.166   8.694 -1.0967  0.1212  0.3390
  170SOPE  H18R19227   1.324   6.248   8.739  0.8523  0.2793  2.8481
  170SOPE  H18S19228   1.468   6.202   8.631  0.0170  0.0050  1.7053
  170SOPE  H18T19229   1.429   6.122   8.786 -1.8713  0.1652  0.7502
  170SOPE   C3319230   0.930   6.316   6.770 -0.4477  0.4785  0.7769
  170SOPE   H3X19231   0.893   6.295   6.668  0.0387 -1.3038  0.9305
  170SOPE   H3Y19232   0.981   6.414   6.778  1.6029 -0.0465 -3.2126
  170SOPE   C3419233   0.823   6.313   6.876  0.2263 -0.5914  0.5969
  170SOPE   H4X19234   0.763   6.219   6.869 -0.8873  0.1598 -0.3651
  170SOPE   H4Y19235   0.747   6.392   6.858 -0.0060 -0.9268  0.0637
  170SOPE   C3519236   0.884   6.346   7.017 -0.2676  0.5853  0.8753
  170SOPE   H5X19237   0.969   6.416   7.001  0.0907  0.3248  1.5828
  170SOPE   H5Y19238   0.923   6.250   7.058 -0.4092 -1.5752 -3.4348
  170SOPE   C3619239   0.782   6.411   7.106 -0.4461 -0.3359  0.5577
  170SOPE   H6X19240   0.730   6.491   7.050  0.2061  0.4276  1.0120
  170SOPE   H6Y19241   0.819   6.456   7.201 -0.5890 -0.0341  0.4737
  170SOPE   C3719242   0.676   6.312   7.154 -0.2310 -0.2488 -0.0608
  170SOPE   H7X19243   0.710   6.252   7.242 -0.2149 -0.0754  0.0521
  170SOPE   H7Y19244   0.647   6.233   7.081 -0.5690  0.2304 -0.4461
  170SOPE   C3819245   0.549   6.370   7.203 -0.0179  0.1278 -0.0926
  170SOPE   H8X19246   0.507   6.432   7.121 -0.9038 -1.5192 -0.9211
  170SOPE   H8Y19247   0.570   6.436   7.290 -0.0444 -0.1951  0.1579
  170SOPE   C3919248   0.459   6.261   7.262 -0.5417 -0.0405 -0.5144
  170SOPE   H9X19249   0.516   6.198   7.333 -0.4826 -1.1454 -1.5244
  170SOPE   H9Y19250   0.429   6.191   7.181 -1.0758  0.2749 -0.5977
  170SOPE  C31019251   0.338   6.308   7.340  0.3017  1.2183  0.2909
  170SOPE  H10X19252   0.271   6.220   7.351 -3.4954  3.8346  0.5180
  170SOPE  H10Y19253   0.288   6.389   7.281 -1.3537 -0.5289 -0.8336
  170SOPE  C31119254   0.366   6.366   7.479 -0.3643  0.2160  0.9795
  170SOPE  H11X19255   0.277   6.426   7.506  1.2641  2.3625  1.9253
  170SOPE  H11Y19256   0.444   6.446   7.481 -0.4857  0.3296  1.5287
  170SOPE  C31219257   0.387   6.261   7.587  0.3258  0.3541 -0.2034
  170SOPE  H12X19258   0.493   6.231   7.571 -0.1081  0.1469 -3.3120
  170SOPE  H12Y19259   0.317   6.176   7.574 -0.0860  0.5130  0.8809
  170SOPE  C31319260   0.376   6.326   7.726 -0.2700 -0.4207 -0.9719
  170SOPE  H13X19261   0.269   6.322   7.756 -0.6456 -1.3244 -2.3122
  170SOPE  H13Y19262   0.414   6.431   7.729  2.9992 -1.4886 -0.9914
  170SOPE  C31419263   0.471   6.266   7.834 -0.6159  0.4142  0.4778
  170SOPE  H14X19264   0.577   6.259   7.801 -1.3277 -1.8417 -1.6774
  170SOPE  H14Y19265   0.462   6.157   7.853  0.2928  0.5201  1.6448
  170SOPE  C31519266   0.464   6.336   7.965 -0.7074  0.2796 -1.0735
  170SOPE  H15X19267   0.372   6.318   8.024  1.4097 -1.7423  1.9031
  170SOPE  H15Y19268   0.486   6.443   7.943 -1.6446  0.9092  0.8504
  170SOPE  C31619269   0.577   6.283   8.062 -0.2159 -1.0193 -0.6622
  170SOPE  H16X19270   0.595   6.177   8.034  2.4082 -1.2275  1.3738
  170SOPE  H16Y19271   0.539   6.291   8.166 -0.6284  1.7127 -0.9479
  170SOPE  C31719272   0.708   6.368   8.042 -0.7468  0.1785 -0.6028
  170SOPE  H17X19273   0.684   6.469   8.003 -2.7668  0.1246  0.3746
  170SOPE  H17Y19274   0.759   6.312   7.961  1.8188 -0.2525  1.2170
  170SOPE  C31819275   0.795   6.382   8.170 -0.1043  0.0785  0.4493
  170SOPE  H18X19276   0.876   6.451   8.139 -2.3160  1.8324 -1.7671
  170SOPE  H18Y19277   0.856   6.294   8.199 -1.3722 -1.3783 -1.1540
  170SOPE  H18Z19278   0.743   6.425   8.259  0.8432 -0.5554  1.3319
  171SOPE     N19279   1.430   1.843   6.775  0.3759 -0.1414 -0.5371
  171SOPE   HN119280   1.377   1.930   6.797 -0.4599 -0.8174  0.2202
  171SOPE   HN219281   1.475   1.810   6.862 -0.5301  1.3122  0.5179
  171SOPE   HN319282   1.509   1.868   6.712  2.3026  0.6903  2.0610
  171SOPE   C1219283   1.338   1.740   6.717 -0.0883  0.1133  0.4704
  171SOPE  H12A19284   1.278   1.685   6.791  0.5270 -2.7162 -1.0009
  171SOPE  H12B19285   1.385   1.653   6.666  0.1165 -1.0523  2.5652
  171SOPE   C1119286   1.239   1.800   6.617  0.2998  0.1979  0.8848
  171SOPE  H11A19287   1.301   1.839   6.533  1.4230  0.0341  1.6251
  171SOPE  H11B19288   1.188   1.887   6.664  0.9815  1.2451 -0.2611
  171SOPE     P19289   1.008   1.658   6.620 -0.5106 -0.1389  0.2686
  171SOPE   O1319290   1.024   1.529   6.683  0.6783  0.0080 -0.0014
  171SOPE   O1419291   0.905   1.662   6.514 -0.2047 -0.7849 -0.2676
  171SOPE   O1219292   1.148   1.708   6.564  0.1287  0.5511 -0.0315
  171SOPE   O1119293   0.970   1.771   6.729  0.2063  0.4318 -0.1779
  171SOPE    C119294   0.939   1.904   6.696  0.5328  0.3005  0.2790
  171SOPE    HA19295   0.834   1.900   6.659  0.2579 -1.1595  1.1219
  171SOPE    HB19296   0.998   1.939   6.609  1.8781  0.6254  1.2784
  171SOPE    C219297   0.952   1.992   6.823 -0.1560  0.2638 -0.2016
  171SOPE    HS19298   1.055   1.981   6.864 -0.2821  0.8174  0.2758
  171SOPE   O2119299   0.844   1.959   6.915  0.2831 -0.1346 -0.4556
  171SOPE   C2119300   0.886   1.876   7.010 -0.1354 -0.1762  0.0268
  171SOPE   O2219301   0.997   1.874   7.063 -0.0127  0.3545  0.1358
  171SOPE   C2219302   0.769   1.785   7.046  0.7321 -0.1449  0.0649
  171SOPE   H2R19303   0.743   1.742   6.947  1.9781 -1.1129  0.1416
  171SOPE   H2S19304   0.677   1.840   7.076 -0.9259 -1.9119 -1.5184
  171SOPE    C319305   0.945   2.149   6.783  0.2605 -0.4517 -0.3493
  171SOPE    HX19306   0.851   2.187   6.738  1.1890  2.3665 -0.0928
  171SOPE    HY19307   1.021   2.165   6.704  0.4731 -0.6018 -0.1776
  171SOPE   O3119308   0.960   2.235   6.899  0.5194  0.3428 -0.2781
  171SOPE   C3119309   1.068   2.294   6.905 -0.4427  0.5517  0.1716
  171SOPE   O3219310   1.148   2.318   6.811 -0.2613  0.3176  0.5030
  171SOPE   C3219311   1.091   2.333   7.052  0.5940 -0.3740 -0.1379
  171SOPE   H2X19312   1.035   2.424   7.080  1.1903 -0.2745  0.7981
  171SOPE   H2Y19313   1.194   2.374   7.058  0.5263  0.0066 -1.3545
  171SOPE   C2319314   0.792   1.683   7.163  0.3490 -0.2681  0.0798
  171SOPE   H3R19315   0.899   1.657   7.172  0.3145 -0.4230  0.0289
  171SOPE   H3S19316   0.726   1.596   7.144  0.9247 -1.4497  3.0184
  171SOPE   C2419317   0.744   1.726   7.304  0.6589 -0.4027 -0.3877
  171SOPE   H4R19318   0.634   1.742   7.295  0.6165  0.3861  1.1872
  171SOPE   H4S19319   0.741   1.635   7.368 -2.5977 -0.6123 -0.6465
  171SOPE   C2519320   0.814   1.847   7.359 -0.1123  0.1337  0.2272
  171SOPE   H5R19321   0.923   1.834   7.342 -0.3764 -0.3255 -1.2625
  171SOPE   H5S19322   0.790   1.936   7.296 -0.3105  0.5877  0.9288
  171SOPE   C2619323   0.780   1.874   7.511 -0.4725  0.7751  0.4264
  171SOPE   H6R19324   0.835   1.961   7.553  1.2784  0.6353 -1.4268
  171SOPE   H6S19325   0.673   1.904   7.519 -0.7764 -0.3651  0.9849
  171SOPE   C2719326   0.814   1.750   7.597  0.0398  0.4196  0.4585
  171SOPE   H7R19327   0.745   1.663   7.589  0.1879  0.4376 -1.3838
  171SOPE   H7S19328   0.920   1.726   7.573  0.6160  1.6096  1.6478
  171SOPE   C2819329   0.827   1.779   7.745 -0.1618 -0.2743 -0.0798
  171SOPE   H8R19330   0.852   1.690   7.806  1.1072  0.6546  0.8098
  171SOPE   H8S19331   0.910   1.853   7.750 -0.2326 -0.2769  1.9213
  171SOPE   C2919332   0.701   1.838   7.806 -0.4123  0.1426  0.8071
  171SOPE   H9119333   0.674   1.933   7.757 -2.2052 -0.2794  0.8888
  171SOPE  C21019334   0.630   1.802   7.917  0.5578  0.0327  0.5666
  171SOPE  H10119335   0.537   1.853   7.949 -0.2460 -2.1182  1.9058
  171SOPE  C21119336   0.667   1.689   8.011 -0.4511  0.0047  0.6991
  171SOPE  H11R19337   0.648   1.727   8.114  1.8779  0.4998  1.0033
  171SOPE  H11S19338   0.771   1.652   8.003 -0.7499 -0.5048 -1.0665
  171SOPE  C21219339   0.583   1.567   7.979 -0.8146  0.0338  0.3270
  171SOPE  H12R19340   0.607   1.478   8.041 -0.0343 -0.1925 -0.2863
  171SOPE  H12S19341   0.612   1.538   7.876 -0.1153  1.0292  0.2330
  171SOPE  C21319342   0.427   1.594   7.973  0.1450  0.4075 -0.0608
  171SOPE  H13R19343   0.383   1.504   7.925 -1.9071  0.2344  1.9879
  171SOPE  H13S19344   0.405   1.680   7.908  2.3223  2.1773  1.3850
  171SOPE  C21419345   0.370   1.615   8.114  0.6184 -0.2789  0.0269
  171SOPE  H14R19346   0.277   1.674   8.102  0.9890  0.5791  1.1653
  171SOPE  H14S19347   0.441   1.677   8.173 -1.7700  1.1501  1.5648
  171SOPE  C21519348   0.316   1.492   8.184 -0.2475  1.1323 -0.3925
  171SOPE  H15R19349   0.392   1.411   8.178 -0.9069  0.4529  0.1414
  171SOPE  H15S19350   0.219   1.454   8.144 -0.2507 -1.0327  1.4614
  171SOPE  C21619351   0.284   1.536   8.328 -0.1808 -0.3223 -0.4088
  171SOPE  H16R19352   0.200   1.606   8.306 -0.6231 -0.8975 -0.5968
  171SOPE  H16S19353   0.363   1.598   8.374 -0.7923  0.8035 -0.8382
  171SOPE  C21719354   0.226   1.422   8.417 -0.4939 -0.1903  0.0147
  171SOPE  H17R19355   0.305   1.344   8.420 -0.8192 -0.4986  1.0772
  171SOPE  H17S19356   0.130   1.388   8.374 -0.2034 -0.8129 -0.1504
  171SOPE  C21819357   0.196   1.456   8.562  0.0290  0.5172  1.2685
  171SOPE  H18R19358   0.286   1.485   8.620 -0.3824  3.2932  0.6173
  171SOPE  H18S19359   0.148   1.366   8.607  1.7935 -1.8083 -1.1960
  171SOPE  H18T19360   0.126   1.542   8.566 -3.1792 -1.6687 -1.7254
  171SOPE   C3319361   1.084   2.224   7.154  0.2202 -0.0176  0.1860
  171SOPE   H3X19362   1.170   2.157   7.135 -0.7886 -1.3208  0.0678
  171SOPE   H3Y19363   0.990   2.165   7.142  0.9253 -0.8398 -1.5329
  171SOPE   C3419364   1.110   2.285   7.295 -0.2848 -0.3650 -0.5105
  171SOPE   H4X19365   1.036   2.365   7.314 -0.9869 -1.3587  1.0488
  171SOPE   H4Y19366   1.209   2.336   7.300 -0.2721 -0.1857 -1.9218
  171SOPE   C3519367   1.087   2.178   7.409 -0.2094  0.5811 -0.2872
  171SOPE   H5X19368   1.147   2.090   7.377  0.7907  1.5879 -1.2738
  171SOPE   H5Y19369   0.979   2.151   7.421 -0.2360  0.1230 -1.4287
  171SOPE   C3619370   1.139   2.218   7.551  0.4601 -0.0309 -0.1295
  171SOPE   H6X19371   1.088   2.309   7.587 -1.1703 -0.5135 -1.0955
  171SOPE   H6Y19372   1.250   2.229   7.555  0.6511 -1.5465 -0.3051
  171SOPE   C3719373   1.110   2.107   7.656  0.2999  0.2887  0.2391
  171SOPE   H7X19374   1.168   2.020   7.618  0.7250  0.0250  1.4290
  171SOPE   H7Y19375   1.002   2.083   7.646  0.1858  1.0343 -0.4228
  171SOPE   C3819376   1.157   2.129   7.799 -0.4839 -0.9477 -0.4378
  171SOPE   H8X19377   1.112   2.223   7.838  1.0498 -0.5720  0.5276
  171SOPE   H8Y19378   1.267   2.146   7.807 -0.6650  0.0947 -0.0109
  171SOPE   C3919379   1.126   2.023   7.904  0.0459 -0.2192 -0.5220
  171SOPE   H9X19380   1.018   1.995   7.899  0.4331 -2.7274  2.4622
  171SOPE   H9Y19381   1.158   2.071   7.999 -3.9998 -0.5785  1.2489
  171SOPE  C31019382   1.209   1.891   7.888 -0.4845  0.2721  0.3869
  171SOPE  H10X19383   1.310   1.913   7.929 -1.5519  0.2601  3.3000
  171SOPE  H10Y19384   1.217   1.868   7.780  1.9869 -0.2943  0.6274
  171SOPE  C31119385   1.153   1.771   7.971  0.5009 -0.3006 -0.3547
  171SOPE  H11X19386   1.044   1.772   7.949 -0.1993  1.7850  2.5964
  171SOPE  H11Y19387   1.167   1.810   8.074  1.5948  0.6376 -0.8375
  171SOPE  C31219388   1.202   1.628   7.940  0.3602 -0.5715  0.4221
  171SOPE  H12X19389   1.309   1.647   7.963  0.1357  2.1299 -0.4128
  171SOPE  H12Y19390   1.182   1.601   7.834 -0.9994  0.4625  0.3907
  171SOPE  C31319391   1.151   1.511   8.025  0.0592 -0.0629  0.3332
  171SOPE  H13X19392   1.194   1.411   8.002 -0.6955  0.0424 -1.6911
  171SOPE  H13Y19393   1.042   1.502   8.006  0.1430  1.4374 -1.0493
  171SOPE  C31419394   1.175   1.545   8.176 -0.0162  0.1360 -0.0143
  171SOPE  H14X19395   1.115   1.475   8.238 -0.0113  0.4140  0.3071
  171SOPE  H14Y19396   1.144   1.650   8.197  0.7609  0.6507 -1.2843
  171SOPE  C31519397   1.321   1.520   8.215 -0.3817 -0.4002 -0.7571
  171SOPE  H15X19398   1.388   1.578   8.147  0.7064  0.2899  0.8448
  171SOPE  H15Y19399   1.334   1.415   8.182  0.6506  0.3416 -2.9298
  171SOPE  C31619400   1.348   1.546   8.359  0.0226  0.8774  0.1583
  171SOPE  H16X19401   1.280   1.486   8.423  0.0219  1.6934  0.9311
  171SOPE  H16Y19402   1.326   1.653   8.379  1.3441  1.0344  0.9195
  171SOPE  C31719403   1.494   1.510   8.419  0.7019 -0.6400 -0.9641
  171SOPE  H17X19404   1.505   1.561   8.517  1.7541 -2.8505  0.1157
  171SOPE  H17Y19405   1.572   1.558   8.355 -0.1569  0.5371 -1.1739
  171SOPE  C31819406   1.520   1.365   8.438  0.0560 -0.2039  0.2734
  171SOPE  H18X19407   1.626   1.350   8.470  0.5318  0.0858 -1.0973
  171SOPE  H18Y19408   1.508   1.313   8.340  0.9582  0.1610 -0.0471
  171SOPE  H18Z19409   1.452   1.319   8.513  1.0585  0.9702  1.9462
  172SOPE     N19410   1.441   3.108   6.334  0.2108  0.5791 -0.0286
  172SOPE   HN119411   1.407   3.207   6.336  0.4101  0.6733  2.8379
  172SOPE   HN219412   1.407   3.052   6.255  1.3832 -1.3903  0.7966
  172SOPE   HN319413   1.388   3.076   6.417 -0.7615  2.0784 -0.0279
  172SOPE   C1219414   1.585   3.096   6.369 -0.1102 -0.0281 -0.1736
  172SOPE  H12A19415   1.607   2.987   6.372  1.7902  0.3307  0.9582
  172SOPE  H12B19416   1.601   3.144   6.468 -1.4899  1.5764 -0.6829
  172SOPE   C1119417   1.678   3.167   6.272 -1.0524 -0.4362 -0.0712
  172SOPE  H11A19418   1.665   3.134   6.167  1.9199  1.0169 -1.0111
  172SOPE  H11B19419   1.781   3.140   6.303 -0.8629  0.0572 -0.2567
  172SOPE     P19420   1.769   3.399   6.361 -0.0377 -0.1874 -0.1047
  172SOPE   O1319421   1.697   3.495   6.443  0.1311 -0.2715  0.2504
  172SOPE   O1419422   1.863   3.457   6.260 -0.3173 -0.6501 -0.0426
  172SOPE   O1219423   1.663   3.306   6.275  0.4692 -0.4604 -0.1270
  172SOPE   O1119424   1.844   3.295   6.449  0.0442  0.0522  0.5413
  172SOPE    C119425   1.785   3.284   6.580 -0.1135 -0.1978 -0.5916
  172SOPE    HA19426   1.772   3.177   6.607 -2.6606  0.1436 -0.1674
  172SOPE    HB19427   1.683   3.326   6.597 -0.0666 -1.1114  2.7843
  172SOPE    C219428   1.872   3.358   6.686 -0.6139 -0.7134 -0.4893
  172SOPE    HS19429   1.883   3.467   6.665  1.7506 -0.7113  0.4804
  172SOPE   O2119430   2.002   3.289   6.705  0.0028 -0.3368  0.5299
  172SOPE   C2119431   2.098   3.358   6.657 -0.1175 -1.3338  0.2538
  172SOPE   O2219432   2.080   3.451   6.577 -0.2257  0.4313  0.2749
  172SOPE   C2219433   2.234   3.305   6.702 -0.4964  0.2325  0.3122
  172SOPE   H2R19434   2.270   3.254   6.610  0.2610  1.1520  0.0823
  172SOPE   H2S19435   2.223   3.225   6.779  0.7077  0.4666  0.7553
  172SOPE    C319436   1.787   3.365   6.821  0.1109 -0.0973 -0.1762
  172SOPE    HX19437   1.761   3.257   6.831  0.6645 -0.1858  0.3196
  172SOPE    HY19438   1.688   3.414   6.804 -0.6997 -1.3146  0.7863
  172SOPE   O3119439   1.869   3.415   6.927  0.0466  0.2366 -0.1734
  172SOPE   C3119440   1.842   3.531   6.978  0.2067  0.2499  0.2434
  172SOPE   O3219441   1.739   3.595   6.949  0.3923  0.0210 -0.1604
  172SOPE   C3219442   1.959   3.569   7.066  0.3833  0.2573  0.0506
  172SOPE   H2X19443   2.033   3.625   7.004  0.6722 -1.3849 -1.1569
  172SOPE   H2Y19444   2.003   3.482   7.119 -0.1521  0.4165  0.7667
  172SOPE   C2319445   2.343   3.408   6.764  0.0658  0.0652  0.3452
  172SOPE   H3R19446   2.366   3.479   6.682  2.8365 -0.5105  0.5255
  172SOPE   H3S19447   2.431   3.349   6.799 -1.1711 -1.7982  0.4586
  172SOPE   C2419448   2.288   3.477   6.882  0.4769  0.1794 -0.1051
  172SOPE   H4R19449   2.193   3.529   6.856  0.8761  0.7070 -0.5303
  172SOPE   H4S19450   2.255   3.408   6.963 -3.1338  1.1585 -0.5532
  172SOPE   C2519451   2.371   3.586   6.930 -0.3304 -0.5804  0.4153
  172SOPE   H5R19452   2.477   3.551   6.937 -0.1350 -0.1057 -0.1242
  172SOPE   H5S19453   2.378   3.670   6.858  2.9786  0.9452  2.2839
  172SOPE   C2619454   2.344   3.654   7.068 -0.3119 -0.9821 -0.6456
  172SOPE   H6R19455   2.241   3.695   7.079  0.2618 -0.0944  2.3290
  172SOPE   H6S19456   2.363   3.584   7.152 -0.2509 -0.6708 -0.3973
  172SOPE   C2719457   2.447   3.768   7.099 -0.2267  0.4226 -0.6116
  172SOPE   H7R19458   2.552   3.733   7.102 -0.0049  1.0985 -0.2210
  172SOPE   H7S19459   2.432   3.828   7.006 -0.5068 -1.4231 -1.8184
  172SOPE   C2819460   2.427   3.857   7.227  0.1731  0.5040  0.0804
  172SOPE   H8R19461   2.491   3.948   7.221  1.2480 -0.2414 -0.0264
  172SOPE   H8S19462   2.323   3.891   7.207 -0.1221 -0.5014 -0.1610
  172SOPE   C2919463   2.449   3.778   7.356 -0.1909  0.5369  0.3208
  172SOPE   H9119464   2.543   3.721   7.362 -0.2733  0.0337 -2.0904
  172SOPE  C21019465   2.364   3.762   7.456 -1.0099  0.6814 -0.6875
  172SOPE  H10119466   2.399   3.711   7.547 -1.6039 -1.7611 -1.7732
  172SOPE  C21119467   2.233   3.829   7.477 -0.4881 -0.5094 -0.2117
  172SOPE  H11R19468   2.147   3.764   7.449 -1.9214  0.0294  2.4977
  172SOPE  H11S19469   2.235   3.932   7.436 -0.5532  0.0832  1.2122
  172SOPE  C21219470   2.219   3.853   7.633 -0.3214 -0.6763 -0.1619
  172SOPE  H12R19471   2.315   3.896   7.667 -0.9870  0.2396  0.5974
  172SOPE  H12S19472   2.211   3.757   7.689  0.1817 -1.2455 -1.0349
  172SOPE  C21319473   2.098   3.943   7.655 -0.0317  0.2658  0.6669
  172SOPE  H13R19474   2.003   3.890   7.633 -0.5688  1.8482 -1.0955
  172SOPE  H13S19475   2.096   4.032   7.589  1.1325 -0.7266 -0.7947
  172SOPE  C21419476   2.098   3.999   7.803  0.8559 -0.0464 -0.0424
  172SOPE  H14R19477   2.114   4.109   7.791 -0.5024  0.2074  0.3737
  172SOPE  H14S19478   2.192   3.970   7.854  1.5776  2.5772  0.2660
  172SOPE  C21519479   1.976   3.938   7.876  0.5943  0.4224  0.2996
  172SOPE  H15R19480   1.983   3.829   7.894  0.3555  0.4375  0.4792
  172SOPE  H15S19481   1.891   3.946   7.805  2.2111 -1.1971 -1.9559
  172SOPE  C21619482   1.949   4.001   8.015 -0.7422 -0.6400 -0.6922
  172SOPE  H16R19483   1.973   4.109   8.003 -3.2064 -0.0253 -0.4935
  172SOPE  H16S19484   2.016   3.965   8.096 -0.6392 -0.3138 -0.6261
  172SOPE  C21719485   1.805   3.983   8.056 -0.8244 -0.0075 -0.2196
  172SOPE  H17R19486   1.789   3.877   8.083  0.7329  0.2220  1.8267
  172SOPE  H17S19487   1.741   4.012   7.969 -1.7436  1.6182  0.9357
  172SOPE  C21819488   1.772   4.063   8.181  0.2630 -1.2955  0.0298
  172SOPE  H18R19489   1.817   4.165   8.179  0.0035 -1.1981 -1.2008
  172SOPE  H18S19490   1.810   4.008   8.270 -1.0345 -1.5049  0.4765
  172SOPE  H18T19491   1.661   4.074   8.177  0.0147 -3.6584 -0.9850
  172SOPE   C3319492   1.920   3.673   7.176 -0.4508  0.0751  0.2770
  172SOPE   H3X19493   1.868   3.759   7.128  0.1891  0.9679  1.1446
  172SOPE   H3Y19494   2.005   3.710   7.236 -1.9928 -2.0750  4.1876
  172SOPE   C3419495   1.830   3.612   7.283  0.0324 -0.1931 -0.5290
  172SOPE   H4X19496   1.869   3.521   7.334  1.4190  1.1218  0.8548
  172SOPE   H4Y19497   1.726   3.585   7.253 -0.9027  0.7225  1.6770
  172SOPE   C3519498   1.814   3.716   7.397 -0.4701 -0.2053  0.8818
  172SOPE   H5X19499   1.789   3.813   7.349  2.2468 -0.8404 -2.1602
  172SOPE   H5Y19500   1.912   3.730   7.448  1.2273  0.7436 -2.3668
  172SOPE   C3619501   1.708   3.671   7.499  0.1740 -0.0861 -0.4229
  172SOPE   H6X19502   1.728   3.563   7.516 -0.4789 -0.3323 -1.1825
  172SOPE   H6Y19503   1.606   3.683   7.456 -1.2437 -2.3455  2.0649
  172SOPE   C3719504   1.716   3.739   7.639  1.3638  0.2596  0.1616
  172SOPE   H7X19505   1.723   3.850   7.630  3.1142  0.3940  2.3003
  172SOPE   H7Y19506   1.796   3.685   7.695 -0.2844 -2.1604  0.3295
  172SOPE   C3819507   1.594   3.706   7.726  0.3431  0.2910 -0.7293
  172SOPE   H8X19508   1.597   3.597   7.746  0.3562  0.5409  0.7832
  172SOPE   H8Y19509   1.498   3.739   7.681  1.3593  0.3325 -2.9546
  172SOPE   C3919510   1.602   3.780   7.857 -0.1075  0.5879 -0.3006
  172SOPE   H9X19511   1.614   3.887   7.830 -0.9665  0.9076  0.4983
  172SOPE   H9Y19512   1.685   3.738   7.917 -0.8106  0.2348  0.4545
  172SOPE  C31019513   1.470   3.783   7.927  0.6208  0.1670 -0.2502
  172SOPE  H10X19514   1.428   3.681   7.942  0.3789  0.4236  0.9339
  172SOPE  H10Y19515   1.392   3.829   7.863 -1.7082 -3.5643 -0.3546
  172SOPE  C31119516   1.483   3.850   8.067 -0.3468  0.3695  0.0321
  172SOPE  H11X19517   1.542   3.944   8.069  1.3034 -0.5968 -1.1476
  172SOPE  H11Y19518   1.547   3.782   8.127 -0.0399 -0.0133 -0.7213
  172SOPE  C31219519   1.347   3.862   8.133 -0.0824 -0.5276  0.2695
  172SOPE  H12X19520   1.301   3.763   8.115 -2.5990  0.5661  0.3479
  172SOPE  H12Y19521   1.293   3.938   8.072  2.2931  0.7494 -0.3751
  172SOPE  C31319522   1.349   3.909   8.281  0.0792  0.4681  0.8762
  172SOPE  H13X19523   1.450   3.957   8.288  0.4136  0.1872 -1.3733
  172SOPE  H13Y19524   1.356   3.818   8.345 -1.0724 -0.7785 -0.7025
  172SOPE  C31419525   1.233   4.000   8.318 -0.3646  0.8442  0.3647
  172SOPE  H14X19526   1.141   3.937   8.312 -0.0046  0.3632 -0.1530
  172SOPE  H14Y19527   1.237   4.084   8.245  0.8361  0.0506 -0.5106
  172SOPE  C31519528   1.223   4.047   8.461  0.4828  0.0703 -0.1230
  172SOPE  H15X19529   1.310   4.111   8.486 -1.4981  2.4193  1.1957
  172SOPE  H15Y19530   1.226   3.962   8.533  0.9623  0.4372  0.2973
  172SOPE  C31619531   1.107   4.147   8.481 -0.3405  0.1840 -0.5598
  172SOPE  H16X19532   1.022   4.081   8.452  1.4382 -1.8513 -1.4286
  172SOPE  H16Y19533   1.120   4.237   8.418  0.9510  1.1665  1.0445
  172SOPE  C31719534   1.090   4.189   8.632 -0.0356  0.4572  0.6886
  172SOPE  H17X19535   1.170   4.262   8.655 -0.5890  0.8996  1.2597
  172SOPE  H17Y19536   1.096   4.098   8.696 -3.3851 -0.6540 -0.3342
  172SOPE  C31819537   0.959   4.258   8.656 -0.0594 -0.3593  0.1225
  172SOPE  H18X19538   0.946   4.341   8.583 -1.0350 -1.6732 -1.2689
  172SOPE  H18Y19539   0.945   4.299   8.758 -1.5595  0.7031 -0.4792
  172SOPE  H18Z19540   0.873   4.189   8.647  0.7509 -1.2856 -0.7795
  173SAPI   C1219541   6.728   2.072  11.005  0.8142 -0.0718 -0.3475
  173SAPI    H219542   6.729   2.023  10.905  1.4365 -0.4205 -0.1780
  173SAPI    O219543   6.639   1.996  11.076 -0.0736 -0.4357 -0.1633
  173SAPI   HO219544   6.673   1.907  11.090  0.8600 -0.2533 -1.1840
  173SAPI   C1319545   6.869   2.067  11.065  0.0230  1.0001  1.0805
  173SAPI    H319546   6.927   2.135  11.001  0.5668 -0.9242 -0.5690
  173SAPI    O319547   6.927   1.938  11.061  0.0979 -0.1302 -0.1039
  173SAPI   HO319548   7.017   1.932  11.029 -0.3995 -1.6246 -1.3622
  173SAPI   C1419549   6.871   2.139  11.204 -0.7811  0.2723  0.2944
  173SAPI    H419550   6.792   2.081  11.257 -1.0371  0.6431  0.3238
  173SAPI    O419551   6.996   2.141  11.273  0.0655  0.3780  0.7034
  173SAPI   HO419552   6.998   2.075  11.344 -0.1083 -2.5542 -1.8012
  173SAPI   C1519553   6.822   2.281  11.190  0.6654  0.1510  0.4647
  173SAPI    H519554   6.894   2.332  11.123 -1.2478 -0.6377 -2.3956
  173SAPI    O519555   6.817   2.331  11.319  0.4167 -0.5204  0.7253
  173SAPI   HO519556   6.882   2.278  11.366  3.1584  0.2326 -1.8789
  173SAPI   C1619557   6.689   2.285  11.123  0.0137 -0.3790 -0.0858
  173SAPI    H619558   6.612   2.236  11.186  1.0877  1.1051  2.5756
  173SAPI    O619559   6.647   2.420  11.113 -0.4211  0.0224  0.3522
  173SAPI   HO619560   6.567   2.420  11.059  1.4709  0.7468 -2.7304
  173SAPI   C1119561   6.689   2.216  10.991  0.0324  0.3109  0.5751
  173SAPI    H119562   6.756   2.264  10.917 -0.1907  2.9340  1.9737
  173SAPI     P19563   6.519   2.240  10.781  0.1350 -0.3502  0.1273
  173SAPI   O1319564   6.626   2.326  10.727  0.5330 -0.3351 -0.1989
  173SAPI   O1419565   6.382   2.294  10.775 -0.7889  0.6118  0.2152
  173SAPI   O1219566   6.555   2.227  10.935  0.3313  0.0524 -0.4237
  173SAPI   O1119567   6.515   2.088  10.721 -0.2129 -0.5598  0.1980
  173SAPI    C119568   6.458   1.969  10.767 -0.3883 -0.3416  0.4589
  173SAPI    HA19569   6.463   1.966  10.878  0.9437  6.2787  0.9798
  173SAPI    HB19570   6.351   1.954  10.740  0.2427 -0.9713 -1.9545
  173SAPI    C219571   6.530   1.846  10.704 -0.7207  0.0900 -0.1437
  173SAPI    HS19572   6.638   1.845  10.731 -0.8077 -0.7000  0.1933
  173SAPI   O2119573   6.514   1.845  10.565 -1.0912  0.2618 -0.0877
  173SAPI   C2119574   6.578   1.752  10.500 -0.6934 -0.5403 -0.2945
  173SAPI   O2219575   6.669   1.686  10.547 -0.8738 -0.4867  0.2044
  173SAPI   C2219576   6.537   1.761  10.355  0.6205 -0.0696  1.0550
  173SAPI   H2R19577   6.488   1.665  10.328  1.3480 -0.5546  1.4128
  173SAPI   H2S19578   6.463   1.842  10.336 -0.9054 -1.6716 -0.2244
  173SAPI    C319579   6.482   1.720  10.779 -1.3081 -0.1312  0.4416
  173SAPI    HX19580   6.498   1.753  10.884  0.3477  2.9590 -0.6558
  173SAPI    HY19581   6.547   1.631  10.769  0.7050  1.3237 -0.0226
  173SAPI   O3119582   6.341   1.692  10.773  0.3029  0.3265 -0.1503
  173SAPI   C3119583   6.316   1.620  10.662 -0.0563 -0.4263  0.3720
  173SAPI   O3219584   6.396   1.550  10.608 -0.3149  0.0987 -0.0339
  173SAPI   C3219585   6.177   1.640  10.608  0.3128  0.7773  0.5400
  173SAPI   H2X19586   6.147   1.746  10.596 -0.1768  0.3871 -2.2751
  173SAPI   H2Y19587   6.105   1.576  10.663  0.6707 -1.2369 -1.2415
  173SAPI   C2319588   6.664   1.770  10.257  0.1187 -0.0741  0.3810
  173SAPI   H3R19589   6.721   1.677  10.277  2.5575  0.9527 -1.2647
  173SAPI   H3S19590   6.728   1.860  10.271  2.2176 -1.6698  1.7026
  173SAPI   C2419591   6.626   1.750  10.109  0.2518 -0.0204 -0.4225
  173SAPI   H4R19592   6.556   1.663  10.108  1.2108 -0.8845 -3.0403
  173SAPI   H4S19593   6.709   1.708  10.048 -1.9298 -0.8353 -3.0327
  173SAPI   C2519594   6.568   1.880  10.055 -0.3433 -0.1716  0.2410
  173SAPI   H5R19595   6.514   1.933  10.135  0.7300 -0.9575  1.5380
  173SAPI   C2619596   6.586   1.917   9.928 -0.5666 -0.5342 -0.2038
  173SAPI   H6R19597   6.555   2.021   9.912 -0.1944 -0.2535  0.7836
  173SAPI   C2719598   6.677   1.853   9.827  0.4451 -0.1861 -0.0572
  173SAPI   H7R19599   6.631   1.876   9.728  0.5972  1.0851  0.1544
  173SAPI   H7S19600   6.675   1.745   9.851 -0.8843 -0.9336 -3.1043
  173SAPI   C2819601   6.818   1.917   9.819  0.3276 -0.5947 -0.3423
  173SAPI   H8R19602   6.869   1.904   9.915  0.6115  0.3853 -0.3490
  173SAPI   C2919603   6.884   1.958   9.709  0.4408 -0.0224  0.2659
  173SAPI   H9R19604   6.982   2.004   9.728 -0.2201  2.3873 -1.5629
  173SAPI  C21019605   6.839   1.956   9.566  0.3006  0.1157  0.9407
  173SAPI  H10R19606   6.746   2.017   9.567  0.3734  0.2581 -0.0021
  173SAPI  H10S19607   6.810   1.854   9.534  0.6904  0.8175 -1.9395
  173SAPI  C21119608   6.925   2.002   9.454 -0.2274  0.8556  0.2854
  173SAPI  H11R19609   7.021   1.948   9.459 -0.0067  1.1232 -0.8835
  173SAPI  C21219610   6.899   2.093   9.358  0.7222  1.0050 -0.1474
  173SAPI  H12R19611   6.967   2.098   9.272  0.7398 -0.1262 -0.2112
  173SAPI  C21319612   6.769   2.167   9.335 -0.0381  0.6556 -0.1609
  173SAPI  H13R19613   6.787   2.237   9.250 -1.2565  1.7143  0.3988
  173SAPI  H13S19614   6.737   2.226   9.424 -0.3618  0.2082  0.0230
  173SAPI  C21419615   6.659   2.078   9.284 -0.2353 -0.6012  0.5840
  173SAPI  H14R19616   6.665   1.980   9.334  0.1788 -0.6805  0.3844
  173SAPI  C21519617   6.564   2.109   9.193  0.1767  0.0758 -0.5224
  173SAPI  H15R19618   6.498   2.029   9.156  0.9981 -0.1016 -1.6691
  173SAPI  C21619619   6.546   2.240   9.111 -0.2099 -0.3602  0.2446
  173SAPI  H16R19620   6.598   2.328   9.154 -2.7161  0.8571  0.9710
  173SAPI  H16S19621   6.442   2.280   9.102 -0.0465  0.6484  2.1669
  173SAPI  C21719622   6.591   2.213   8.970  0.2813  1.3648  0.1257
  173SAPI  H17R19623   6.585   2.312   8.921  2.6861  2.0151  1.0093
  173SAPI  H17S19624   6.523   2.135   8.931  0.6165 -1.0322  3.8039
  173SAPI  C21819625   6.736   2.169   8.952 -0.0390  0.1426 -0.3194
  173SAPI  H18R19626   6.754   2.064   8.981 -1.8842 -0.3519 -0.8223
  173SAPI  H18S19627   6.801   2.217   9.028  2.0579  0.0339 -1.9555
  173SAPI  C21919628   6.791   2.197   8.806 -0.4032  0.5768  0.8191
  173SAPI  H19R19629   6.755   2.293   8.764  0.5150  0.4947 -0.1785
  173SAPI  H19S19630   6.753   2.121   8.734  1.0970 -1.0660  1.6828
  173SAPI  C22019631   6.941   2.179   8.811 -0.1230  0.2947 -0.3038
  173SAPI  H20R19632   6.987   2.269   8.860 -0.0124 -1.0135  2.1717
  173SAPI  H20S19633   6.979   2.170   8.707 -1.7055 -1.9146 -0.7348
  173SAPI  H20T19634   6.981   2.088   8.861  0.5415  0.1638 -1.0523
  173SAPI   C3319635   6.181   1.587  10.461  0.2811  0.1566 -0.7011
  173SAPI   H3X19636   6.217   1.483  10.448  1.0189  0.1682  0.9662
  173SAPI   H3Y19637   6.246   1.640  10.388  0.5571  0.3836 -0.2976
  173SAPI   C3419638   6.044   1.601  10.396 -0.1996  0.3523  0.1603
  173SAPI   H4X19639   6.038   1.700  10.346  0.1024  0.3235  0.0645
  173SAPI   H4Y19640   5.965   1.592  10.474  0.9383 -0.9676  1.2101
  173SAPI   C3519641   6.020   1.485  10.301 -0.2218 -0.7701  0.1455
  173SAPI   H5X19642   6.032   1.389  10.357  1.1051 -0.7556 -0.0950
  173SAPI   H5Y19643   6.093   1.489  10.218 -1.7162 -0.4177 -1.2031
  173SAPI   C3619644   5.882   1.497  10.228  0.1236  0.3635 -0.5126
  173SAPI   H6X19645   5.861   1.604  10.206  1.8359  0.4199 -2.0944
  173SAPI   H6Y19646   5.802   1.449  10.289 -0.5090 -0.4460 -1.9313
  173SAPI   C3719647   5.890   1.418  10.090 -0.1498  0.0768 -0.6078
  173SAPI   H7X19648   5.923   1.313  10.098 -1.9720 -0.4187  1.1467
  173SAPI   H7Y19649   5.959   1.466  10.017  2.6828 -1.5874  0.8590
  173SAPI   C3819650   5.748   1.402  10.015 -0.3686  0.1104 -0.5346
  173SAPI   H8X19651   5.683   1.491  10.019 -1.0340 -0.2060 -3.0834
  173SAPI   H8Y19652   5.709   1.310  10.064  2.3623 -0.0897  1.5565
  173SAPI   C3919653   5.773   1.368   9.867 -0.1346 -0.8369 -0.3557
  173SAPI   H9X19654   5.856   1.294   9.859 -1.0403 -1.9786  0.3959
  173SAPI   H9Y19655   5.808   1.455   9.807  0.4833 -1.4603 -0.9191
  173SAPI  C31019656   5.642   1.312   9.813 -0.0260  0.7436 -0.2623
  173SAPI  H10X19657   5.566   1.393   9.815  0.7737  1.5316 -0.7668
  173SAPI  H10Y19658   5.603   1.233   9.880 -1.7821  1.6932 -0.1191
  173SAPI  C31119659   5.659   1.259   9.664  0.7821 -0.3895  0.5145
  173SAPI  H11X19660   5.554   1.242   9.630  0.8216  1.2617 -0.5134
  173SAPI  H11Y19661   5.705   1.158   9.659 -3.3497 -2.4675  0.3242
  173SAPI  C31219662   5.716   1.363   9.565  0.4027  0.8195 -0.8364
  173SAPI  H12X19663   5.826   1.360   9.581  0.4358 -1.9046 -1.0794
  173SAPI  H12Y19664   5.682   1.467   9.583  0.2394  0.5420  0.5304
  173SAPI  C31319665   5.677   1.337   9.417 -0.1020 -0.3638  0.3088
  173SAPI  H13X19666   5.724   1.414   9.352  1.0558 -0.9077  0.4783
  173SAPI  H13Y19667   5.567   1.350   9.413 -0.3285 -1.8722  0.9572
  173SAPI  C31419668   5.690   1.195   9.349 -0.3934  1.0266  0.5674
  173SAPI  H14X19669   5.649   1.122   9.421  0.1867 -0.0721 -0.1900
  173SAPI  H14Y19670   5.797   1.165   9.345 -0.4628  0.3190  2.8625
  173SAPI  C31519671   5.617   1.171   9.214 -0.4762  0.2171  0.5587
  173SAPI  H15X19672   5.512   1.173   9.248 -0.1874 -0.6912  1.5691
  173SAPI  H15Y19673   5.638   1.064   9.189 -1.1610  0.3503 -0.6728
  173SAPI  C31619674   5.655   1.264   9.092  0.6428 -0.3620 -0.3598
  173SAPI  H16X19675   5.763   1.265   9.068  0.7274  0.0940  0.0422
  173SAPI  H16Y19676   5.622   1.365   9.125  1.2837 -0.3939  0.3912
  173SAPI  C31719677   5.569   1.224   8.971  0.3311  0.2935  0.0206
  173SAPI  H17X19678   5.468   1.186   9.001  1.0362 -1.1722  0.6246
  173SAPI  H17Y19679   5.616   1.136   8.922  0.5999  0.1110  0.6023
  173SAPI  C31819680   5.556   1.331   8.866  0.0030 -0.1301 -0.3842
  173SAPI  H18X19681   5.511   1.293   8.771 -0.0182 -0.0570 -0.4037
  173SAPI  H18Y19682   5.653   1.372   8.833 -0.3590  0.2272 -1.0303
  173SAPI  H18Z19683   5.500   1.418   8.906  0.3905  0.4804 -1.1580
  174SAPI   C1219684   0.814   5.709  11.039 -0.5048  0.0267 -1.4274
  174SAPI    H219685   0.813   5.805  10.983 -1.7236  0.1042 -1.2919
  174SAPI    O219686   0.921   5.722  11.132  0.3153 -0.0436  0.0254
  174SAPI   HO219687   0.991   5.670  11.091  1.5741  0.8820  0.9370
  174SAPI   C1319688   0.680   5.691  11.108  0.4770 -0.6459  0.1583
  174SAPI    H319689   0.607   5.681  11.025 -0.3406 -3.1889  1.0737
  174SAPI    O319690   0.645   5.810  11.178 -0.0553  0.2903 -0.3850
  174SAPI   HO319691   0.730   5.819  11.222  0.7430 -1.5768 -1.4031
  174SAPI   C1419692   0.676   5.570  11.202  0.4966 -0.3380  0.8167
  174SAPI    H419693   0.759   5.580  11.276 -1.0121 -1.2783  2.7112
  174SAPI    O419694   0.551   5.559  11.268 -0.0165  0.2059  1.2224
  174SAPI   HO419695   0.489   5.603  11.210  0.3256 -1.5968 -0.6203
  174SAPI   C1519696   0.705   5.449  11.117  0.0659  0.4119 -0.2678
  174SAPI    H519697   0.619   5.435  11.049  0.8850 -0.5963 -1.1360
  174SAPI    O519698   0.712   5.329  11.204 -0.5659  0.5680 -0.1748
  174SAPI   HO519699   0.773   5.264  11.168 -0.2048 -0.9630  2.9165
  174SAPI   C1619700   0.832   5.461  11.033 -0.2081  0.6999  0.6686
  174SAPI    H619701   0.921   5.465  11.098  0.1778  1.4209  0.1126
  174SAPI    O619702   0.849   5.350  10.941  0.5516 -0.3140  0.5465
  174SAPI   HO619703   0.877   5.376  10.853 -1.5010 -0.9785 -0.3510
  174SAPI   C1119704   0.834   5.593  10.950  0.2345  0.4456  0.1190
  174SAPI    H119705   0.738   5.595  10.894 -1.9600  3.8877  3.5070
  174SAPI     P19706   0.965   5.598  10.719 -0.5006 -0.7324  0.0018
  174SAPI   O1319707   0.868   5.486  10.692 -0.7021  0.0543 -0.3590
  174SAPI   O1419708   1.109   5.590  10.677  0.3658 -0.4790 -0.5178
  174SAPI   O1219709   0.952   5.626  10.875  0.2073  0.2556 -0.1108
  174SAPI   O1119710   0.903   5.727  10.650 -0.5843 -0.5461  0.5701
  174SAPI    C119711   0.764   5.739  10.630 -0.0968  0.6375  0.4224
  174SAPI    HA19712   0.697   5.692  10.706 -2.6096  2.0174 -0.8058
  174SAPI    HB19713   0.729   5.845  10.629 -1.4188  0.2957  2.6832
  174SAPI    C219714   0.731   5.686  10.488  0.2942  0.4064  0.3997
  174SAPI    HS19715   0.754   5.577  10.487  2.7964  0.8697 -1.4474
  174SAPI   O2119716   0.809   5.754  10.386  0.1327 -0.1189 -0.4041
  174SAPI   C2119717   0.894   5.679  10.317 -0.1646  0.0960 -0.2484
  174SAPI   O2219718   0.922   5.561  10.336 -0.3132 -0.4127  0.4601
  174SAPI   C2219719   0.942   5.761  10.201  0.2537 -0.6688  0.4377
  174SAPI   H2R19720   0.935   5.868  10.231  0.5572 -0.0995 -1.3479
  174SAPI   H2S19721   1.052   5.747  10.195  0.4233 -0.0953  1.9325
  174SAPI    C319722   0.577   5.695  10.451 -0.9117  0.7173  0.3338
  174SAPI    HX19723   0.549   5.801  10.437  1.1474  1.0320 -2.1213
  174SAPI    HY19724   0.536   5.652  10.545  2.1972 -2.1360  0.5875
  174SAPI   O3119725   0.549   5.623  10.331 -0.3471  0.6125 -0.1717
  174SAPI   C3119726   0.502   5.495  10.348  0.2019 -0.6508 -0.0123
  174SAPI   O3219727   0.482   5.445  10.456 -0.0454  0.0689  0.0289
  174SAPI   C3219728   0.466   5.423  10.220  0.0972  0.0498  0.2342
  174SAPI   H2X19729   0.392   5.490  10.172 -0.9518 -0.6088  0.8902
  174SAPI   H2Y19730   0.427   5.322  10.246 -1.6723  0.7956  0.5751
  174SAPI   C2319731   0.866   5.724  10.063  0.1919 -0.2211 -0.2205
  174SAPI   H3R19732   0.765   5.763  10.087  0.1344 -0.8687  0.6625
  174SAPI   H3S19733   0.869   5.615  10.041  0.3530  0.2147 -2.6110
  174SAPI   C2419734   0.912   5.794   9.931 -0.0914  0.1554  0.2209
  174SAPI   H4R19735   1.020   5.773   9.915 -0.5631 -0.6648 -2.5662
  174SAPI   H4S19736   0.909   5.903   9.952  1.7957  0.7728 -2.2098
  174SAPI   C2519737   0.840   5.752   9.807 -0.2508 -0.1415  0.2206
  174SAPI   H5R19738   0.803   5.649   9.803 -0.9936  0.1703 -2.0140
  174SAPI   C2619739   0.796   5.840   9.710  0.4071 -0.0475 -0.1509
  174SAPI   H6R19740   0.730   5.805   9.630  1.2021  3.6152 -2.6596
  174SAPI   C2719741   0.814   5.991   9.702  0.3194  0.5751 -0.2576
  174SAPI   H7R19742   0.846   6.028   9.801  3.6748 -0.5700 -0.7537
  174SAPI   H7S19743   0.715   6.039   9.688  0.3661  0.4480 -1.1234
  174SAPI   C2819744   0.916   6.036   9.602  0.7274 -0.5922  0.8072
  174SAPI   H8R19745   1.019   6.031   9.641  1.4197  0.3247 -0.7828
  174SAPI   C2919746   0.886   6.111   9.489  0.2951  0.3407  0.4095
  174SAPI   H9R19747   0.962   6.149   9.420  0.4107  0.3760  0.5567
  174SAPI  C21019748   0.744   6.154   9.450  0.6369  0.0058 -0.1268
  174SAPI  H10R19749   0.732   6.264   9.463 -0.3560 -0.2799  1.6914
  174SAPI  H10S19750   0.660   6.116   9.511 -1.2142  2.1001 -1.2005
  174SAPI  C21119751   0.713   6.122   9.303  0.2663 -0.1284 -0.3545
  174SAPI  H11R19752   0.641   6.041   9.287  0.9840 -1.0072  0.7539
  174SAPI  C21219753   0.773   6.163   9.194  0.1961 -0.5917  0.2516
  174SAPI  H12R19754   0.741   6.137   9.092  2.0913  1.2197 -0.8879
  174SAPI  C21319755   0.888   6.262   9.173  0.1435 -0.8998 -0.8186
  174SAPI  H13R19756   0.927   6.316   9.262 -1.2219  2.1812 -1.9491
  174SAPI  H13S19757   0.860   6.348   9.109  1.7393  0.3984  0.1563
  174SAPI  C21419758   1.001   6.183   9.114  0.2107 -0.4076 -0.7217
  174SAPI  H14R19759   1.073   6.152   9.191  1.8214  0.3241 -1.8749
  174SAPI  C21519760   1.015   6.148   8.982 -0.4068  0.2794  0.2368
  174SAPI  H15R19761   1.112   6.104   8.956  0.1367  1.1708  0.7352
  174SAPI  C21619762   0.922   6.183   8.868 -0.2118  0.6127 -0.2285
  174SAPI  H16R19763   0.840   6.253   8.896  1.2753  1.8562  1.3057
  174SAPI  H16S19764   0.881   6.093   8.818 -0.1897  0.9487 -0.8669
  174SAPI  C21719765   0.998   6.262   8.755  0.3462 -0.0516  0.4904
  174SAPI  H17R19766   1.078   6.195   8.717  1.7958  0.6878  2.1000
  174SAPI  H17S19767   1.056   6.344   8.803  0.0149  0.5248 -0.0703
  174SAPI  C21819768   0.907   6.316   8.645 -0.8430  0.1321  0.8431
  174SAPI  H18R19769   0.866   6.245   8.570  1.1981 -0.8995  0.6577
  174SAPI  H18S19770   0.969   6.382   8.580 -0.8999  0.4123  1.0712
  174SAPI  C21919771   0.784   6.399   8.682 -0.1873 -0.1486 -0.5006
  174SAPI  H19R19772   0.812   6.483   8.749 -1.8467 -1.3813  1.8908
  174SAPI  H19S19773   0.717   6.330   8.737  3.2683 -1.4357  2.4969
  174SAPI  C22019774   0.702   6.455   8.565 -0.1145  0.2361 -0.0603
  174SAPI  H20R19775   0.773   6.521   8.511 -0.0058  1.3449  1.3743
  174SAPI  H20S19776   0.620   6.510   8.616 -0.2654 -0.0795  0.0457
  174SAPI  H20T19777   0.667   6.367   8.506  0.1831 -0.5344  0.8841
  174SAPI   C3319778   0.599   5.392  10.151  0.4349  0.5884  0.1545
  174SAPI   H3X19779   0.664   5.311  10.192 -0.3340 -0.6334 -0.9466
  174SAPI   H3Y19780   0.671   5.475  10.137  0.8433 -0.0836 -2.2794
  174SAPI   C3419781   0.588   5.352  10.000 -0.7073 -0.1364  0.2837
  174SAPI   H4X19782   0.519   5.265   9.991 -0.0040 -0.7507  0.7318
  174SAPI   H4Y19783   0.691   5.313   9.983 -1.4958 -1.0692 -3.3430
  174SAPI   C3519784   0.551   5.468   9.907  0.4185  0.3006 -0.0346
  174SAPI   H5X19785   0.607   5.555   9.945 -1.5010  0.7441  2.0010
  174SAPI   H5Y19786   0.445   5.498   9.922  1.1060  3.3604 -0.7629
  174SAPI   C3619787   0.567   5.432   9.758 -0.3129 -0.7849 -0.4760
  174SAPI   H6X19788   0.504   5.344   9.734 -3.3188  0.4742  2.1662
  174SAPI   H6Y19789   0.674   5.404   9.744 -0.3589 -0.9673 -0.4692
  174SAPI   C3719790   0.549   5.555   9.661 -0.4556 -0.5086  0.1151
  174SAPI   H7X19791   0.618   5.639   9.679 -0.6172 -0.1004 -1.0792
  174SAPI   H7Y19792   0.442   5.586   9.663 -0.6112 -1.0454  0.6040
  174SAPI   C3819793   0.587   5.509   9.520  0.2355 -0.0948 -0.3448
  174SAPI   H8X19794   0.512   5.437   9.482  0.7075  0.2729 -2.0580
  174SAPI   H8Y19795   0.688   5.463   9.523  0.5749  0.6564  0.2368
  174SAPI   C3919796   0.580   5.621   9.418  0.1031  0.0941 -0.1149
  174SAPI   H9X19797   0.667   5.687   9.439  0.6914 -0.3855 -1.0123
  174SAPI   H9Y19798   0.488   5.683   9.429 -0.3619 -0.6744  0.5031
  174SAPI  C31019799   0.587   5.567   9.279 -0.2233 -0.2432 -0.0365
  174SAPI  H10X19800   0.515   5.482   9.273 -1.1730  0.4887  0.6348
  174SAPI  H10Y19801   0.688   5.524   9.265 -0.0157  0.1508  0.2532
  174SAPI  C31119802   0.549   5.669   9.176  0.0545 -0.5463  0.3152
  174SAPI  H11X19803   0.616   5.758   9.171  1.1349 -1.3871 -0.9632
  174SAPI  H11Y19804   0.449   5.700   9.214 -0.3078 -1.9382  0.5307
  174SAPI  C31219805   0.537   5.613   9.033 -0.5525 -0.1876 -0.0677
  174SAPI  H12X19806   0.634   5.566   9.005 -0.3898  0.3214 -0.3632
  174SAPI  H12Y19807   0.510   5.695   8.963 -0.7144 -0.6179 -0.5094
  174SAPI  C31319808   0.430   5.500   9.025 -0.6376  0.2003 -0.1141
  174SAPI  H13X19809   0.335   5.536   9.070 -1.2621 -0.8705 -0.5449
  174SAPI  H13Y19810   0.464   5.420   9.094  2.1934  1.1935 -0.2153
  174SAPI  C31419811   0.403   5.426   8.894  0.0558  0.4108 -0.3332
  174SAPI  H14X19812   0.316   5.359   8.907 -2.4200  3.2078 -1.4106
  174SAPI  H14Y19813   0.494   5.372   8.857  1.6216  1.9286  1.1361
  174SAPI  C31519814   0.363   5.526   8.785 -0.2280 -0.4703 -1.0678
  174SAPI  H15X19815   0.450   5.594   8.773  0.0470 -0.6712 -0.2916
  174SAPI  H15Y19816   0.282   5.592   8.823 -0.7073 -1.1627 -0.8566
  174SAPI  C31619817   0.331   5.467   8.649  1.2022 -0.3253  0.4966
  174SAPI  H16X19818   0.239   5.411   8.675  0.4986 -0.0249 -1.1682
  174SAPI  H16Y19819   0.407   5.401   8.603  1.1833  0.4277 -0.6611
  174SAPI  C31719820   0.303   5.578   8.542 -0.5077 -0.5588 -0.8434
  174SAPI  H17X19821   0.388   5.647   8.526 -0.4521 -0.3943  0.1303
  174SAPI  H17Y19822   0.222   5.638   8.590  0.0111  0.8321 -1.6417
  174SAPI  C31819823   0.258   5.517   8.411  0.8393  0.1417  0.7301
  174SAPI  H18X19824   0.154   5.479   8.406  1.1680 -0.6494 -1.4417
  174SAPI  H18Y19825   0.333   5.440   8.383  1.0980  0.2316  1.1612
  174SAPI  H18Z19826   0.263   5.602   8.340 -0.9933 -0.4418 -0.1702
  175SAPI   C1219827   2.764   2.833   6.336 -0.0688  0.5075  0.2265
  175SAPI    H219828   2.844   2.827   6.412  1.2910 -0.1456 -1.2149
  175SAPI    O219829   2.671   2.729   6.360  0.4258  0.1024  0.1260
  175SAPI   HO219830   2.658   2.721   6.455 -0.0155  1.1095  0.1626
  175SAPI   C1319831   2.697   2.968   6.357  0.7198 -0.0777  0.1588
  175SAPI    H319832   2.772   3.045   6.328  0.1544  0.0666 -0.9773
  175SAPI    O319833   2.657   2.984   6.493 -0.5123 -0.7097 -0.5628
  175SAPI   HO319834   2.619   3.072   6.496  0.5870 -0.2382  1.2885
  175SAPI   C1419835   2.583   2.980   6.261 -0.1108 -0.5313  0.1793
  175SAPI    H419836   2.512   2.897   6.279 -0.3593 -0.8211 -1.8767
  175SAPI    O419837   2.519   3.100   6.285  0.0491 -0.1640 -0.1031
  175SAPI   HO419838   2.425   3.089   6.267 -0.0500  0.7049 -0.1361
  175SAPI   C1519839   2.627   2.965   6.113 -0.1120 -0.6498  0.1906
  175SAPI    H519840   2.689   3.053   6.090 -0.3925 -0.0455  1.6319
  175SAPI    O519841   2.523   2.955   6.014  0.6105 -0.0376  0.1466
  175SAPI   HO519842   2.445   2.916   6.055  0.6106 -0.4597 -0.2362
  175SAPI   C1619843   2.721   2.845   6.092  0.1806  0.1768  0.2652
  175SAPI    H619844   2.658   2.754   6.108 -0.0944  0.6252  1.9558
  175SAPI    O619845   2.781   2.833   5.961 -0.3111 -0.4822  0.0373
  175SAPI   HO619846   2.717   2.799   5.898 -0.1166 -0.3938 -0.2107
  175SAPI   C1119847   2.826   2.827   6.202  0.4560  0.3956  1.2235
  175SAPI    H119848   2.890   2.918   6.201  0.8286  0.1288  1.0985
  175SAPI     P19849   3.049   2.688   6.234  0.0360 -0.1646  0.2354
  175SAPI   O1319850   3.116   2.815   6.247 -0.0620  0.1443 -0.4290
  175SAPI   O1419851   3.110   2.590   6.145  0.0531  0.6948 -0.0093
  175SAPI   O1219852   2.893   2.706   6.176 -0.1713  0.8589 -0.0788
  175SAPI   O1119853   3.022   2.621   6.380  0.3171  0.4455  0.4168
  175SAPI    C119854   2.929   2.506   6.373  0.5625 -0.8080 -0.6117
  175SAPI    HA19855   2.824   2.540   6.385  0.6287 -1.4454  2.4473
  175SAPI    HB19856   2.934   2.454   6.274 -0.4797  0.0882 -1.1584
  175SAPI    C219857   2.952   2.409   6.493  0.2766  0.1857 -0.2404
  175SAPI    HS19858   2.872   2.337   6.523 -0.1746  0.6697 -0.2665
  175SAPI   O2119859   2.976   2.488   6.608  0.1110  0.1455  0.1916
  175SAPI   C2119860   2.867   2.538   6.667 -0.5359 -0.2343 -1.0771
  175SAPI   O2219861   2.750   2.500   6.644 -0.3355  0.8546 -0.1699
  175SAPI   C2219862   2.915   2.638   6.773  0.0056 -0.3317 -0.2976
  175SAPI   H2R19863   3.002   2.599   6.830 -0.8564 -0.6763  0.8103
  175SAPI   H2S19864   2.951   2.725   6.713 -0.2700 -0.7607 -1.0943
  175SAPI    C319865   3.076   2.330   6.456  1.1768 -0.4824  0.8352
  175SAPI    HX19866   3.163   2.399   6.446 -0.4191  1.5120 -0.1014
  175SAPI    HY19867   3.054   2.286   6.356  0.0715 -0.4002  1.0332
  175SAPI   O3119868   3.092   2.224   6.548 -0.2405  0.2685 -0.4565
  175SAPI   C3119869   3.169   2.259   6.655  0.5913 -0.4885 -0.1992
  175SAPI   O3219870   3.214   2.371   6.675 -0.7139 -0.0460  0.4020
  175SAPI   C3219871   3.183   2.141   6.749 -0.0965  0.1541 -0.0929
  175SAPI   H2X19872   3.237   2.069   6.684 -2.0379 -1.0446 -0.4743
  175SAPI   H2Y19873   3.084   2.099   6.777 -0.2194 -0.1906 -1.0215
  175SAPI   C2319874   2.806   2.683   6.875 -0.2036 -0.5936  0.3685
  175SAPI   H3R19875   2.755   2.594   6.917  0.1710  0.0953  2.3747
  175SAPI   H3S19876   2.720   2.727   6.819  0.1857 -0.8596 -0.4685
  175SAPI   C2419877   2.857   2.772   6.987 -0.0548 -0.1829 -0.5777
  175SAPI   H4R19878   2.901   2.869   6.954 -0.2489  0.3571  0.7104
  175SAPI   H4S19879   2.941   2.710   7.025 -0.6138  0.1859  1.3375
  175SAPI   C2519880   2.753   2.778   7.102 -1.1810  0.2151 -0.4437
  175SAPI   H5R19881   2.645   2.777   7.082 -0.6860 -0.9732 -3.5864
  175SAPI   C2619882   2.786   2.794   7.236  0.2388  0.1538  0.2944
  175SAPI   H6R19883   2.703   2.778   7.306  1.5002  0.3162  1.8686
  175SAPI   C2719884   2.925   2.803   7.288  0.3606 -0.0621 -0.2550
  175SAPI   H7R19885   2.924   2.890   7.357  1.8843  1.3186 -1.8737
  175SAPI   H7S19886   2.999   2.832   7.209 -2.1553  1.0891 -2.3492
  175SAPI   C2819887   2.959   2.675   7.353  0.2993  0.6938 -0.1052
  175SAPI   H8R19888   2.948   2.588   7.286 -0.1439  2.4556 -2.4379
  175SAPI   C2919889   3.007   2.665   7.476  0.0666 -0.1127  0.0784
  175SAPI   H9R19890   3.020   2.563   7.516  1.1504 -0.0951 -0.1848
  175SAPI  C21019891   3.043   2.780   7.571  0.0315  0.5044 -0.3162
  175SAPI  H10R19892   3.092   2.869   7.527 -1.1801  1.4462  0.1690
  175SAPI  H10S19893   3.109   2.739   7.651  1.0652  2.3480 -0.1789
  175SAPI  C21119894   2.916   2.830   7.641  0.4491  0.0800 -0.3218
  175SAPI  H11R19895   2.841   2.858   7.566 -0.1440 -1.3303 -0.2761
  175SAPI  C21219896   2.889   2.827   7.774  0.0674 -0.4145 -0.1352
  175SAPI  H12R19897   2.788   2.858   7.806 -0.0844 -1.1412  0.1184
  175SAPI  C21319898   2.980   2.778   7.884  0.6875  0.1522  0.5760
  175SAPI  H13R19899   2.941   2.814   7.981 -1.6303  2.2558 -1.0091
  175SAPI  H13S19900   3.079   2.822   7.858  0.5280 -0.0404 -0.4023
  175SAPI  C21419901   2.989   2.629   7.889 -0.2121  0.3244 -0.1784
  175SAPI  H14R19902   2.983   2.586   7.788  0.6401 -0.3280  0.0323
  175SAPI  C21519903   3.013   2.546   7.986  0.1648  0.7226  0.1629
  175SAPI  H15R19904   3.008   2.442   7.952 -2.4053  0.5915  0.6982
  175SAPI  C21619905   3.048   2.588   8.124  0.7097  0.3621 -0.5182
  175SAPI  H16R19906   3.055   2.698   8.134 -0.3047  0.2516  2.2828
  175SAPI  H16S19907   3.146   2.541   8.146 -0.3036 -1.3635  0.5178
  175SAPI  C21719908   2.931   2.537   8.210  0.9138  0.2522 -0.7749
  175SAPI  H17R19909   2.917   2.427   8.204  0.8673  0.1921  0.2083
  175SAPI  H17S19910   2.828   2.570   8.184 -1.0133 -2.0445  3.0375
  175SAPI  C21819911   2.952   2.573   8.358  0.1325  0.1583 -0.2875
  175SAPI  H18R19912   2.968   2.683   8.363  0.2290  0.1853 -1.0476
  175SAPI  H18S19913   3.041   2.521   8.401  0.3797  2.3832  2.1924
  175SAPI  C21919914   2.830   2.537   8.442  0.5484 -0.5248 -0.3789
  175SAPI  H19R19915   2.783   2.440   8.415 -3.1626  0.4978  1.7075
  175SAPI  H19S19916   2.761   2.616   8.405  2.4169  1.0222 -0.7154
  175SAPI  C22019917   2.840   2.544   8.596 -0.2750  0.0117  0.0396
  175SAPI  H20R19918   2.945   2.520   8.624  0.3072  0.0716 -1.9404
  175SAPI  H20S19919   2.769   2.482   8.654 -0.9482  1.1530  0.4656
  175SAPI  H20T19920   2.821   2.647   8.633 -0.2574 -0.2300  0.7273
  175SAPI   C3319921   3.262   2.185   6.874 -0.0025 -0.3573 -0.4528
  175SAPI   H3X19922   3.189   2.228   6.946 -1.3379 -2.7744 -0.2538
  175SAPI   H3Y19923   3.348   2.255   6.869 -1.5733  2.0220  2.6019
  175SAPI   C3419924   3.317   2.074   6.954 -0.3759  0.5075  0.1398
  175SAPI   H4X19925   3.371   2.007   6.884 -0.4386  0.2487  0.3359
  175SAPI   H4Y19926   3.232   2.012   6.989  0.3523 -1.1713 -0.9447
  175SAPI   C3519927   3.395   2.118   7.074  0.2616  0.2579 -0.3980
  175SAPI   H5X19928   3.335   2.189   7.134  0.8167  0.7516 -0.4187
  175SAPI   H5Y19929   3.492   2.171   7.063 -0.1237  1.3012  0.9802
  175SAPI   C3619930   3.428   2.011   7.174 -0.0533  0.2208 -0.9700
  175SAPI   H6X19931   3.495   1.939   7.125 -1.6229 -0.8434 -1.6320
  175SAPI   H6Y19932   3.343   1.943   7.194  0.6244 -0.0139  1.3963
  175SAPI   C3719933   3.484   2.074   7.309  0.2738 -0.0824 -0.1287
  175SAPI   H7X19934   3.424   2.164   7.333  1.2136  0.4394  0.3315
  175SAPI   H7Y19935   3.583   2.118   7.284  1.5622 -1.5708  2.0221
  175SAPI   C3819936   3.503   1.978   7.427 -0.0870 -0.3238  0.3134
  175SAPI   H8X19937   3.592   1.922   7.390 -0.2289 -0.6573  0.4741
  175SAPI   H8Y19938   3.419   1.906   7.429 -2.7694  2.4619 -2.4679
  175SAPI   C3919939   3.549   2.052   7.557 -0.1002 -0.3521 -0.3735
  175SAPI   H9X19940   3.464   2.121   7.575  0.7579  1.5911 -3.0490
  175SAPI   H9Y19941   3.641   2.111   7.538  0.3702 -0.6778  0.8047
  175SAPI  C31019942   3.574   1.960   7.671  0.0729 -0.2977 -0.3466
  175SAPI  H10X19943   3.613   2.019   7.756 -1.0961  2.6983 -1.7404
  175SAPI  H10Y19944   3.645   1.881   7.640 -1.5612 -1.3305 -1.6935
  175SAPI  C31119945   3.447   1.897   7.725 -0.7780 -0.7426  0.1289
  175SAPI  H11X19946   3.394   1.838   7.648  0.2840 -2.2896  0.5283
  175SAPI  H11Y19947   3.386   1.981   7.766  2.1652  1.3189  0.5889
  175SAPI  C31219948   3.482   1.802   7.842 -0.4067  0.5935  0.5221
  175SAPI  H12X19949   3.542   1.864   7.913  0.7597 -1.0317  1.0397
  175SAPI  H12Y19950   3.536   1.716   7.796  1.0213  3.0225 -2.7788
  175SAPI  C31319951   3.371   1.748   7.939 -0.3082  0.6306  0.5629
  175SAPI  H13X19952   3.291   1.709   7.872  2.2703 -2.4441 -0.9544
  175SAPI  H13Y19953   3.339   1.842   7.989  0.3723  1.7989 -1.1076
  175SAPI  C31419954   3.421   1.631   8.029 -0.5025  0.5440 -0.0105
  175SAPI  H14X19955   3.517   1.643   8.084 -0.1142  1.6640 -0.9051
  175SAPI  H14Y19956   3.429   1.540   7.967 -0.8497  0.7230 -0.3201
  175SAPI  C31519957   3.308   1.588   8.133 -0.3468 -0.0535  0.2837
  175SAPI  H15X19958   3.213   1.582   8.075 -2.2983 -1.0931  3.3832
  175SAPI  H15Y19959   3.294   1.673   8.203  0.4534  1.8413 -1.7230
  175SAPI  C31619960   3.334   1.450   8.204 -0.0549 -0.1442 -0.2601
  175SAPI  H16X19961   3.245   1.442   8.270 -0.2208  1.7168 -0.1984
  175SAPI  H16Y19962   3.422   1.460   8.271 -0.4260 -1.4770  0.4504
  175SAPI  C31719963   3.338   1.330   8.106 -0.1551 -0.3449  0.0983
  175SAPI  H17X19964   3.428   1.351   8.044 -0.2875  1.2640  0.3916
  175SAPI  H17Y19965   3.253   1.331   8.034 -0.5898 -1.5699  0.5757
  175SAPI  C31819966   3.342   1.187   8.173  0.9202 -0.2950  0.8741
  175SAPI  H18X19967   3.244   1.176   8.225  0.2762  1.3209  0.0664
  175SAPI  H18Y19968   3.423   1.171   8.246 -0.2751 -3.4991  1.7146
  175SAPI  H18Z19969   3.361   1.115   8.091  0.3547  1.3477 -0.7623
  176SAPI   C1219970   3.321   6.080   6.355  0.0540  0.5033  0.0729
  176SAPI    H219971   3.295   6.009   6.436 -1.1292  1.5339  0.6318
  176SAPI    O219972   3.435   6.158   6.385  0.2881  0.4280 -0.3892
  176SAPI   HO219973   3.431   6.178   6.479 -1.1161  0.7707 -0.5011
  176SAPI   C1319974   3.348   6.001   6.233  0.0541  0.2044 -0.9989
  176SAPI    H319975   3.256   5.940   6.221 -1.9795  1.7469  4.0747
  176SAPI    O319976   3.456   5.908   6.243 -0.2317  0.4022  0.1865
  176SAPI   HO319977   3.534   5.947   6.283  0.3654  0.7168 -1.2333
  176SAPI   C1419978   3.353   6.090   6.108  0.2035  0.3127 -0.6384
  176SAPI    H419979   3.438   6.160   6.127  1.1576 -0.8801 -0.4064
  176SAPI    O419980   3.372   6.012   5.994 -0.0149 -0.5120  0.0941
  176SAPI   HO419981   3.451   5.958   6.003  0.5155 -0.1760 -2.0676
  176SAPI   C1519982   3.221   6.172   6.095 -0.3374 -0.4699 -0.2856
  176SAPI    H519983   3.138   6.098   6.103  0.6788 -1.4326  2.1737
  176SAPI    O519984   3.206   6.244   5.970  0.4565  0.2427 -0.1790
  176SAPI   HO519985   3.135   6.307   5.984 -0.4450 -0.4355 -1.5354
  176SAPI   C1619986   3.204   6.258   6.218 -0.4038  0.1744  0.0647
  176SAPI    H619987   3.290   6.328   6.217  1.1615 -1.6532 -0.1988
  176SAPI    O619988   3.086   6.333   6.214  0.1674  0.3387  0.3319
  176SAPI   HO619989   3.062   6.339   6.307 -2.4297  2.2846 -0.3388
  176SAPI   C1119990   3.200   6.169   6.339 -0.2885  0.0317  0.5257
  176SAPI    H119991   3.112   6.101   6.335  0.3301 -0.8897  1.5733
  176SAPI     P19992   3.166   6.203   6.602  0.1444  0.3170  0.0118
  176SAPI   O1319993   3.098   6.069   6.599 -0.0614 -0.2390 -0.0413
  176SAPI   O1419994   3.090   6.309   6.675  0.4440  0.0727  0.5151
  176SAPI   O1219995   3.179   6.255   6.452  0.6339  0.6315  0.1737
  176SAPI   O1119996   3.312   6.191   6.658  0.2306  0.3626 -0.0796
  176SAPI    C119997   3.396   6.302   6.654  0.1722 -0.1651 -0.4669
  176SAPI    HA19998   3.502   6.278   6.634 -0.1173  0.3264 -2.9715
  176SAPI    HB19999   3.378   6.368   6.566  1.9026 -2.3693 -2.6002
  176SAPI    C220000   3.389   6.382   6.783  0.5828 -0.8421  0.5689
  176SAPI    HS20001   3.292   6.437   6.787  1.8931  1.5865  0.5755
  176SAPI   O2120002   3.489   6.479   6.775  0.2690 -0.1773 -0.8548
  176SAPI   C2120003   3.471   6.600   6.824  0.8048  0.0512  0.6081
  176SAPI   O2220004   3.368   6.640   6.870  0.8855 -0.0277  0.1175
  176SAPI   C2220005   3.601   6.680   6.808 -0.2104  0.0268 -0.4847
  176SAPI   H2R20006   3.665   6.622   6.738  0.8887  0.9217 -0.2619
  176SAPI   H2S20007   3.565   6.776   6.765 -2.4477 -1.8484 -3.1755
  176SAPI    C320008   3.413   6.301   6.917 -0.1555 -0.1407 -0.1874
  176SAPI    HX20009   3.521   6.278   6.908  0.1043  1.6415 -2.6929
  176SAPI    HY20010   3.356   6.206   6.914 -1.4526  0.5856  0.6053
  176SAPI   O3120011   3.392   6.381   7.038  0.3353 -0.2420  0.4615
  176SAPI   C3120012   3.285   6.354   7.112 -0.4737  0.3115 -0.3141
  176SAPI   O3220013   3.203   6.272   7.080  0.3828  0.1697 -0.6376
  176SAPI   C3220014   3.290   6.448   7.230  0.0516  0.6643 -0.1684
  176SAPI   H2X20015   3.313   6.546   7.183  0.9729  0.8688  0.6820
  176SAPI   H2Y20016   3.374   6.419   7.296 -0.3738  0.3244  0.2356
  176SAPI   C2320017   3.660   6.700   6.945 -0.0874  0.0216 -0.3333
  176SAPI   H3R20018   3.577   6.735   7.010 -0.0317 -3.5705  1.9608
  176SAPI   H3S20019   3.730   6.786   6.951  1.0080 -0.9266  0.9290
  176SAPI   C2420020   3.742   6.576   6.986 -0.1342 -0.4508  0.0687
  176SAPI   H4R20021   3.811   6.549   6.903  1.5606  0.4321  1.1236
  176SAPI   H4S20022   3.672   6.490   6.997  0.6988 -0.9839  1.4491
  176SAPI   C2520023   3.828   6.594   7.108  0.2626  0.1026 -0.1912
  176SAPI   H5R20024   3.920   6.648   7.082  0.8104 -0.7636 -0.0837
  176SAPI   C2620025   3.794   6.557   7.237  0.9779 -1.1606 -0.0805
  176SAPI   H6R20026   3.857   6.582   7.323 -0.2929  0.2399  0.4985
  176SAPI   C2720027   3.666   6.484   7.260 -0.7014 -0.2421  0.1953
  176SAPI   H7R20028   3.681   6.374   7.258 -1.0590 -0.3484  1.9529
  176SAPI   H7S20029   3.590   6.514   7.185  0.0823  1.7874  0.1251
  176SAPI   C2820030   3.612   6.537   7.391  0.2479  0.1034  0.5069
  176SAPI   H8R20031   3.551   6.627   7.372  0.6943  0.5735  1.2760
  176SAPI   C2920032   3.610   6.471   7.509 -0.2750 -0.8758  0.1444
  176SAPI   H9R20033   3.555   6.519   7.591 -3.3645  0.5436 -2.5313
  176SAPI  C21020034   3.684   6.342   7.538  0.8220  0.3501  0.8352
  176SAPI  H10R20035   3.754   6.360   7.623  4.6335 -2.5023 -1.3652
  176SAPI  H10S20036   3.735   6.293   7.453 -0.3169 -0.2426  0.4911
  176SAPI  C21120037   3.577   6.232   7.578 -0.1141 -0.6564  0.6187
  176SAPI  H11R20038   3.531   6.186   7.490 -0.8597  1.7611 -0.3286
  176SAPI  C21220039   3.538   6.212   7.702 -0.5081 -0.1886  0.3528
  176SAPI  H12R20040   3.457   6.140   7.725 -2.1562  1.8750  1.3705
  176SAPI  C21320041   3.579   6.286   7.830  0.5571 -0.1077 -0.4248
  176SAPI  H13R20042   3.489   6.347   7.856  0.0097 -0.3607 -1.6796
  176SAPI  H13S20043   3.660   6.361   7.814  1.1404 -0.7861 -0.6884
  176SAPI  C21420044   3.631   6.214   7.952  0.4861 -0.4191  0.1231
  176SAPI  H14R20045   3.708   6.138   7.934  0.0367 -1.1517  1.1733
  176SAPI  C21520046   3.605   6.247   8.081 -0.9575  0.1962 -0.0422
  176SAPI  H15R20047   3.661   6.193   8.159 -1.4423 -0.5338 -0.1931
  176SAPI  C21620048   3.527   6.355   8.150 -0.0270  0.1220 -0.5157
  176SAPI  H16R20049   3.423   6.321   8.167 -0.7028  1.6801 -1.3591
  176SAPI  H16S20050   3.512   6.446   8.088 -1.5610 -1.6913 -3.0093
  176SAPI  C21720051   3.596   6.388   8.287  0.2415 -0.4873  0.1875
  176SAPI  H17R20052   3.546   6.483   8.313  1.6947  0.5043 -0.5094
  176SAPI  H17S20053   3.703   6.407   8.263  0.2114  1.4577  1.4435
  176SAPI  C21820054   3.550   6.286   8.394 -0.2124  0.0856 -0.0666
  176SAPI  H18R20055   3.604   6.191   8.379  0.4108  0.5269 -0.7043
  176SAPI  H18S20056   3.440   6.270   8.391 -0.4776  0.2089  4.1525
  176SAPI  C21920057   3.579   6.329   8.537 -0.2358  0.0265  0.0186
  176SAPI  H19R20058   3.688   6.345   8.549 -0.6796  2.4850  1.4717
  176SAPI  H19S20059   3.553   6.246   8.606 -1.6380  1.4191  1.2904
  176SAPI  C22020060   3.510   6.461   8.589  0.6820 -0.0492 -0.2968
  176SAPI  H20R20061   3.534   6.557   8.538 -2.8442  1.8921  1.3236
  176SAPI  H20S20062   3.539   6.478   8.695  0.4816  0.4568 -0.3227
  176SAPI  H20T20063   3.400   6.448   8.581  0.5653  0.2635  0.6582
  176SAPI   C3320064   3.158   6.450   7.312 -0.2339  0.4548 -0.1170
  176SAPI   H3X20065   3.072   6.493   7.256 -0.2127 -1.4894 -1.7493
  176SAPI   H3Y20066   3.176   6.521   7.396 -1.0009 -0.6603  1.0210
  176SAPI   C3420067   3.111   6.322   7.392  0.4063 -0.1041  0.4721
  176SAPI   H4X20068   3.134   6.228   7.337  0.4368 -1.4824  2.7194
  176SAPI   H4Y20069   3.001   6.324   7.407  0.4594 -1.5269  1.2485
  176SAPI   C3520070   3.159   6.332   7.536  0.0625 -0.1321 -0.0872
  176SAPI   H5X20071   3.101   6.412   7.586 -0.0395  0.2753 -0.8430
  176SAPI   H5Y20072   3.267   6.356   7.545  0.2661 -1.4112  1.2526
  176SAPI   C3620073   3.137   6.198   7.606 -0.1319  0.2607  0.0166
  176SAPI   H6X20074   3.193   6.126   7.542  2.0053  1.4395  0.4462
  176SAPI   H6Y20075   3.029   6.174   7.609 -0.2699  0.9486  0.8457
  176SAPI   C3720076   3.185   6.190   7.753 -0.0026  0.0668 -0.0210
  176SAPI   H7X20077   3.287   6.235   7.754  0.9265 -1.9365  0.3745
  176SAPI   H7Y20078   3.194   6.087   7.793 -1.5366  0.0255  0.2649
  176SAPI   C3820079   3.096   6.256   7.857 -0.0155  0.3014 -0.3692
  176SAPI   H8X20080   3.001   6.200   7.871 -0.3178  1.0234  0.5498
  176SAPI   H8Y20081   3.070   6.360   7.827 -0.0532  1.2213  2.5200
  176SAPI   C3920082   3.169   6.279   7.991 -0.0692  0.5239 -0.7474
  176SAPI   H9X20083   3.118   6.356   8.052  1.5377  0.7261  0.4299
  176SAPI   H9Y20084   3.272   6.308   7.961  0.6576 -1.1191  0.0139
  176SAPI  C31020085   3.177   6.153   8.079  0.2309  0.6822  0.6810
  176SAPI  H10X20086   3.250   6.161   8.162 -0.3882 -0.1105  1.3112
  176SAPI  H10Y20087   3.190   6.057   8.024 -3.0345  0.5283 -0.0201
  176SAPI  C31120088   3.039   6.129   8.149 -0.6202  0.6805  1.1362
  176SAPI  H11X20089   2.991   6.043   8.098  0.0214  0.9719  0.0139
  176SAPI  H11Y20090   2.960   6.205   8.132 -2.1464 -1.0027  0.3613
  176SAPI  C31220091   3.056   6.094   8.294  0.0078 -0.2713 -0.3024
  176SAPI  H12X20092   3.111   6.178   8.341  0.7333  0.8729 -3.0014
  176SAPI  H12Y20093   3.110   5.999   8.312 -0.4259 -0.3900  0.4222
  176SAPI  C31320094   2.920   6.069   8.357  0.1833 -0.5570  0.6666
  176SAPI  H13X20095   2.853   6.000   8.301  1.1728 -0.9906 -0.0081
  176SAPI  H13Y20096   2.870   6.166   8.335 -0.9984 -1.4095 -0.5694
  176SAPI  C31420097   2.937   6.034   8.505 -0.3571 -0.8789 -0.5638
  176SAPI  H14X20098   3.016   6.100   8.548 -0.8332  0.7908 -2.1162
  176SAPI  H14Y20099   2.978   5.932   8.519  0.1680 -0.5825  0.1922
  176SAPI  C31520100   2.806   6.050   8.593 -0.8027  0.1059  0.4059
  176SAPI  H15X20101   2.724   5.994   8.544 -1.5310 -0.2426  1.9648
  176SAPI  H15Y20102   2.776   6.156   8.592 -4.9702 -0.9212  0.7989
  176SAPI  C31620103   2.825   6.003   8.731 -0.7145  0.9310 -0.2536
  176SAPI  H16X20104   2.884   6.078   8.788 -1.3868 -0.1106  1.9186
  176SAPI  H16Y20105   2.868   5.903   8.750 -2.3782  0.5069  1.5893
  176SAPI  C31720106   2.680   5.985   8.798 -0.2445  0.0591  0.1698
  176SAPI  H17X20107   2.627   5.914   8.730  0.3744  0.2339 -0.5124
  176SAPI  H17Y20108   2.628   6.083   8.802 -0.7766 -0.0528 -2.3985
  176SAPI  C31820109   2.695   5.936   8.937  0.0576  0.4035 -0.2618
  176SAPI  H18X20110   2.769   5.854   8.952  0.0397  0.3434 -0.4892
  176SAPI  H18Y20111   2.596   5.904   8.976  0.1082  0.2506 -0.2572
  176SAPI  H18Z20112   2.736   6.007   9.012  1.2116 -1.9885  1.4934
  177SLPC     N20113   2.478   1.550  11.019  0.3011  0.8575  0.2744
  177SLPC   C1320114   2.517   1.653  11.113 -0.3450 -0.2495  0.1516
  177SLPC  H13A20115   2.593   1.710  11.062 -0.7626 -0.3971 -0.6534
  177SLPC  H13B20116   2.440   1.729  11.123 -0.6517 -0.4796 -0.4248
  177SLPC  H13C20117   2.555   1.631  11.211 -1.6125  0.1920  0.7754
  177SLPC   C1420118   2.354   1.483  11.068  0.3753 -0.2608 -0.1837
  177SLPC  H14A20119   2.366   1.482  11.176  0.8821  1.5388 -0.1807
  177SLPC  H14B20120   2.275   1.556  11.051  0.4685  0.2239  1.2518
  177SLPC  H14C20121   2.317   1.390  11.029 -2.9855  0.1825  1.5495
  177SLPC   C1520122   2.578   1.439  11.030 -0.7471  0.6618 -0.6461
  177SLPC  H15A20123   2.556   1.360  10.960 -1.2825  0.1590  0.0685
  177SLPC  H15B20124   2.682   1.464  11.012 -0.2951  1.0411  2.0746
  177SLPC  H15C20125   2.582   1.392  11.128 -1.3383  0.2673 -0.8056
  177SLPC   C1220126   2.466   1.599  10.879 -0.1183 -1.0782 -0.4014
  177SLPC  H12A20127   2.388   1.675  10.876 -0.7954 -1.6595  1.4334
  177SLPC  H12B20128   2.439   1.507  10.829 -0.7723 -1.2696  0.2892
  177SLPC   C1120129   2.597   1.659  10.805 -0.1301 -0.8639 -1.2756
  177SLPC  H11A20130   2.550   1.655  10.705 -4.2392 -0.9365  0.4554
  177SLPC  H11B20131   2.681   1.588  10.824  0.3682 -0.0514 -0.3565
  177SLPC     P20132   2.773   1.848  10.851 -0.0637 -0.0335 -0.7164
  177SLPC   O1320133   2.784   1.978  10.926 -0.3654  0.4061  0.2836
  177SLPC   O1420134   2.884   1.755  10.886 -0.5298 -0.3638 -0.1429
  177SLPC   O1220135   2.625   1.787  10.875  0.1271 -0.2040  0.4366
  177SLPC   O1120136   2.782   1.893  10.701  0.4400 -0.4258  0.2481
  177SLPC    C120137   2.670   1.898  10.610 -0.7194 -0.9441  0.5339
  177SLPC    HA20138   2.667   1.805  10.549  1.7751  0.5067 -2.0396
  177SLPC    HB20139   2.573   1.911  10.663 -0.6523 -0.6944  0.5962
  177SLPC    C220140   2.696   2.010  10.500 -0.5756  0.3413  0.2370
  177SLPC    HS20141   2.608   2.000  10.434  0.3066  0.3944 -0.9787
  177SLPC   O2120142   2.817   1.985  10.426  0.0254 -0.2014  0.3275
  177SLPC   C2120143   2.816   1.881  10.339 -0.0291  0.8586  0.3244
  177SLPC   O2220144   2.720   1.809  10.319 -0.4499  0.0082 -0.4939
  177SLPC   C2220145   2.944   1.870  10.253 -0.6259  0.0957  0.5223
  177SLPC   H2R20146   2.998   1.967  10.260 -0.3325  0.2595 -2.7069
  177SLPC   H2S20147   3.004   1.780  10.279  0.8388 -0.3497 -3.7489
  177SLPC    C320148   2.681   2.157  10.545 -0.4521  0.1610 -0.1801
  177SLPC    HX20149   2.746   2.161  10.635  0.5230  0.3800 -0.8800
  177SLPC    HY20150   2.573   2.171  10.569 -0.7633  1.5834 -2.1433
  177SLPC   O3120151   2.724   2.249  10.438 -0.2342  0.5514 -0.2009
  177SLPC   C3120152   2.643   2.256  10.331 -0.9487  0.0242  1.0598
  177SLPC   O3220153   2.534   2.204  10.323 -0.0119 -0.1965  0.4484
  177SLPC   C3220154   2.704   2.336  10.215  0.2138  0.1248 -1.0509
  177SLPC   H2X20155   2.809   2.366  10.232  0.0445  0.1476  0.0624
  177SLPC   H2Y20156   2.642   2.428  10.205 -0.2691 -0.0494  0.0713
  177SLPC   C2320157   2.893   1.852  10.108 -0.4600 -0.2653  0.6459
  177SLPC   H3R20158   2.827   1.940  10.094  0.9662  0.8894  0.9542
  177SLPC   H3S20159   2.840   1.754  10.106  1.9958 -1.8051  3.3805
  177SLPC   C2420160   2.996   1.872  10.004 -0.3002  0.4069  0.4781
  177SLPC   H4R20161   2.942   1.865   9.907  0.6822 -2.2512  0.0281
  177SLPC   H4S20162   3.066   1.787  10.016 -1.4346 -0.4338  1.4477
  177SLPC   C2520163   3.061   2.009   9.994 -0.2989  1.0232  0.0613
  177SLPC   H5R20164   3.118   2.017  10.089  1.0392 -0.2162 -0.5841
  177SLPC   H5S20165   2.983   2.087  10.002  0.8600  2.0238  2.3294
  177SLPC   C2620166   3.155   2.017   9.873  0.5333  0.1766 -0.0341
  177SLPC   H6R20167   3.198   1.917   9.851  3.6843  1.2480  0.7163
  177SLPC   H6S20168   3.234   2.093   9.894  0.7267 -0.3113  1.1041
  177SLPC   C2720169   3.074   2.074   9.756  0.3956 -0.2330 -0.1113
  177SLPC   H7R20170   2.991   2.142   9.787 -0.1699  0.1722 -2.3560
  177SLPC   H7S20171   3.030   1.976   9.727 -1.2523 -0.1195  1.7048
  177SLPC   C2820172   3.160   2.130   9.642  0.3421  0.2955 -0.2333
  177SLPC   H8R20173   3.238   2.054   9.619  1.4198  1.0621  0.7678
  177SLPC   H8S20174   3.224   2.214   9.675  0.5153  1.0795 -2.4182
  177SLPC   C2920175   3.080   2.167   9.520  0.0964 -0.7698  0.0202
  177SLPC   H9R20176   2.988   2.224   9.537  1.1815  0.8792  0.5961
  177SLPC  C21020177   3.106   2.135   9.393  0.2539 -0.8391  0.1642
  177SLPC  H10R20178   3.043   2.179   9.314  1.2840  2.6133  1.0939
  177SLPC  C21120179   3.225   2.060   9.340 -0.2373 -0.5486 -0.3280
  177SLPC  H11R20180   3.311   2.036   9.406 -0.0282 -2.7701 -1.2968
  177SLPC  H11S20181   3.194   1.961   9.301  0.2259 -0.4968 -0.8559
  177SLPC  C21220182   3.288   2.138   9.226  0.4060  0.0571  0.0011
  177SLPC  H12R20183   3.365   2.209   9.260  1.8085  0.0475 -2.8560
  177SLPC  C21320184   3.251   2.130   9.096 -0.1866  0.5668 -0.2376
  177SLPC  H13R20185   3.303   2.196   9.025 -2.0692  0.2090 -2.0355
  177SLPC  C21420186   3.144   2.047   9.037 -0.0776  0.7754 -0.2664
  177SLPC  H14R20187   3.060   2.040   9.109  1.3399 -2.1411  1.2785
  177SLPC  H14S20188   3.176   1.943   9.014 -3.2842 -0.6560  1.0954
  177SLPC  C21520189   3.082   2.091   8.905 -0.8109 -0.4098  0.0879
  177SLPC  H15R20190   3.165   2.101   8.832 -0.3160 -3.0213  0.1872
  177SLPC  H15S20191   3.030   2.189   8.913 -0.5182 -0.2462  0.0101
  177SLPC  C21620192   2.990   1.990   8.842  0.5405  0.6192  0.4008
  177SLPC  H16R20193   2.884   1.982   8.875 -0.2790  0.5244 -2.0628
  177SLPC  H16S20194   3.037   1.890   8.854 -0.9769  0.0867  2.6509
  177SLPC  C21720195   2.960   2.022   8.691  0.1967  0.1054  0.4547
  177SLPC  H17R20196   2.892   1.939   8.659 -1.2798  1.0558  1.0294
  177SLPC  H17S20197   3.051   2.017   8.627  0.6568  1.5348  0.9557
  177SLPC  C21820198   2.898   2.155   8.657 -0.3113 -0.1373 -0.0158
  177SLPC  H18R20199   2.798   2.165   8.706  0.4198 -0.4971  1.6257
  177SLPC  H18S20200   2.892   2.172   8.548  1.1003 -0.6688 -0.1926
  177SLPC  H18T20201   2.958   2.232   8.710 -0.7158 -0.9889  1.7763
  177SLPC   C3320202   2.694   2.259  10.080 -0.1626 -0.8583  0.0143
  177SLPC   H3X20203   2.590   2.221  10.071 -0.2907 -0.4577 -0.2418
  177SLPC   H3Y20204   2.768   2.177  10.073 -0.3613 -0.9288 -1.6352
  177SLPC   C3420205   2.703   2.350   9.959 -0.2694  0.1044 -0.1415
  177SLPC   H4X20206   2.799   2.405   9.964  0.1793 -0.5563 -1.2089
  177SLPC   H4Y20207   2.622   2.426   9.963  1.3785  1.8647  1.7564
  177SLPC   C3520208   2.679   2.279   9.824 -0.3917 -0.4897 -0.1666
  177SLPC   H5X20209   2.576   2.238   9.816 -0.6466  0.3121 -1.2653
  177SLPC   H5Y20210   2.758   2.201   9.810  0.7148  0.6538 -0.4958
  177SLPC   C3620211   2.683   2.370   9.704 -0.6101 -0.0992 -0.2746
  177SLPC   H6X20212   2.777   2.429   9.699 -0.6986  0.0810  0.1190
  177SLPC   H6Y20213   2.602   2.443   9.727 -1.4450 -0.5053 -1.8147
  177SLPC   C3720214   2.662   2.296   9.576  0.6622 -0.8827  0.2697
  177SLPC   H7X20215   2.560   2.254   9.581 -0.6659  1.5649 -2.7835
  177SLPC   H7Y20216   2.743   2.220   9.562  1.0614 -0.8356  2.0485
  177SLPC   C3820217   2.669   2.397   9.459  0.9512  0.6956  0.7427
  177SLPC   H8X20218   2.749   2.474   9.459  2.6154 -0.9270 -1.0912
  177SLPC   H8Y20219   2.578   2.459   9.469  0.4064 -0.0408  0.4429
  177SLPC   C3920220   2.666   2.316   9.323 -0.5250  0.1001 -0.4432
  177SLPC   H9X20221   2.578   2.248   9.333 -0.7666  0.6391  1.6461
  177SLPC   H9Y20222   2.754   2.249   9.313 -1.7775 -1.6531 -0.1353
  177SLPC  C31020223   2.642   2.402   9.193 -0.0971 -0.7924 -0.0028
  177SLPC  H10X20224   2.730   2.468   9.176  1.0532 -2.5523 -1.3102
  177SLPC  H10Y20225   2.550   2.461   9.208  0.3427 -0.2820  0.7769
  177SLPC  C31120226   2.614   2.313   9.072 -0.0700  0.7411  0.5982
  177SLPC  H11X20227   2.517   2.260   9.081  0.1386 -0.1527 -1.6585
  177SLPC  H11Y20228   2.691   2.233   9.071  2.2494  2.8468 -0.5918
  177SLPC  C31220229   2.620   2.391   8.941  0.5510 -0.2572  0.2808
  177SLPC  H12X20230   2.617   2.321   8.854  0.4550  1.4065 -1.1132
  177SLPC  H12Y20231   2.720   2.438   8.939 -0.5861  2.2910 -0.8101
  177SLPC  C31320232   2.514   2.505   8.930 -0.3080  1.1555  0.0312
  177SLPC  H13X20233   2.536   2.578   9.011  1.9940  0.8607 -0.2734
  177SLPC  H13Y20234   2.423   2.445   8.951  0.6019 -0.3259 -0.1192
  177SLPC  C31420235   2.496   2.568   8.796 -0.1493 -0.2336 -0.7975
  177SLPC  H14X20236   2.479   2.478   8.733 -0.1211 -0.5566 -0.3432
  177SLPC  H14Y20237   2.594   2.618   8.779  0.5738 -1.6232 -0.9121
  177SLPC  C31520238   2.383   2.667   8.785  0.9392  0.0619  0.5597
  177SLPC  H15X20239   2.391   2.743   8.865  1.6183  1.5221 -0.8409
  177SLPC  H15Y20240   2.277   2.633   8.795  0.3203  1.8829  0.7025
  177SLPC  C31620241   2.377   2.762   8.659  0.0474 -0.1011  0.1331
  177SLPC  H16X20242   2.482   2.775   8.624 -0.0444 -0.6504 -0.3614
  177SLPC  H16Y20243   2.338   2.865   8.676 -2.0028 -0.2814 -2.7956
  177SLPC  C31720244   2.287   2.688   8.557 -0.2630 -0.8783  0.6506
  177SLPC  H17X20245   2.178   2.693   8.573 -0.5693 -0.1135 -1.3451
  177SLPC  H17Y20246   2.321   2.586   8.528  0.1357 -0.5004 -0.2525
  177SLPC  C31820247   2.297   2.763   8.424 -0.2221 -0.6892 -0.2252
  177SLPC  H18X20248   2.405   2.774   8.400  0.3649  0.3261  2.5384
  177SLPC  H18Y20249   2.249   2.862   8.433 -0.2385 -0.4362 -2.4314
  177SLPC  H18Z20250   2.250   2.711   8.337  2.3012  0.2900 -2.3073
  178SLPC     N20251   2.248   5.358  11.040 -0.7536  0.0207 -1.1961
  178SLPC   C1320252   2.125   5.384  10.968 -0.3216 -0.7046 -0.1053
  178SLPC  H13A20253   2.143   5.414  10.866 -1.3496 -2.3473 -0.8141
  178SLPC  H13B20254   2.058   5.299  10.962 -2.2786  0.8295 -1.7569
  178SLPC  H13C20255   2.069   5.468  11.006 -0.6674 -0.8002 -0.3950
  178SLPC   C1420256   2.214   5.289  11.164 -0.1101  0.2286 -1.1330
  178SLPC  H14A20257   2.151   5.204  11.145 -0.2626 -0.1351  0.8349
  178SLPC  H14B20258   2.302   5.253  11.215  0.2820  2.4497 -0.1191
  178SLPC  H14C20259   2.155   5.347  11.233 -2.2086  0.2080 -2.8179
  178SLPC   C1520260   2.328   5.478  11.057 -0.2588 -0.3692 -0.2534
  178SLPC  H15A20261   2.402   5.464  11.135  0.1427 -0.6311 -0.6790
  178SLPC  H15B20262   2.376   5.516  10.968 -1.5055 -0.4074 -0.9608
  178SLPC  H15C20263   2.261   5.548  11.105  1.5565  3.4736 -2.7716
  178SLPC   C1220264   2.327   5.253  10.954  0.4950 -0.7504  0.1226
  178SLPC  H12A20265   2.332   5.299  10.856 -0.5874  2.9751  1.6558
  178SLPC  H12B20266   2.275   5.159  10.945 -0.2707 -0.2788 -0.6411
  178SLPC   C1120267   2.469   5.213  10.998 -0.3094 -0.0026 -0.2512
  178SLPC  H11A20268   2.487   5.108  10.966 -0.0155 -0.1393  0.3444
  178SLPC  H11B20269   2.468   5.213  11.109  1.5885 -0.3169 -0.2044
  178SLPC     P20270   2.622   5.324  10.817  0.2683 -0.4636  0.4259
  178SLPC   O1320271   2.517   5.321  10.720  0.0585  0.1624 -0.1788
  178SLPC   O1420272   2.712   5.442  10.818  0.2141 -0.1136 -0.0392
  178SLPC   O1220273   2.568   5.304  10.960 -0.6524 -0.0710 -0.5849
  178SLPC   O1120274   2.704   5.192  10.787  0.0481 -0.4339 -0.1117
  178SLPC    C120275   2.633   5.072  10.759 -0.4125 -0.4860  0.5544
  178SLPC    HA20276   2.645   5.006  10.848  1.3115  1.3414  1.7681
  178SLPC    HB20277   2.528   5.093  10.732 -0.5431 -2.2198 -0.4623
  178SLPC    C220278   2.688   5.006  10.627 -0.1517 -0.1640  0.0184
  178SLPC    HS20279   2.772   4.939  10.655  0.7265  1.6398  1.9810
  178SLPC   O2120280   2.727   5.111  10.535 -0.2489  0.2512  0.5906
  178SLPC   C2120281   2.859   5.123  10.518  0.3377 -0.4612 -0.5089
  178SLPC   O2220282   2.942   5.056  10.574 -0.4169  0.4674 -0.2564
  178SLPC   C2220283   2.885   5.225  10.414 -0.4916 -0.1458  0.0830
  178SLPC   H2R20284   2.786   5.267  10.390  0.6195  1.3998 -2.0862
  178SLPC   H2S20285   2.951   5.307  10.450  1.6487 -1.4658 -0.6371
  178SLPC    C320286   2.569   4.917  10.565 -1.0306 -0.6948  0.3577
  178SLPC    HX20287   2.477   4.979  10.566 -0.5575  0.2228 -2.6244
  178SLPC    HY20288   2.548   4.824  10.622 -1.1665 -0.1698  1.1735
  178SLPC   O3120289   2.603   4.879  10.428 -0.1204 -0.4830  0.1173
  178SLPC   C3120290   2.526   4.928  10.325 -0.1862  0.1014 -0.3346
  178SLPC   O3220291   2.440   5.009  10.340 -0.0001 -0.3494 -0.5694
  178SLPC   C3220292   2.592   4.882  10.200  0.0462 -0.0790  0.3793
  178SLPC   H2X20293   2.600   4.772  10.184 -2.9102  0.0537 -3.4404
  178SLPC   H2Y20294   2.695   4.922  10.199  0.5566 -1.3082  1.2833
  178SLPC   C2320295   2.954   5.161  10.294 -0.0017 -0.1031  1.1358
  178SLPC   H3R20296   2.923   5.054  10.285 -0.2197 -0.2024  2.7174
  178SLPC   H3S20297   3.064   5.158  10.305  0.2907 -0.6695 -1.3336
  178SLPC   C2420298   2.907   5.237  10.165 -0.3234  0.1871  0.4004
  178SLPC   H4R20299   2.940   5.343  10.160 -0.4855  0.3147  1.6329
  178SLPC   H4S20300   2.796   5.245  10.154 -0.2026  2.0891  0.2984
  178SLPC   C2520301   2.952   5.172  10.036  0.6539  0.2333  0.6461
  178SLPC   H5R20302   2.898   5.076  10.020  2.1757 -0.4109 -0.8919
  178SLPC   H5S20303   3.059   5.145  10.044  0.6955  0.6487  1.6626
  178SLPC   C2620304   2.921   5.254   9.910  0.1748 -0.6924 -0.2548
  178SLPC   H6R20305   2.976   5.213   9.822 -1.1171 -1.9441 -0.5153
  178SLPC   H6S20306   2.961   5.358   9.908 -0.9594 -0.2261  0.4094
  178SLPC   C2720307   2.771   5.260   9.878  0.1391  1.0697  0.3026
  178SLPC   H7R20308   2.714   5.316   9.955 -0.3985 -1.4963  1.9123
  178SLPC   H7S20309   2.726   5.159   9.861  0.5586  0.4045  2.7125
  178SLPC   C2820310   2.741   5.346   9.756 -0.6340  0.4192 -0.3110
  178SLPC   H8R20311   2.779   5.449   9.766 -0.9204  0.5512 -0.5760
  178SLPC   H8S20312   2.630   5.353   9.769 -0.2559  1.9797  3.1472
  178SLPC   C2920313   2.792   5.268   9.635  0.3433 -0.0648 -0.0913
  178SLPC   H9R20314   2.738   5.176   9.610 -1.8641  0.8539  1.0559
  178SLPC  C21020315   2.899   5.297   9.564  0.3520  0.0331  0.1411
  178SLPC  H10R20316   2.924   5.231   9.479  0.6765 -0.4944  0.6435
  178SLPC  C21120317   2.990   5.414   9.594 -0.1860  0.1123 -0.0832
  178SLPC  H11R20318   3.084   5.366   9.629 -1.2800 -1.9250  0.2293
  178SLPC  H11S20319   2.962   5.471   9.685 -2.0811  0.0939 -0.6041
  178SLPC  C21220320   3.013   5.511   9.482  0.6739 -0.0018  0.1717
  178SLPC  H12R20321   2.957   5.600   9.512 -1.0209 -0.7191 -0.7047
  178SLPC  C21320322   3.078   5.491   9.367 -0.0950 -0.0892 -0.3271
  178SLPC  H13R20323   3.089   5.579   9.302  0.2279 -0.3110 -0.5785
  178SLPC  C21420324   3.162   5.373   9.330  1.2681  0.8159 -0.0373
  178SLPC  H14R20325   3.138   5.287   9.396 -1.8432  0.1246 -1.8313
  178SLPC  H14S20326   3.269   5.396   9.346  1.3469  0.9714 -0.7347
  178SLPC  C21520327   3.148   5.323   9.185  0.5291  0.2403 -0.2924
  178SLPC  H15R20328   3.233   5.257   9.161 -0.3337 -0.7555 -0.6748
  178SLPC  H15S20329   3.144   5.410   9.115  1.5074  1.0479  0.6291
  178SLPC  C21620330   3.026   5.228   9.172  0.0593  0.0239 -0.3892
  178SLPC  H16R20331   2.932   5.269   9.214 -1.8374 -3.1358 -1.2726
  178SLPC  H16S20332   3.040   5.133   9.229  3.4882  0.0784 -0.8849
  178SLPC  C21720333   2.993   5.187   9.025  0.4491 -0.2172  0.4707
  178SLPC  H17R20334   3.084   5.157   8.968  0.1863 -0.1284  0.0017
  178SLPC  H17S20335   2.964   5.288   8.989  1.5826  0.1737  0.6063
  178SLPC  C21820336   2.872   5.092   9.009  0.0804 -0.0314 -0.2731
  178SLPC  H18R20337   2.788   5.136   9.066 -1.9196 -0.6151 -2.6074
  178SLPC  H18S20338   2.906   4.989   9.035 -0.2110  0.1807  1.0053
  178SLPC  H18T20339   2.831   5.088   8.906 -0.6166 -2.7974  0.0433
  178SLPC   C3320340   2.523   4.937  10.072  0.1262 -0.2911  0.0093
  178SLPC   H3X20341   2.520   5.048  10.069  1.0089 -0.2761 -2.0008
  178SLPC   H3Y20342   2.420   4.895  10.070  0.7893 -2.3797  3.2686
  178SLPC   C3420343   2.593   4.900   9.937 -0.1736  0.0263  0.2197
  178SLPC   H4X20344   2.603   4.792   9.916 -0.6266 -0.4012  2.0023
  178SLPC   H4Y20345   2.696   4.939   9.923 -0.7920  1.8289  0.4353
  178SLPC   C3520346   2.501   4.938   9.818 -0.0364  0.0346 -0.2359
  178SLPC   H5X20347   2.475   5.044   9.840  0.2593 -0.0637  0.6339
  178SLPC   H5Y20348   2.409   4.876   9.821 -1.3526  1.9094  0.3465
  178SLPC   C3620349   2.558   4.933   9.672  0.4512  0.6363 -0.3011
  178SLPC   H6X20350   2.561   4.832   9.626 -0.2549  1.3609 -2.0387
  178SLPC   H6Y20351   2.665   4.964   9.669  1.3134 -1.5928  2.5550
  178SLPC   C3720352   2.475   5.018   9.572 -0.1691 -0.3900 -0.7524
  178SLPC   H7X20353   2.481   5.124   9.607  0.6443 -0.8889  0.7237
  178SLPC   H7Y20354   2.375   4.970   9.573  0.1369 -1.0467 -1.0648
  178SLPC   C3820355   2.533   5.003   9.437 -1.0699  0.4015  0.4130
  178SLPC   H8X20356   2.515   4.901   9.395 -1.5068  0.8522 -0.5131
  178SLPC   H8Y20357   2.643   5.009   9.444 -0.8655 -1.2144 -0.7942
  178SLPC   C3920358   2.481   5.103   9.338  0.3662  0.5334 -0.3280
  178SLPC   H9X20359   2.529   5.198   9.368 -1.2952  1.2859  0.0671
  178SLPC   H9Y20360   2.372   5.125   9.340  0.4830  1.4682 -1.9757
  178SLPC  C31020361   2.504   5.060   9.193  0.1425 -0.1921  0.0146
  178SLPC  H10X20362   2.499   4.949   9.187 -0.2862 -0.1549 -0.4066
  178SLPC  H10Y20363   2.605   5.095   9.160 -0.5033  3.2346  1.3389
  178SLPC  C31120364   2.398   5.125   9.102  0.3813  0.4919 -1.0463
  178SLPC  H11X20365   2.402   5.234   9.118 -0.3559  0.5587 -1.2929
  178SLPC  H11Y20366   2.297   5.094   9.135  0.2525  1.2143 -0.7495
  178SLPC  C31220367   2.403   5.085   8.961  0.2877  0.4024 -0.0626
  178SLPC  H12X20368   2.384   4.977   8.943  0.5877  0.6157 -1.8071
  178SLPC  H12Y20369   2.503   5.093   8.913  1.1182  0.7421  1.6135
  178SLPC  C31320370   2.298   5.162   8.881  0.0185 -0.6359 -0.2065
  178SLPC  H13X20371   2.321   5.270   8.887 -2.3524 -0.1379  1.0853
  178SLPC  H13Y20372   2.207   5.156   8.944 -0.9856 -2.1493 -1.6974
  178SLPC  C31420373   2.280   5.127   8.737  0.6812  0.1024  0.9697
  178SLPC  H14X20374   2.245   5.022   8.726 -2.8707  1.3164 -0.8342
  178SLPC  H14Y20375   2.377   5.141   8.684 -0.1834  1.6593 -0.2805
  178SLPC  C31520376   2.172   5.214   8.667  0.6238  0.9676  0.4604
  178SLPC  H15X20377   2.138   5.146   8.586  1.4182 -2.2025  2.6094
  178SLPC  H15Y20378   2.080   5.235   8.725 -1.3339 -0.9931 -1.7490
  178SLPC  C31620379   2.233   5.344   8.622  0.4854 -0.0466  0.4737
  178SLPC  H16X20380   2.325   5.336   8.560 -0.1022  1.0318 -0.5488
  178SLPC  H16Y20381   2.266   5.409   8.706  1.9354  0.6833 -0.6138
  178SLPC  C31720382   2.135   5.419   8.533 -0.1015 -0.1399  0.2220
  178SLPC  H17X20383   2.049   5.448   8.596 -0.6324  1.0743 -1.0022
  178SLPC  H17Y20384   2.121   5.356   8.443  1.9640 -0.2543 -0.0763
  178SLPC  C31820385   2.189   5.550   8.486 -0.3488 -0.9574  0.3691
  178SLPC  H18X20386   2.177   5.624   8.569 -3.3056  0.9256 -1.5441
  178SLPC  H18Y20387   2.125   5.597   8.408 -0.5382 -0.0011  1.0658
  178SLPC  H18Z20388   2.297   5.542   8.459 -0.9356 -0.5191 -2.3583
  179SLPC     N20389   5.991   5.563  10.349  0.4667 -0.5329 -0.5012
  179SLPC   C1320390   5.860   5.542  10.419  0.3011 -0.0595  0.0770
  179SLPC  H13A20391   5.826   5.640  10.447 -0.8620 -0.5121  0.2847
  179SLPC  H13B20392   5.789   5.482  10.364 -0.2109  0.2242  0.4239
  179SLPC  H13C20393   5.877   5.485  10.509  2.5227 -2.4906 -1.7164
  179SLPC   C1420394   5.965   5.602  10.208  0.4288  0.1009 -0.2274
  179SLPC  H14A20395   5.902   5.542  10.144  1.9659  1.6207 -3.4003
  179SLPC  H14B20396   5.898   5.686  10.211  0.3776  0.1203 -1.4964
  179SLPC  H14C20397   6.057   5.628  10.156 -0.6327  0.9399 -1.7678
  179SLPC   C1520398   6.058   5.428  10.340 -0.1678  0.3508  0.0090
  179SLPC  H15A20399   5.988   5.356  10.301  2.2247 -1.2638 -1.6481
  179SLPC  H15B20400   6.143   5.433  10.274 -1.2320 -0.6753 -1.5115
  179SLPC  H15C20401   6.093   5.388  10.434  0.1170  2.8045  1.0025
  179SLPC   C1220402   6.061   5.672  10.434  0.0902 -0.6867  0.0420
  179SLPC  H12A20403   6.166   5.664  10.408 -0.4255 -1.0238 -2.0559
  179SLPC  H12B20404   6.057   5.647  10.540 -0.9413  0.1202  0.2078
  179SLPC   C1120405   6.006   5.816  10.418 -0.0010 -0.3295 -0.2654
  179SLPC  H11A20406   6.009   5.834  10.308 -1.4890 -2.0826 -0.6470
  179SLPC  H11B20407   6.078   5.878  10.475 -0.8114 -0.5880  1.0643
  179SLPC     P20408   5.824   5.987  10.467 -0.1567 -0.0552 -0.3345
  179SLPC   O1320409   5.864   6.066  10.584 -0.3344  0.0605  0.1525
  179SLPC   O1420410   5.866   6.044  10.341  0.5743 -0.1414  0.2716
  179SLPC   O1220411   5.874   5.836  10.487 -0.8097 -0.6335  0.3057
  179SLPC   O1120412   5.676   5.977  10.464 -0.1475 -0.3548  0.0121
  179SLPC    C120413   5.607   5.856  10.434 -0.4896  0.1098  0.0880
  179SLPC    HA20414   5.655   5.767  10.479 -0.0413  1.0268  1.5172
  179SLPC    HB20415   5.507   5.876  10.477 -1.1242  6.1826 -3.0639
  179SLPC    C220416   5.585   5.835  10.280 -0.5108 -0.2517 -0.0051
  179SLPC    HS20417   5.685   5.844  10.232  0.7060 -1.7135  2.1005
  179SLPC   O2120418   5.491   5.942  10.237 -0.3257  0.3844  0.1321
  179SLPC   C2120419   5.517   5.976  10.108  0.3167 -0.3791  0.2409
  179SLPC   O2220420   5.606   5.937  10.039  0.4000  0.0864  0.5211
  179SLPC   C2220421   5.415   6.084  10.070 -0.3999 -0.1731  0.0494
  179SLPC   H2R20422   5.313   6.040  10.076 -2.1434  3.0755 -2.4465
  179SLPC   H2S20423   5.410   6.156  10.155 -2.2262  0.5399 -0.6156
  179SLPC    C320424   5.523   5.697  10.236  0.0781 -0.5128 -0.1113
  179SLPC    HX20425   5.434   5.692  10.302  1.0908  1.8737  1.5995
  179SLPC    HY20426   5.587   5.610  10.263  2.4206  1.3958  0.8467
  179SLPC   O3120427   5.477   5.693  10.096 -0.5150  0.0805 -0.3793
  179SLPC   C3120428   5.575   5.651  10.009  0.5303  1.2986 -0.7940
  179SLPC   O3220429   5.691   5.633  10.040  0.7393  0.0852 -0.1048
  179SLPC   C3220430   5.512   5.631   9.869 -0.5511 -0.1154  0.0687
  179SLPC   H2X20431   5.561   5.700   9.797 -2.7423  1.2469 -0.2351
  179SLPC   H2Y20432   5.407   5.663   9.852  0.0157  0.9700 -1.6634
  179SLPC   C2320433   5.433   6.152   9.935 -0.1943 -0.3395 -0.6376
  179SLPC   H3R20434   5.536   6.193   9.932  0.1770 -1.2455 -0.7171
  179SLPC   H3S20435   5.355   6.230   9.921  1.4718  1.0764 -2.7670
  179SLPC   C2420436   5.420   6.045   9.822 -0.1843  0.0110 -0.0705
  179SLPC   H4R20437   5.315   6.008   9.823  0.7842 -2.9324  0.7494
  179SLPC   H4S20438   5.494   5.967   9.848  0.2295  1.1262  2.3537
  179SLPC   C2520439   5.452   6.110   9.685 -0.3355  0.6279  0.1077
  179SLPC   H5R20440   5.534   6.184   9.699  0.3551 -0.5105  2.5091
  179SLPC   H5S20441   5.360   6.169   9.661 -1.0509  0.3660  2.0172
  179SLPC   C2620442   5.480   6.020   9.562 -0.4177 -0.3951 -0.3615
  179SLPC   H6R20443   5.577   5.973   9.586 -1.3634 -2.0887  0.3265
  179SLPC   H6S20444   5.492   6.090   9.476  0.3906 -0.9446 -0.7106
  179SLPC   C2720445   5.372   5.916   9.544 -0.1540  0.0778  0.6889
  179SLPC   H7R20446   5.269   5.956   9.557 -0.5585 -0.1030 -1.5858
  179SLPC   H7S20447   5.387   5.839   9.623 -3.1579  0.4361  1.7267
  179SLPC   C2820448   5.391   5.849   9.405 -0.0844  0.6017  0.2421
  179SLPC   H8R20449   5.392   5.925   9.324  0.3121 -0.3373 -0.6625
  179SLPC   H8S20450   5.297   5.793   9.386  1.2171 -1.4652 -0.4186
  179SLPC   C2920451   5.512   5.759   9.388  0.0973  0.7920  0.6865
  179SLPC   H9R20452   5.592   5.765   9.463  0.1711  1.9875  0.5340
  179SLPC  C21020453   5.529   5.685   9.273 -0.1575 -0.0539 -0.1318
  179SLPC  H10R20454   5.617   5.620   9.263 -0.1618 -0.5328  2.4465
  179SLPC  C21120455   5.432   5.676   9.159  0.1731  0.1273  0.4260
  179SLPC  H11R20456   5.481   5.703   9.063  2.9538  1.0864  1.9972
  179SLPC  H11S20457   5.343   5.742   9.170 -0.1277  0.2302 -2.1578
  179SLPC  C21220458   5.379   5.539   9.146  0.4432  0.2967 -0.5404
  179SLPC  H12R20459   5.276   5.522   9.182 -0.2902  1.1219 -2.1734
  179SLPC  C21320460   5.440   5.439   9.082  0.1527 -0.5491 -0.3983
  179SLPC  H13R20461   5.385   5.344   9.084  1.3608 -1.2639  1.2902
  179SLPC  C21420462   5.575   5.441   9.011  0.0991  0.3244 -0.4369
  179SLPC  H14R20463   5.643   5.374   9.069 -0.0252 -0.2789 -0.9774
  179SLPC  H14S20464   5.616   5.545   9.011 -0.0646  0.4608  2.1050
  179SLPC  C21520465   5.561   5.377   8.872  0.1541  0.0635  0.5060
  179SLPC  H15R20466   5.525   5.462   8.810  0.4174  1.7488  2.5295
  179SLPC  H15S20467   5.494   5.288   8.876  0.5753 -0.2271  2.1124
  179SLPC  C21620468   5.684   5.330   8.803  0.5273  0.4029  0.2779
  179SLPC  H16R20469   5.710   5.230   8.843  0.3102  0.3239  0.2255
  179SLPC  H16S20470   5.767   5.403   8.811  2.2998 -1.6208  1.0846
  179SLPC  C21720471   5.659   5.317   8.649 -0.2126  0.2345 -0.4793
  179SLPC  H17R20472   5.554   5.289   8.628 -0.3172 -0.0086  0.3393
  179SLPC  H17S20473   5.725   5.240   8.604 -2.7230 -2.0705 -0.4485
  179SLPC  C21820474   5.681   5.455   8.582 -0.5243  0.1295 -0.6084
  179SLPC  H18R20475   5.629   5.539   8.632 -0.0279  0.5646 -0.8191
  179SLPC  H18S20476   5.657   5.458   8.473  2.1596  4.0784 -1.2963
  179SLPC  H18T20477   5.788   5.477   8.600 -0.8651  0.2543  1.5236
  179SLPC   C3320478   5.528   5.483   9.820 -0.1528  0.6843  0.2213
  179SLPC   H3X20479   5.451   5.424   9.874 -0.9867  1.5851  0.0491
  179SLPC   H3Y20480   5.630   5.452   9.851 -0.4235  1.4750  1.9948
  179SLPC   C3420481   5.507   5.470   9.661  0.2936  0.1295  0.0657
  179SLPC   H4X20482   5.583   5.536   9.613 -0.2615  1.0901  0.4720
  179SLPC   H4Y20483   5.409   5.521   9.643 -1.3072 -3.1275 -1.2516
  179SLPC   C3520484   5.503   5.325   9.628  0.4707  0.3348 -0.7766
  179SLPC   H5X20485   5.404   5.284   9.656  1.3572 -0.6096  1.1807
  179SLPC   H5Y20486   5.582   5.266   9.680  0.2208 -0.0359 -0.8088
  179SLPC   C3620487   5.513   5.301   9.471  0.0392 -0.4235  0.0043
  179SLPC   H6X20488   5.622   5.317   9.455  0.2489  0.0323  1.6279
  179SLPC   H6Y20489   5.459   5.376   9.411 -1.0173 -1.8555 -0.8755
  179SLPC   C3720490   5.484   5.155   9.432  0.1289 -0.2789  0.0383
  179SLPC   H7X20491   5.378   5.130   9.454  0.8227 -1.6345  2.1140
  179SLPC   H7Y20492   5.550   5.087   9.490  0.1392  0.3749  0.8128
  179SLPC   C3820493   5.514   5.126   9.288  0.3239  0.6954 -0.1103
  179SLPC   H8X20494   5.625   5.139   9.281  0.7247 -1.2038  1.7015
  179SLPC   H8Y20495   5.469   5.197   9.215 -1.3194  0.2826  0.4696
  179SLPC   C3920496   5.479   4.981   9.253  0.0723  0.4118  0.8558
  179SLPC   H9X20497   5.370   4.965   9.236  0.3318 -0.1974 -0.2769
  179SLPC   H9Y20498   5.516   4.908   9.329  1.7484 -0.6927 -0.9345
  179SLPC  C31020499   5.534   4.942   9.117 -0.5583  0.1567 -0.3527
  179SLPC  H10X20500   5.524   4.832   9.105 -1.0525  0.2927 -1.2268
  179SLPC  H10Y20501   5.644   4.959   9.120 -0.7717  1.5369  1.1034
  179SLPC  C31120502   5.482   5.023   8.998 -0.9606  0.1008 -0.2166
  179SLPC  H11X20503   5.528   5.123   9.006  0.0909 -0.3053 -0.8914
  179SLPC  H11Y20504   5.373   5.035   9.014 -1.1950 -0.6636 -1.1700
  179SLPC  C31220505   5.526   4.967   8.865 -0.1187 -0.2781  0.8542
  179SLPC  H12X20506   5.628   4.925   8.876 -0.1472 -1.2376 -1.8958
  179SLPC  H12Y20507   5.537   5.046   8.788  1.3924 -2.5157 -1.4017
  179SLPC  C31320508   5.451   4.844   8.820  0.2051 -0.3247 -0.0711
  179SLPC  H13X20509   5.343   4.858   8.841  0.3554 -0.3124  0.7077
  179SLPC  H13Y20510   5.495   4.753   8.866  0.5965 -0.5985 -0.9505
  179SLPC  C31420511   5.477   4.839   8.674 -0.9367 -0.0384 -0.3251
  179SLPC  H14X20512   5.588   4.841   8.667 -0.8373 -2.5175 -0.3519
  179SLPC  H14Y20513   5.432   4.922   8.615  0.5955  2.1606  1.4204
  179SLPC  C31520514   5.433   4.708   8.613 -0.0735 -0.0409  0.1098
  179SLPC  H15X20515   5.326   4.701   8.643 -0.1974  0.4944 -0.1960
  179SLPC  H15Y20516   5.481   4.626   8.671 -0.8961  0.5522  1.6675
  179SLPC  C31620517   5.447   4.688   8.464 -0.3265 -0.2394  0.1460
  179SLPC  H16X20518   5.554   4.692   8.432  0.1108  0.8680  1.6327
  179SLPC  H16Y20519   5.396   4.779   8.426  1.6328  1.2973  0.9859
  179SLPC  C31720520   5.390   4.556   8.430 -0.6649 -0.3817  0.1970
  179SLPC  H17X20521   5.287   4.540   8.468 -0.9329 -0.8952 -0.7014
  179SLPC  H17Y20522   5.458   4.481   8.475  0.5255 -1.4218 -3.0293
  179SLPC  C31820523   5.405   4.521   8.282 -0.1294 -0.1481 -0.7568
  179SLPC  H18X20524   5.362   4.607   8.226 -0.4912  0.8293  0.9641
  179SLPC  H18Y20525   5.346   4.436   8.242 -4.5851  3.5979 -3.1809
  179SLPC  H18Z20526   5.512   4.510   8.254  0.3772  0.2508  0.9389
  180SLPC     N20527   0.601   2.996  11.237  0.2998  0.2089  0.0695
  180SLPC   C1320528   0.558   3.132  11.274  0.8997 -0.6886 -0.0351
  180SLPC  H13A20529   0.543   3.131  11.381  2.7221 -0.5454  0.2566
  180SLPC  H13B20530   0.618   3.217  11.246 -2.0656  0.5358 -3.5269
  180SLPC  H13C20531   0.464   3.160  11.228  1.2652  2.1793  0.8011
  180SLPC   C1420532   0.516   2.891  11.312 -0.3106  0.0215  0.1720
  180SLPC  H14A20533   0.560   2.793  11.301 -0.7178 -0.2949  1.2538
  180SLPC  H14B20534   0.516   2.903  11.419  1.2694 -0.5516  0.2543
  180SLPC  H14C20535   0.414   2.903  11.278 -0.4633  0.9464  0.9559
  180SLPC   C1520536   0.740   2.970  11.292 -0.9167 -0.2495  0.6833
  180SLPC  H15A20537   0.752   2.997  11.396 -0.4015 -3.7666  1.6860
  180SLPC  H15B20538   0.775   2.868  11.284  2.5802  0.9535 -1.2892
  180SLPC  H15C20539   0.816   3.022  11.236 -0.3278 -1.1186  0.6668
  180SLPC   C1220540   0.606   2.965  11.093  0.4813  0.2600 -0.0170
  180SLPC  H12A20541   0.662   2.874  11.079 -1.6340 -1.3697  1.4093
  180SLPC  H12B20542   0.644   3.051  11.040  0.1033  0.0791 -0.5891
  180SLPC   C1120543   0.470   2.940  11.025 -0.1975 -0.4186  0.3357
  180SLPC  H11A20544   0.473   2.956  10.915 -1.0576 -2.2997 -0.0058
  180SLPC  H11B20545   0.389   3.004  11.066  0.5895 -0.8784  2.7429
  180SLPC     P20546   0.506   2.690  10.953  0.4022  0.2870 -0.2049
  180SLPC   O1320547   0.650   2.717  10.933  0.1929  0.2338 -0.0262
  180SLPC   O1420548   0.484   2.561  11.025 -0.3785 -0.3619 -0.3087
  180SLPC   O1220549   0.430   2.800  11.031 -0.5049  0.5003  0.1934
  180SLPC   O1120550   0.437   2.681  10.814  0.4404 -0.1226 -0.2799
  180SLPC    C120551   0.423   2.796  10.724  0.3611  0.5075  0.7503
  180SLPC    HA20552   0.332   2.854  10.752  0.5093  1.3154 -0.3690
  180SLPC    HB20553   0.514   2.859  10.727  1.0098 -0.2602 -1.1305
  180SLPC    C220554   0.410   2.727  10.583  0.2916 -0.2226 -0.2741
  180SLPC    HS20555   0.319   2.663  10.588 -0.8458  1.4166  1.0492
  180SLPC   O2120556   0.529   2.644  10.551  0.2565  0.1719  0.4137
  180SLPC   C2120557   0.497   2.550  10.461  0.2909  0.3951 -0.1723
  180SLPC   O2220558   0.385   2.503  10.443  0.0815 -0.4621  0.5429
  180SLPC   C2220559   0.622   2.515  10.382  0.1803  0.5761  0.0453
  180SLPC   H2R20560   0.669   2.604  10.336  1.7398  1.1505  2.6109
  180SLPC   H2S20561   0.697   2.474  10.452 -1.2063  0.2568  1.4020
  180SLPC    C320562   0.376   2.840  10.476 -0.4398  0.3522  0.2864
  180SLPC    HX20563   0.457   2.913  10.495 -1.5198  1.5626  0.3663
  180SLPC    HY20564   0.277   2.885  10.498  0.2175  1.3940  1.1575
  180SLPC   O3120565   0.386   2.783  10.344  0.0818  0.2766 -0.6427
  180SLPC   C3120566   0.278   2.741  10.288 -0.5165 -0.1268 -0.5594
  180SLPC   O3220567   0.163   2.737  10.337 -0.3195  0.3436  0.0743
  180SLPC   C3220568   0.301   2.717  10.137  0.4074 -1.0236 -0.5770
  180SLPC   H2X20569   0.215   2.770  10.091  1.0437 -1.5705 -2.4757
  180SLPC   H2Y20570   0.305   2.606  10.128  3.8326 -1.0925  0.3478
  180SLPC   C2320571   0.578   2.403  10.272  0.5598  0.3572  0.0999
  180SLPC   H3R20572   0.485   2.426  10.215 -1.3424  0.5910  3.0678
  180SLPC   H3S20573   0.570   2.300  10.311  0.3621  0.3763  0.1137
  180SLPC   C2420574   0.689   2.407  10.174 -0.6144  0.2559  0.2888
  180SLPC   H4R20575   0.778   2.384  10.237 -2.0618 -2.0609  1.6531
  180SLPC   H4S20576   0.711   2.503  10.124  0.8982 -0.7268 -1.0417
  180SLPC   C2520577   0.695   2.296  10.073  0.0083 -0.5781 -0.2787
  180SLPC   H5R20578   0.694   2.200  10.129  2.1656  0.0634  0.9739
  180SLPC   H5S20579   0.795   2.302  10.026  1.8155 -0.8738  3.2020
  180SLPC   C2620580   0.583   2.285   9.968  0.2880  0.1532  0.7895
  180SLPC   H6R20581   0.506   2.360   9.998  0.5436  1.1622 -0.9723
  180SLPC   H6S20582   0.533   2.186   9.972 -0.2967  0.4637  1.5553
  180SLPC   C2720583   0.643   2.304   9.824  0.5078 -0.0927 -0.0904
  180SLPC   H7R20584   0.717   2.222   9.811 -0.0098 -1.1577  2.8727
  180SLPC   H7S20585   0.699   2.399   9.810 -2.5041  1.8447 -0.0158
  180SLPC   C2820586   0.540   2.304   9.713  0.0742 -0.1160  0.2647
  180SLPC   H8R20587   0.591   2.334   9.619  0.6266  0.5779  0.7804
  180SLPC   H8S20588   0.471   2.391   9.708  1.8942  1.3743 -0.5354
  180SLPC   C2920589   0.457   2.182   9.698  0.0056 -0.0382 -0.2360
  180SLPC   H9R20590   0.386   2.158   9.778 -0.2362  0.4115 -0.3148
  180SLPC  C21020591   0.469   2.094   9.597 -0.0195  0.6199 -0.1642
  180SLPC  H10R20592   0.400   2.009   9.592  0.1032  0.4939  0.2268
  180SLPC  C21120593   0.559   2.109   9.481  0.0892 -0.6845  0.2996
  180SLPC  H11R20594   0.575   2.004   9.447  2.8038  0.0387 -0.8945
  180SLPC  H11S20595   0.660   2.141   9.514 -0.2494  1.7974 -0.8678
  180SLPC  C21220596   0.514   2.206   9.374 -0.6686  0.5785  0.8266
  180SLPC  H12R20597   0.532   2.312   9.395  0.6793  0.8137 -1.2484
  180SLPC  C21320598   0.465   2.174   9.257  0.1405  0.0901 -0.4709
  180SLPC  H13R20599   0.432   2.251   9.186  0.1018 -1.2802 -2.0036
  180SLPC  C21420600   0.447   2.042   9.195 -0.0773  0.0636 -0.4803
  180SLPC  H14R20601   0.340   2.020   9.178 -0.5949  0.9634  1.3277
  180SLPC  H14S20602   0.482   1.967   9.270 -0.2465  1.4105  0.9970
  180SLPC  C21520603   0.520   2.015   9.072 -0.3652  0.0192 -0.4162
  180SLPC  H15R20604   0.512   1.909   9.038  0.6937 -1.3932  3.2352
  180SLPC  H15S20605   0.629   2.025   9.089 -0.2668  1.2257 -1.6220
  180SLPC  C21620606   0.478   2.099   8.957  0.0849  1.3499  0.6935
  180SLPC  H16R20607   0.487   2.207   8.982 -0.9427  2.0982 -1.7817
  180SLPC  H16S20608   0.368   2.082   8.949 -0.1548  2.1540  2.0617
  180SLPC  C21720609   0.550   2.086   8.825  0.9641 -0.0691  0.5260
  180SLPC  H17R20610   0.532   1.993   8.766  0.0062  2.0010 -2.6942
  180SLPC  H17S20611   0.659   2.075   8.844  0.6136 -2.9502  1.4150
  180SLPC  C21820612   0.523   2.193   8.725 -0.4296 -0.1713  0.3990
  180SLPC  H18R20613   0.577   2.281   8.765  1.6182 -2.0296  1.9955
  180SLPC  H18S20614   0.417   2.217   8.703 -0.1340  1.1734  0.3786
  180SLPC  H18T20615   0.573   2.169   8.629 -0.1897 -0.3312  0.5609
  180SLPC   C3320616   0.445   2.759  10.083  0.6136 -0.3465 -0.0863
  180SLPC   H3X20617   0.523   2.715  10.149 -1.2023 -2.2381  0.9112
  180SLPC   H3Y20618   0.463   2.868  10.097  0.5413 -0.3498  0.0353
  180SLPC   C3420619   0.476   2.729   9.942 -0.3048 -0.1310  1.1134
  180SLPC   H4X20620   0.485   2.618   9.936  1.4009 -0.0198  1.0090
  180SLPC   H4Y20621   0.580   2.767   9.932 -0.2466 -0.1082  1.7174
  180SLPC   C3520622   0.395   2.799   9.833  0.2097 -0.1453 -0.1820
  180SLPC   H5X20623   0.408   2.909   9.843  2.9274 -0.1698 -2.4086
  180SLPC   H5Y20624   0.288   2.773   9.844 -0.3831  0.3385 -3.6461
  180SLPC   C3620625   0.434   2.770   9.686 -0.4412  0.1612  0.3570
  180SLPC   H6X20626   0.371   2.833   9.621  0.6083  0.4964 -0.3623
  180SLPC   H6Y20627   0.402   2.664   9.675 -0.5338  0.2092  0.1750
  180SLPC   C3720628   0.577   2.786   9.648  0.5113  0.7636 -0.0397
  180SLPC   H7X20629   0.640   2.706   9.691  0.3559  0.7712  0.2026
  180SLPC   H7Y20630   0.613   2.887   9.677  0.9823  0.5541  0.1069
  180SLPC   C3820631   0.603   2.787   9.493  0.8507 -0.2140  0.8640
  180SLPC   H8X20632   0.697   2.843   9.475  0.1887  1.8386  3.2610
  180SLPC   H8Y20633   0.526   2.849   9.443  0.4741 -2.6574 -1.8751
  180SLPC   C3920634   0.607   2.656   9.417 -0.6568 -0.5387 -0.6422
  180SLPC   H9X20635   0.534   2.588   9.465  1.1390 -0.0487  3.1691
  180SLPC   H9Y20636   0.705   2.604   9.426 -0.2241  0.4518  0.7758
  180SLPC  C31020637   0.588   2.662   9.267  0.5293 -0.1240 -0.8276
  180SLPC  H10X20638   0.660   2.732   9.220 -0.0948  1.7430  0.8580
  180SLPC  H10Y20639   0.489   2.710   9.248  1.5978  0.9106 -4.7221
  180SLPC  C31120640   0.593   2.531   9.193  0.1063  0.3576 -0.4246
  180SLPC  H11X20641   0.499   2.472   9.189  0.4172 -0.2298  0.5684
  180SLPC  H11Y20642   0.660   2.469   9.257  0.8515  1.0803 -0.4872
  180SLPC  C31220643   0.629   2.557   9.042 -0.9535  0.3393 -0.3000
  180SLPC  H12X20644   0.636   2.667   9.031  2.4690  0.4128  1.2529
  180SLPC  H12Y20645   0.566   2.501   8.969  2.0808 -1.4476 -1.7688
  180SLPC  C31320646   0.769   2.503   9.007  0.7317 -0.1033 -0.3078
  180SLPC  H13X20647   0.761   2.392   9.016 -1.3585  0.1173  1.1057
  180SLPC  H13Y20648   0.843   2.537   9.083  1.2375  0.8947 -1.2254
  180SLPC  C31420649   0.815   2.549   8.870  0.1804 -0.0507 -0.0198
  180SLPC  H14X20650   0.801   2.657   8.847  2.0189  0.2284  0.0332
  180SLPC  H14Y20651   0.742   2.504   8.800  0.1840 -1.9116  1.1082
  180SLPC  C31520652   0.955   2.501   8.829  0.3059  0.8054  0.1728
  180SLPC  H15X20653   1.027   2.534   8.907  2.6728  0.8381 -1.8916
  180SLPC  H15Y20654   0.977   2.558   8.736 -1.9340  0.6507 -0.5184
  180SLPC  C31620655   0.978   2.349   8.823  0.0399  0.2266 -0.4581
  180SLPC  H16X20656   0.919   2.300   8.743  0.4422  0.5775 -0.9722
  180SLPC  H16Y20657   0.944   2.299   8.916 -1.4460  0.5091 -0.8264
  180SLPC  C31720658   1.126   2.313   8.806  0.0545 -0.6179 -0.0322
  180SLPC  H17X20659   1.126   2.238   8.724  1.3165 -0.7684  0.0813
  180SLPC  H17Y20660   1.164   2.265   8.898  1.1484  1.6164  0.7674
  180SLPC  C31820661   1.231   2.418   8.760  0.0968  0.3739  1.1079
  180SLPC  H18X20662   1.328   2.363   8.763  0.4501  0.9209  0.1251
  180SLPC  H18Y20663   1.234   2.505   8.830  0.2205 -0.1260  1.7415
  180SLPC  H18Z20664   1.212   2.442   8.654 -0.9460  0.8670  1.3958
  181SLPC     N20665   2.955   5.089  11.007 -0.3014 -0.2087 -0.1464
  181SLPC   C1320666   2.951   5.236  10.966 -0.2506  0.5323 -0.4428
  181SLPC  H13A20667   2.970   5.306  11.047  3.3320 -0.2792 -0.3985
  181SLPC  H13B20668   3.034   5.252  10.899 -0.5767  1.7068 -0.5877
  181SLPC  H13C20669   2.859   5.243  10.910  0.3395 -0.9765 -1.6546
  181SLPC   C1420670   2.978   5.005  10.891  0.3372 -0.5638 -0.5133
  181SLPC  H14A20671   3.073   5.033  10.847  0.5566  1.2711  1.0320
  181SLPC  H14B20672   2.989   4.900  10.911 -1.3693 -0.6461  0.1249
  181SLPC  H14C20673   2.893   5.020  10.826 -1.7979  3.4016  2.7329
  181SLPC   C1520674   2.823   5.056  11.073  0.1248  0.0732  0.4901
  181SLPC  H15A20675   2.816   5.084  11.177 -1.7089 -0.8940  0.6613
  181SLPC  H15B20676   2.746   5.090  11.006  0.8622  0.0476 -0.3946
  181SLPC  H15C20677   2.816   4.949  11.078 -1.0293  0.1821  1.4107
  181SLPC   C1220678   3.073   5.064  11.100 -0.1292 -0.2645 -0.0493
  181SLPC  H12A20679   3.086   4.958  11.114  0.2572 -0.1360  0.6079
  181SLPC  H12B20680   3.045   5.092  11.201  0.9278 -1.3085  0.5549
  181SLPC   C1120681   3.209   5.128  11.079 -0.8638  0.1404  0.6569
  181SLPC  H11A20682   3.276   5.129  11.168  0.7833  0.7772 -0.5459
  181SLPC  H11B20683   3.190   5.235  11.058 -0.3645  0.1674  0.3236
  181SLPC     P20684   3.390   4.960  10.975  0.3461  0.1917 -0.1354
  181SLPC   O1320685   3.501   5.021  11.046 -0.1664 -0.1984  0.2437
  181SLPC   O1420686   3.327   4.843  11.036  0.1744 -0.2441 -0.1337
  181SLPC   O1220687   3.276   5.070  10.972 -0.6960  0.0017 -0.0486
  181SLPC   O1120688   3.430   4.942  10.822 -0.4322 -0.3389 -0.2779
  181SLPC    C120689   3.329   4.904  10.727 -0.5406  0.4074  0.6072
  181SLPC    HA20690   3.295   4.799  10.740 -2.2517  0.4460 -2.5484
  181SLPC    HB20691   3.235   4.964  10.722 -1.4371 -0.5888  3.5875
  181SLPC    C220692   3.386   4.912  10.585 -0.8422  0.5719  0.8969
  181SLPC    HS20693   3.304   4.917  10.511 -0.0589  1.6704  0.0705
  181SLPC   O2120694   3.485   4.801  10.561 -0.4625  0.0303 -0.0621
  181SLPC   C2120695   3.466   4.737  10.445  0.1453 -0.1831 -0.5601
  181SLPC   O2220696   3.383   4.765  10.359  0.1077 -0.4028 -0.2596
  181SLPC   C2220697   3.576   4.638  10.416 -0.3092  0.3978 -0.3053
  181SLPC   H2R20698   3.645   4.679  10.339 -1.5761  0.6335 -1.3552
  181SLPC   H2S20699   3.632   4.651  10.511  1.9861  0.3655 -1.5707
  181SLPC    C320700   3.471   5.039  10.562 -0.0941  1.1224  0.5248
  181SLPC    HX20701   3.564   5.014  10.617 -1.6723  0.2429  3.0171
  181SLPC    HY20702   3.410   5.115  10.617 -2.6563 -0.8184  0.5831
  181SLPC   O3120703   3.487   5.063  10.418 -0.3293  0.2574 -0.1890
  181SLPC   C3120704   3.410   5.159  10.374  0.1563 -0.2329  0.6454
  181SLPC   O3220705   3.317   5.214  10.427 -0.1485  0.0265  0.5291
  181SLPC   C3220706   3.438   5.174  10.224 -0.7409 -0.1188  0.1275
  181SLPC   H2X20707   3.450   5.071  10.185 -0.0345  0.1464 -0.3814
  181SLPC   H2Y20708   3.541   5.215  10.219  0.5416 -2.7785  2.3601
  181SLPC   C2320709   3.537   4.498  10.371  0.6029 -1.0704 -0.1750
  181SLPC   H3R20710   3.626   4.431  10.365  0.7171 -0.8974 -0.4222
  181SLPC   H3S20711   3.498   4.510  10.268 -1.5435  2.7205  0.8883
  181SLPC   C2420712   3.436   4.431  10.467 -0.1518 -0.5153  0.5280
  181SLPC   H4R20713   3.335   4.477  10.462 -0.5413 -1.3500  0.5934
  181SLPC   H4S20714   3.478   4.441  10.569  0.3717  1.3656  0.1616
  181SLPC   C2520715   3.418   4.285  10.425  0.1289 -0.0485  0.6482
  181SLPC   H5R20716   3.328   4.238  10.472 -0.2613  2.5257  2.7059
  181SLPC   H5S20717   3.504   4.234  10.473  2.0520  1.9712 -0.4978
  181SLPC   C2620718   3.421   4.261  10.268 -0.5004 -0.2907 -0.5136
  181SLPC   H6R20719   3.515   4.303  10.228 -0.9844 -0.4346 -1.8504
  181SLPC   H6S20720   3.339   4.316  10.218  0.2295  1.4020  0.1025
  181SLPC   C2720721   3.413   4.110  10.240  0.5970  0.1955 -0.5578
  181SLPC   H7R20722   3.311   4.080  10.272  1.3539 -2.9123 -0.7629
  181SLPC   H7S20723   3.481   4.052  10.305 -0.0522 -0.9725 -0.8973
  181SLPC   C2820724   3.443   4.062  10.097 -0.4357  0.3937 -0.0271
  181SLPC   H8R20725   3.553   4.073  10.083 -0.7620  0.6140 -3.0687
  181SLPC   H8S20726   3.412   4.140  10.025  1.4375  0.5055 -0.7697
  181SLPC   C2920727   3.389   3.930  10.056  0.2148  0.4689 -0.7105
  181SLPC   H9R20728   3.317   3.894  10.131 -1.0461  1.0862 -1.5890
  181SLPC  C21020729   3.415   3.863   9.945 -1.0505 -0.1005  0.3639
  181SLPC  H10R20730   3.365   3.766   9.929  1.8269 -1.6585  0.0598
  181SLPC  C21120731   3.507   3.901   9.826 -0.0638 -1.1226  0.1974
  181SLPC  H11R20732   3.529   3.806   9.773 -0.2443 -1.8251  1.3658
  181SLPC  H11S20733   3.603   3.937   9.869 -0.7559  1.4675 -0.2208
  181SLPC  C21220734   3.450   4.015   9.734  0.0317  0.0466 -0.0776
  181SLPC  H12R20735   3.393   4.088   9.794 -1.4045 -1.5121  0.5703
  181SLPC  C21320736   3.454   4.025   9.602  0.0002  0.6269  0.0753
  181SLPC  H13R20737   3.430   4.122   9.556  0.6514  0.1518 -1.3019
  181SLPC  C21420738   3.531   3.928   9.516  0.7349  0.9535 -0.0963
  181SLPC  H14R20739   3.468   3.845   9.478  0.6537  0.9680  0.0056
  181SLPC  H14S20740   3.608   3.881   9.580  1.6972  1.9088 -0.5210
  181SLPC  C21520741   3.609   3.992   9.397  0.5042 -0.2490  0.0336
  181SLPC  H15R20742   3.541   4.063   9.344  0.7362  1.1195  1.4951
  181SLPC  H15S20743   3.634   3.908   9.328 -1.1868 -0.3943 -0.4648
  181SLPC  C21620744   3.744   4.055   9.437 -0.5140  0.4353  0.5569
  181SLPC  H16R20745   3.823   3.977   9.434  0.7558  1.6553  1.2109
  181SLPC  H16S20746   3.739   4.085   9.544  3.0644 -0.2842  1.0529
  181SLPC  C21720747   3.786   4.165   9.332  0.4090 -0.2970 -0.0020
  181SLPC  H17R20748   3.813   4.120   9.234  0.7180 -1.9973  0.8171
  181SLPC  H17S20749   3.883   4.197   9.377 -0.0495 -0.2172  0.9307
  181SLPC  C21820750   3.699   4.286   9.315 -0.0164  0.9559 -0.2227
  181SLPC  H18R20751   3.650   4.324   9.407 -1.8754  0.1852 -0.8502
  181SLPC  H18S20752   3.610   4.247   9.262  1.0191 -0.7773 -0.7863
  181SLPC  H18T20753   3.757   4.353   9.248  1.4933 -0.8598 -0.8184
  181SLPC   C3320754   3.330   5.255  10.149  0.4491 -0.7310 -0.4587
  181SLPC   H3X20755   3.338   5.363  10.175 -0.8955 -0.2071 -2.0076
  181SLPC   H3Y20756   3.232   5.222  10.189 -0.9106  0.6616 -2.4223
  181SLPC   C3420757   3.335   5.236   9.998  0.1271  0.4785  0.2875
  181SLPC   H4X20758   3.417   5.297   9.954 -0.3193  0.4002 -0.6759
  181SLPC   H4Y20759   3.236   5.261   9.955 -0.1898 -0.3112  0.5303
  181SLPC   C3520760   3.357   5.100   9.949  0.3044 -0.2283  0.3359
  181SLPC   H5X20761   3.294   5.024  10.002  0.0978 -1.0501 -1.0453
  181SLPC   H5Y20762   3.461   5.062   9.959 -0.6127 -2.8631  0.7159
  181SLPC   C3620763   3.312   5.082   9.801 -0.8292 -1.0965 -0.0032
  181SLPC   H6X20764   3.206   5.097   9.772 -0.3676  0.8246 -0.8677
  181SLPC   H6Y20765   3.333   4.975   9.780 -2.8530 -1.4097 -0.6339
  181SLPC   C3720766   3.398   5.165   9.704 -0.4953  0.1650 -0.0786
  181SLPC   H7X20767   3.502   5.157   9.743 -0.9737 -2.9969  0.8567
  181SLPC   H7Y20768   3.365   5.270   9.722 -0.0045  0.8168 -2.6433
  181SLPC   C3820769   3.397   5.111   9.563  0.1325 -0.1483  0.7471
  181SLPC   H8X20770   3.293   5.124   9.524  0.5241  0.0813 -0.2550
  181SLPC   H8Y20771   3.422   5.003   9.569  0.0252 -0.0829  3.9090
  181SLPC   C3920772   3.491   5.176   9.462 -0.5794  0.0592  0.6660
  181SLPC   H9X20773   3.596   5.196   9.493 -0.9775  2.2153  0.7503
  181SLPC   H9Y20774   3.443   5.275   9.449  2.3596  1.3179 -1.5770
  181SLPC  C31020775   3.497   5.100   9.325 -0.3861  0.4314 -0.1036
  181SLPC  H10X20776   3.393   5.099   9.286 -0.4776 -0.7044  0.1149
  181SLPC  H10Y20777   3.543   5.003   9.355  1.1456  1.2774  0.3854
  181SLPC  C31120778   3.598   5.154   9.230  0.0763 -0.0703  0.1145
  181SLPC  H11X20779   3.698   5.137   9.275  0.3793  1.1692 -0.0545
  181SLPC  H11Y20780   3.579   5.258   9.198 -3.0189 -1.0057 -1.5588
  181SLPC  C31220781   3.587   5.075   9.105  0.5549 -1.0517  0.0462
  181SLPC  H12X20782   3.502   5.118   9.047  1.4717  1.6606  0.5724
  181SLPC  H12Y20783   3.542   4.976   9.128 -0.8355 -0.4578  0.0089
  181SLPC  C31320784   3.722   5.079   9.028 -0.2132 -0.5670 -0.4253
  181SLPC  H13X20785   3.806   5.031   9.083 -0.3927  1.6805  2.0212
  181SLPC  H13Y20786   3.756   5.183   9.012  1.4990 -1.3094 -1.9872
  181SLPC  C31420787   3.711   5.005   8.895  0.3453 -0.3242  0.4337
  181SLPC  H14X20788   3.635   4.925   8.900 -0.8122  0.7973  1.3956
  181SLPC  H14Y20789   3.807   4.959   8.861  0.8892  3.1852 -3.5901
  181SLPC  C31520790   3.685   5.097   8.773  0.2128  0.3613 -0.2310
  181SLPC  H15X20791   3.777   5.153   8.745  0.3570 -0.1492 -0.8197
  181SLPC  H15Y20792   3.618   5.178   8.805  0.8297  0.1139  1.8179
  181SLPC  C31620793   3.649   5.021   8.641  0.5255 -0.5978  0.2534
  181SLPC  H16X20794   3.743   4.975   8.605  0.4377 -0.4955 -0.1115
  181SLPC  H16Y20795   3.624   5.096   8.563  1.0890  0.9033  1.4585
  181SLPC  C31720796   3.536   4.915   8.651  0.8967  0.2792 -0.4249
  181SLPC  H17X20797   3.464   4.960   8.723  0.2080 -0.1054 -0.8689
  181SLPC  H17Y20798   3.580   4.820   8.688  1.4954  0.5894 -0.3228
  181SLPC  C31820799   3.472   4.877   8.520  0.3230 -0.0821  0.2345
  181SLPC  H18X20800   3.395   4.802   8.549  1.5148 -1.3314  0.2680
  181SLPC  H18Y20801   3.556   4.837   8.459 -0.0530 -0.0505 -0.3158
  181SLPC  H18Z20802   3.424   4.958   8.461  0.0483  0.8437  1.6858
  182SLPC     N20803   1.349   5.981  10.739  0.0391 -0.4333  0.1329
  182SLPC   C1320804   1.412   6.037  10.860 -0.0630  0.3344 -0.4771
  182SLPC  H13A20805   1.492   5.975  10.899 -0.3307 -0.1220 -0.6513
  182SLPC  H13B20806   1.453   6.135  10.841  1.0737 -0.1675 -0.7163
  182SLPC  H13C20807   1.344   6.052  10.942  0.2246  0.2193 -0.2146
  182SLPC   C1420808   1.283   5.857  10.779 -0.2823  0.3265 -0.5782
  182SLPC  H14A20809   1.249   5.796  10.697  2.2261 -0.3014 -1.2232
  182SLPC  H14B20810   1.347   5.784  10.827  1.1604  3.8828  3.5221
  182SLPC  H14C20811   1.214   5.873  10.861 -0.3985 -0.6553 -0.4721
  182SLPC   C1520812   1.455   5.953  10.631 -0.1803  0.3088  0.4400
  182SLPC  H15A20813   1.415   5.915  10.538 -0.1980  0.0453  0.5560
  182SLPC  H15B20814   1.498   6.047  10.599 -2.2857  1.5643  1.1028
  182SLPC  H15C20815   1.528   5.884  10.669  0.7381  0.8338 -0.3030
  182SLPC   C1220816   1.247   6.075  10.674 -0.3913 -0.2853 -0.6828
  182SLPC  H12A20817   1.178   6.097  10.754 -0.1018  0.9295 -0.7363
  182SLPC  H12B20818   1.203   6.028  10.588  1.2639  1.5410 -2.6236
  182SLPC   C1120819   1.305   6.210  10.630 -0.6910 -0.3313 -0.1420
  182SLPC  H11A20820   1.235   6.268  10.566  1.4209  1.2454 -1.1513
  182SLPC  H11B20821   1.399   6.197  10.572 -0.0186 -0.4719  0.9618
  182SLPC     P20822   1.213   6.341  10.848  0.5487  0.2203  0.2049
  182SLPC   O1320823   1.162   6.244  10.942 -0.4114 -0.5628 -0.4421
  182SLPC   O1420824   1.268   6.465  10.908  0.8265 -0.0437  0.3136
  182SLPC   O1220825   1.327   6.282  10.754 -0.1655  0.2341  0.1533
  182SLPC   O1120826   1.096   6.365  10.746 -0.1409  0.3299  0.4598
  182SLPC    C120827   1.093   6.493  10.669 -0.6344  0.0890 -0.4349
  182SLPC    HA20828   1.069   6.577  10.738  3.2940  0.4914  0.6782
  182SLPC    HB20829   1.191   6.511  10.619  0.3213  0.3096  1.4357
  182SLPC    C220830   0.983   6.500  10.551  0.6862  0.1540  0.2610
  182SLPC    HS20831   0.886   6.455  10.582  0.1674  0.3503 -1.0077
  182SLPC   O2120832   1.046   6.430  10.441  0.2690 -0.5074  0.0693
  182SLPC   C2120833   0.968   6.356  10.360  0.1663 -0.0486 -0.0305
  182SLPC   O2220834   0.848   6.350  10.366 -0.2350  0.0922  0.0667
  182SLPC   C2220835   1.063   6.292  10.252  0.0518  0.3449  0.0618
  182SLPC   H2R20836   1.114   6.368  10.189  0.5794  1.2891  1.6004
  182SLPC   H2S20837   1.147   6.245  10.307 -1.0588  0.3651  1.8505
  182SLPC    C320838   0.963   6.650  10.516  0.0523  0.5375 -0.0221
  182SLPC    HX20839   1.065   6.689  10.495 -0.1528  0.8786 -0.3845
  182SLPC    HY20840   0.915   6.704  10.600  0.2737 -0.4275  0.7406
  182SLPC   O3120841   0.886   6.659  10.391 -0.3367  0.0041  0.2166
  182SLPC   C3120842   0.752   6.642  10.391 -0.2076  0.2105  0.1946
  182SLPC   O3220843   0.685   6.629  10.493  0.1100 -0.1423  0.0065
  182SLPC   C3220844   0.696   6.636  10.247 -0.3702 -0.0011 -0.0559
  182SLPC   H2X20845   0.711   6.527  10.229  0.8061  0.0476  0.4956
  182SLPC   H2Y20846   0.769   6.693  10.185 -0.2537 -2.6189 -2.5154
  182SLPC   C2320847   0.999   6.173  10.167 -0.1696  0.0275  0.1938
  182SLPC   H3R20848   0.957   6.095  10.234  2.5190 -2.3137 -0.6349
  182SLPC   H3S20849   1.079   6.120  10.112 -0.4241  0.2019 -0.3486
  182SLPC   C2420850   0.883   6.219  10.071  0.5102  0.1557  0.4908
  182SLPC   H4R20851   0.803   6.264  10.133  0.6116 -0.7876  1.3501
  182SLPC   H4S20852   0.842   6.129  10.020  0.6881  0.2804  0.1211
  182SLPC   C2520853   0.925   6.318   9.957 -0.7408  0.0244 -0.2678
  182SLPC   H5R20854   1.012   6.282   9.899 -0.5485  1.6850 -1.0703
  182SLPC   H5S20855   0.957   6.415  10.001 -1.0840 -0.0339  0.1113
  182SLPC   C2620856   0.801   6.345   9.868  0.4181  0.2220 -0.1941
  182SLPC   H6R20857   0.710   6.309   9.919  1.1303  1.4268  2.0242
  182SLPC   H6S20858   0.810   6.286   9.774  1.9746 -0.0273  0.0771
  182SLPC   C2720859   0.775   6.487   9.822 -0.5978 -0.0363 -0.0783
  182SLPC   H7R20860   0.876   6.519   9.791  0.2832  0.0971  2.6593
  182SLPC   H7S20861   0.753   6.560   9.903  2.4404  3.3240 -2.0034
  182SLPC   C2820862   0.674   6.498   9.705 -0.5016 -0.1749 -0.9228
  182SLPC   H8R20863   0.710   6.431   9.624  2.2541 -1.1817  0.9477
  182SLPC   H8S20864   0.684   6.600   9.662 -1.7022 -0.4644 -1.9213
  182SLPC   C2920865   0.529   6.483   9.748  0.1264 -0.5447 -0.3472
  182SLPC   H9R20866   0.509   6.485   9.857 -1.1022 -2.7437 -0.4646
  182SLPC  C21020867   0.422   6.473   9.659  0.2607 -0.1339  0.0175
  182SLPC  H10R20868   0.325   6.497   9.705  0.1161  0.0966 -0.4030
  182SLPC  C21120869   0.425   6.472   9.511 -0.0189 -1.2133  0.0381
  182SLPC  H11R20870   0.315   6.476   9.495 -0.0276 -0.0094  0.3408
  182SLPC  H11S20871   0.455   6.368   9.487 -1.2529 -1.5874  0.0611
  182SLPC  C21220872   0.495   6.577   9.422  0.0352  0.2547  0.3786
  182SLPC  H12R20873   0.498   6.680   9.461  0.9084  1.6419 -2.9775
  182SLPC  C21320874   0.527   6.560   9.295  0.6257 -0.1817 -0.3929
  182SLPC  H13R20875   0.567   6.647   9.241  1.0380 -2.4328 -4.0211
  182SLPC  C21420876   0.514   6.437   9.210 -0.9074 -0.3090 -0.3561
  182SLPC  H14R20877   0.450   6.364   9.264 -1.3873  0.7623  0.5881
  182SLPC  H14S20878   0.609   6.390   9.178 -2.8149 -4.8001 -0.0866
  182SLPC  C21520879   0.438   6.484   9.085 -0.6385  0.3599 -0.1125
  182SLPC  H15R20880   0.428   6.386   9.034  1.3308 -0.3084  0.6745
  182SLPC  H15S20881   0.504   6.550   9.026 -0.1222  1.2672  1.4211
  182SLPC  C21620882   0.301   6.546   9.110 -0.5224 -0.2022  0.4379
  182SLPC  H16R20883   0.319   6.648   9.151 -0.9926 -0.0738  0.3224
  182SLPC  H16S20884   0.255   6.482   9.189 -1.3911  0.3730  0.4163
  182SLPC  C21720885   0.211   6.548   8.986  0.2585 -0.2615 -0.0601
  182SLPC  H17R20886   0.262   6.616   8.915  2.0439  0.0049  1.4014
  182SLPC  H17S20887   0.119   6.598   9.023  1.1625 -0.4006  2.6177
  182SLPC  C21820888   0.196   6.408   8.920 -0.4350 -0.0354  0.8448
  182SLPC  H18R20889   0.283   6.389   8.855  0.2161  0.7379  1.4690
  182SLPC  H18S20890   0.104   6.403   8.858 -0.1324  1.2135  0.2618
  182SLPC  H18T20891   0.197   6.323   8.991  0.2505 -0.4803  0.3144
  182SLPC   C3320892   0.563   6.696  10.233  0.8678  0.1843 -0.4486
  182SLPC   H3X20893   0.553   6.789  10.293  0.1046 -0.6030  0.6912
  182SLPC   H3Y20894   0.491   6.626  10.280  1.4693  1.0286  1.8594
  182SLPC   C3420895   0.526   6.729  10.090  0.0743 -0.2190 -0.3191
  182SLPC   H4X20896   0.535   6.639  10.026  0.8419 -0.2892 -0.1227
  182SLPC   H4Y20897   0.611   6.789  10.050  0.4953  0.0646  0.9358
  182SLPC   C3520898   0.390   6.793  10.071  0.0353 -0.3155  0.2640
  182SLPC   H5X20899   0.392   6.899  10.102 -1.2220 -0.5182  1.1307
  182SLPC   H5Y20900   0.305   6.744  10.123 -0.6614 -0.5896 -1.0873
  182SLPC   C3620901   0.360   6.791   9.919  0.5806 -0.0080 -0.5315
  182SLPC   H6X20902   0.343   6.687   9.884  0.3829  0.1852 -1.0248
  182SLPC   H6Y20903   0.453   6.837   9.879  0.8422  0.1320  0.2185
  182SLPC   C3720904   0.234   6.864   9.870  0.2155 -0.9349 -0.8248
  182SLPC   H7X20905   0.219   6.971   9.894 -1.8758 -1.1654 -0.9005
  182SLPC   H7Y20906   0.145   6.814   9.915 -1.8672  2.3021 -1.0497
  182SLPC   C3820907   0.222   6.840   9.717 -0.0646  0.4670  0.3265
  182SLPC   H8X20908   0.128   6.889   9.683  0.1970  1.0200  0.3849
  182SLPC   H8Y20909   0.208   6.733   9.690 -1.2189  0.4039  1.1108
  182SLPC   C3920910   0.336   6.900   9.627 -0.4372  0.0280 -0.4485
  182SLPC   H9X20911   0.428   6.839   9.642  0.4994  2.0070  2.8917
  182SLPC   H9Y20912   0.360   7.003   9.659  0.0740  0.3079 -1.6804
  182SLPC  C31020913   0.305   6.907   9.481  0.0143 -0.4604 -0.0863
  182SLPC  H10X20914   0.297   6.799   9.455  0.8740 -0.6948  0.5777
  182SLPC  H10Y20915   0.386   6.952   9.419 -0.2767 -0.6341 -0.6026
  182SLPC  C31120916   0.190   7.001   9.446  0.2112  0.2032  0.1351
  182SLPC  H11X20917   0.211   7.102   9.485 -1.4943  0.6274  0.0285
  182SLPC  H11Y20918   0.094   6.973   9.494 -1.0473 -0.1809 -2.4374
  182SLPC  C31220919   0.144   6.994   9.296  0.6500 -0.4394  0.4484
  182SLPC  H12X20920   0.041   7.033   9.286  0.6819 -0.8835 -2.4162
  182SLPC  H12Y20921   0.132   6.889   9.261 -1.7399 -1.0861  2.9101
  182SLPC  C31320922   0.228   7.078   9.202  0.0724 -0.2240  0.1170
  182SLPC  H13X20923   0.322   7.024   9.178 -0.1346  0.1006 -1.5775
  182SLPC  H13Y20924   0.254   7.173   9.254  0.6238 -0.9835  1.2479
  182SLPC  C31420925   0.172   7.114   9.062  0.0983 -0.1335 -0.3888
  182SLPC  H14X20926   0.252   7.163   9.002  0.2168 -0.4198 -0.4665
  182SLPC  H14Y20927   0.089   7.183   9.087  1.0678  0.6975  0.6357
  182SLPC  C31520928   0.129   6.989   8.984 -0.9139  0.3682 -0.0298
  182SLPC  H15X20929   0.023   6.960   8.995 -1.2155  0.0468 -2.9927
  182SLPC  H15Y20930   0.194   6.908   9.023 -1.3427 -1.1086 -2.2601
  182SLPC  C31620931   0.158   7.008   8.838  0.4625  0.4080  0.1271
  182SLPC  H16X20932   0.267   7.030   8.833  0.8961 -1.4080  0.5002
  182SLPC  H16Y20933   0.105   7.094   8.793 -0.4813 -0.0226  0.3987
  182SLPC  C31720934   0.124   6.888   8.749 -0.1389 -0.0736 -0.4569
  182SLPC  H17X20935   0.018   6.860   8.764 -0.0349 -0.4211 -0.3620
  182SLPC  H17Y20936   0.179   6.800   8.788 -1.6452 -0.1504  1.6485
  182SLPC  C31820937   0.153   6.909   8.599  0.5611 -0.1444  0.0245
  182SLPC  H18X20938   0.153   6.810   8.548  1.1472  0.1215 -0.5083
  182SLPC  H18Y20939   0.248   6.963   8.581  0.0419  0.8125  0.1318
  182SLPC  H18Z20940   0.067   6.971   8.567  0.3913  0.0063  0.7581
  183SLPC     N20941   2.613   0.707  10.815  0.0018 -0.3700 -0.1495
  183SLPC   C1320942   2.579   0.848  10.852 -0.1834 -0.0751 -0.0405
  183SLPC  H13A20943   2.625   0.914  10.780  0.2936 -1.3185 -0.9231
  183SLPC  H13B20944   2.473   0.863  10.840 -0.4414 -0.8993  1.0375
  183SLPC  H13C20945   2.599   0.876  10.954 -0.0183  3.3381 -0.9040
  183SLPC   C1420946   2.758   0.682  10.842  0.4885 -0.1322  0.2243
  183SLPC  H14A20947   2.813   0.751  10.779  0.1537 -0.3751 -0.3456
  183SLPC  H14B20948   2.803   0.694  10.939  0.7655 -1.0766  0.2286
  183SLPC  H14C20949   2.774   0.579  10.811 -1.0608 -1.1312  2.4458
  183SLPC   C1520950   2.581   0.687  10.676 -0.3765 -0.1675  0.5289
  183SLPC  H15A20951   2.617   0.589  10.646 -0.1316 -0.1086  0.6295
  183SLPC  H15B20952   2.476   0.685  10.649 -0.0826 -0.4284 -0.6433
  183SLPC  H15C20953   2.630   0.761  10.615 -1.2241 -1.5184 -1.9475
  183SLPC   C1220954   2.530   0.610  10.898  0.2146 -0.3285  0.0029
  183SLPC  H12A20955   2.429   0.645  10.889 -0.0732 -1.0343  0.4335
  183SLPC  H12B20956   2.559   0.612  11.002  0.4572  2.1554 -0.0297
  183SLPC   C1120957   2.519   0.469  10.850  0.4181 -0.0292  0.7335
  183SLPC  H11A20958   2.470   0.410  10.931 -3.3195  0.9019 -0.6405
  183SLPC  H11B20959   2.625   0.438  10.845  0.4043 -0.5845  2.9718
  183SLPC     P20960   2.277   0.493  10.727 -0.0173  0.0734  0.4048
  183SLPC   O1320961   2.233   0.558  10.851 -0.0737  0.5829  0.6400
  183SLPC   O1420962   2.262   0.567  10.599  0.4809 -0.7140 -0.1308
  183SLPC   O1220963   2.433   0.456  10.726 -0.3027 -0.1171 -0.0403
  183SLPC   O1120964   2.207   0.345  10.719 -0.5047 -0.5436  0.9219
  183SLPC    C120965   2.212   0.266  10.605 -0.2490  0.7469  0.0663
  183SLPC    HA20966   2.311   0.265  10.555  0.6157  1.4486  1.6756
  183SLPC    HB20967   2.187   0.162  10.635  0.0927  0.1142 -1.7295
  183SLPC    C220968   2.102   0.294  10.498  0.6032 -0.2765 -0.0499
  183SLPC    HS20969   2.112   0.393  10.448  0.8169  0.4250  1.3423
  183SLPC   O2120970   1.967   0.291  10.554  0.2060 -0.0503  0.2948
  183SLPC   C2120971   1.877   0.324  10.471  0.0359 -0.1110 -0.0905
  183SLPC   O2220972   1.888   0.378  10.362 -0.1073  0.0321 -0.6061
  183SLPC   C2220973   1.746   0.287  10.540  0.0502 -0.3671  0.3860
  183SLPC   H2R20974   1.739   0.179  10.565 -1.6664 -0.1732  0.8419
  183SLPC   H2S20975   1.752   0.341  10.637  0.2436 -1.1400  0.8097
  183SLPC    C320976   2.120   0.189  10.381  0.1613 -0.1851 -0.1168
  183SLPC    HX20977   2.057   0.219  10.294 -1.1818 -0.6599  0.6618
  183SLPC    HY20978   2.082   0.089  10.410  1.2328 -0.9058 -1.0762
  183SLPC   O3120979   2.259   0.174  10.339  0.3996  0.0166  0.3664
  183SLPC   C3120980   2.302   0.266  10.260 -0.0408 -0.3736  0.1764
  183SLPC   O3220981   2.237   0.360  10.209  0.0432 -0.6046 -0.2666
  183SLPC   C3220982   2.450   0.240  10.237 -0.2236 -0.5016 -0.3839
  183SLPC   H2X20983   2.494   0.169  10.310 -1.3735  0.1977  1.0268
  183SLPC   H2Y20984   2.509   0.334  10.236 -0.4740 -0.3331  0.2458
  183SLPC   C2320985   1.616   0.341  10.471 -0.5121  0.6940  0.0587
  183SLPC   H3R20986   1.651   0.443  10.444  2.0286 -0.4504 -1.3788
  183SLPC   H3S20987   1.534   0.354  10.545  0.0306  0.1957  0.7717
  183SLPC   C2420988   1.565   0.275  10.345 -0.3963  0.1471 -0.4264
  183SLPC   H4R20989   1.658   0.251  10.290 -0.5335  2.5901 -1.8932
  183SLPC   H4S20990   1.504   0.345  10.283 -0.3840  0.5100 -0.0353
  183SLPC   C2520991   1.477   0.145  10.372 -0.3093 -0.5086  0.5200
  183SLPC   H5R20992   1.401   0.166  10.450 -0.7729 -1.9842  0.5028
  183SLPC   H5S20993   1.542   0.064  10.412 -0.5852 -0.0403  1.9712
  183SLPC   C2620994   1.423   0.095  10.239 -0.0377 -0.3557 -0.4916
  183SLPC   H6R20995   1.495   0.130  10.162 -0.6389  3.6243  0.5480
  183SLPC   H6S20996   1.325   0.144  10.218  0.6375  0.4443 -1.9843
  183SLPC   C2720997   1.399  -0.060  10.241 -0.2904  0.6568 -0.1752
  183SLPC   H7R20998   1.323  -0.082  10.319 -0.9193  0.9100 -0.7032
  183SLPC   H7S20999   1.500  -0.104  10.257  0.4451  1.4428 -2.2761
  183SLPC   C2821000   1.350  -0.113  10.107 -0.3754 -0.4235  0.0636
  183SLPC   H8R21001   1.253  -0.062  10.086  0.7696  2.9196  2.1074
  183SLPC   H8S21002   1.338  -0.222  10.123  3.6231 -1.1760 -1.1061
  183SLPC   C2921003   1.442  -0.083   9.993 -0.9295 -0.6845  0.6317
  183SLPC   H9R21004   1.533  -0.027  10.020 -1.5955  1.0914 -0.6432
  183SLPC  C21021005   1.444  -0.148   9.877 -0.2968 -0.4777  0.1076
  183SLPC  H10R21006   1.529  -0.120   9.812 -0.1906 -1.8073 -0.3545
  183SLPC  C21121007   1.360  -0.262   9.828  0.4687 -0.3928  0.5356
  183SLPC  H11R21008   1.358  -0.345   9.902  1.2724 -1.6019 -0.7289
  183SLPC  H11S21009   1.402  -0.316   9.740 -1.4306 -0.4728 -0.3764
  183SLPC  C21221010   1.212  -0.223   9.803 -0.4395 -0.4081 -0.1666
  183SLPC  H12R21011   1.167  -0.157   9.878 -0.7521  0.9961 -1.5317
  183SLPC  C21321012   1.140  -0.245   9.698  0.0054  0.3487  0.4194
  183SLPC  H13R21013   1.040  -0.202   9.717  0.1382  0.7341  0.2560
  183SLPC  C21421014   1.171  -0.308   9.567 -0.9001 -0.1931  0.3070
  183SLPC  H14R21015   1.076  -0.351   9.529 -0.0394 -0.5522 -1.5119
  183SLPC  H14S21016   1.229  -0.402   9.578 -1.7930 -0.7905  0.0722
  183SLPC  C21521017   1.245  -0.211   9.469  0.1725 -0.4251  0.0061
  183SLPC  H15R21018   1.326  -0.153   9.519 -0.7087 -0.2759  1.3031
  183SLPC  H15S21019   1.176  -0.133   9.432  1.3425  0.7744  0.2698
  183SLPC  C21621020   1.303  -0.269   9.335 -0.4764  0.5738 -0.2719
  183SLPC  H16R21021   1.359  -0.359   9.369 -0.9328  0.4061  0.0541
  183SLPC  H16S21022   1.382  -0.204   9.292  0.5143 -1.4026 -1.6204
  183SLPC  C21721023   1.190  -0.309   9.241  0.9947  0.0793 -0.4879
  183SLPC  H17R21024   1.112  -0.231   9.232 -1.3970 -1.9625  1.2190
  183SLPC  H17S21025   1.139  -0.386   9.302 -0.5517  1.1757 -0.3411
  183SLPC  C21821026   1.238  -0.361   9.104  0.3406 -0.2185 -0.6545
  183SLPC  H18R21027   1.291  -0.272   9.064  1.5657  0.7152  2.6750
  183SLPC  H18S21028   1.159  -0.384   9.029  1.0195 -2.9535 -0.6305
  183SLPC  H18T21029   1.304  -0.450   9.099 -0.7454 -1.0014 -1.6405
  183SLPC   C3321030   2.464   0.190  10.088  0.9395 -0.3011  0.2217
  183SLPC   H3X21031   2.395   0.105  10.068 -0.9698  0.9666  1.1300
  183SLPC   H3Y21032   2.565   0.145  10.076  1.1568  0.7022 -2.1218
  183SLPC   C3421033   2.444   0.305   9.993  0.3114 -0.2265 -0.3588
  183SLPC   H4X21034   2.495   0.399  10.025  2.1082 -2.2375  3.3201
  183SLPC   H4Y21035   2.336   0.328   9.996  0.5715  1.6467 -2.5289
  183SLPC   C3521036   2.475   0.271   9.848  0.2108  0.0347 -0.0811
  183SLPC   H5X21037   2.392   0.204   9.820  1.2377 -0.7614 -1.3340
  183SLPC   H5Y21038   2.573   0.220   9.836 -0.7649 -1.5290 -1.6944
  183SLPC   C3621039   2.487   0.394   9.760 -0.5777 -0.8233 -0.6466
  183SLPC   H6X21040   2.562   0.458   9.812 -3.3032  1.6312  0.5881
  183SLPC   H6Y21041   2.396   0.458   9.768 -1.1878 -1.7202 -0.3387
  183SLPC   C3721042   2.511   0.352   9.613  0.1716  0.6407 -0.2683
  183SLPC   H7X21043   2.448   0.267   9.581 -2.1026  1.0213  2.7512
  183SLPC   H7Y21044   2.618   0.323   9.601  0.9990  3.3194 -0.0327
  183SLPC   C3821045   2.486   0.463   9.517  0.1610 -0.5600 -0.3050
  183SLPC   H8X21046   2.533   0.448   9.417 -1.2532 -2.8389 -0.7155
  183SLPC   H8Y21047   2.539   0.553   9.556 -0.1445 -1.7812  3.2759
  183SLPC   C3921048   2.334   0.503   9.504 -0.6255  0.7976  0.3089
  183SLPC   H9X21049   2.319   0.588   9.573  1.7191  0.9638  0.7086
  183SLPC   H9Y21050   2.280   0.415   9.545 -0.8524  0.2703 -1.0489
  183SLPC  C31021051   2.289   0.541   9.357 -0.0518 -0.2651  0.4297
  183SLPC  H10X21052   2.372   0.594   9.308  0.6745 -2.7733 -1.2710
  183SLPC  H10Y21053   2.197   0.604   9.363  0.8873  1.1483  0.3720
  183SLPC  C31121054   2.260   0.418   9.264 -0.4336  0.0231 -0.9460
  183SLPC  H11X21055   2.232   0.322   9.311  0.1882 -0.8524 -2.2803
  183SLPC  H11Y21056   2.357   0.386   9.221 -1.3200 -1.5725 -1.8321
  183SLPC  C31221057   2.176   0.454   9.139 -0.0568  0.7136  0.4372
  183SLPC  H12X21058   2.222   0.541   9.087  2.1792 -0.4561  0.3356
  183SLPC  H12Y21059   2.070   0.469   9.169 -1.6567  2.3693 -4.9248
  183SLPC  C31321060   2.184   0.340   9.030 -0.3486  0.3586 -0.0425
  183SLPC  H13X21061   2.134   0.250   9.071  0.1644  0.0977  0.0208
  183SLPC  H13Y21062   2.290   0.319   9.003 -0.5631 -0.4870 -0.2227
  183SLPC  C31421063   2.109   0.376   8.898  0.2692  0.5932  0.3742
  183SLPC  H14X21064   2.130   0.320   8.805 -0.3583  0.4383  0.3232
  183SLPC  H14Y21065   2.132   0.483   8.876  0.3839  1.1699  2.8962
  183SLPC  C31521066   1.955   0.363   8.925  0.2724  0.0059 -0.4433
  183SLPC  H15X21067   1.911   0.389   9.024  0.3873 -0.0413 -0.3797
  183SLPC  H15Y21068   1.945   0.252   8.916  0.5219 -0.0367 -0.2113
  183SLPC  C31621069   1.874   0.420   8.813 -0.0006 -0.1718 -0.8246
  183SLPC  H16X21070   1.928   0.380   8.725  1.7334 -0.1626  0.1865
  183SLPC  H16Y21071   1.873   0.531   8.815  0.7016 -0.1575 -1.0374
  183SLPC  C31721072   1.729   0.366   8.794  0.2247 -0.5198  0.3336
  183SLPC  H17X21073   1.728   0.257   8.771 -2.0852 -0.5132  0.0756
  183SLPC  H17Y21074   1.673   0.411   8.709  1.0950  1.7061  0.8836
  183SLPC  C31821075   1.648   0.388   8.916  0.8072 -0.0659  0.1563
  183SLPC  H18X21076   1.665   0.493   8.950 -0.4225  1.3604 -3.1911
  183SLPC  H18Y21077   1.689   0.324   8.997 -1.0661 -1.0715  0.3770
  183SLPC  H18Z21078   1.538   0.377   8.904  0.5338  2.3901 -0.0268
  184SLPC     N21079   4.857   0.497  10.864  0.8051 -0.5090 -0.2079
  184SLPC   C1321080   4.712   0.532  10.879  0.0503  0.3337  0.1971
  184SLPC  H13A21081   4.707   0.622  10.939  1.3463  0.3197  0.3562
  184SLPC  H13B21082   4.658   0.551  10.787 -1.3160 -1.6843  0.5184
  184SLPC  H13C21083   4.659   0.460  10.939  2.7841 -0.6352  1.6128
  184SLPC   C1421084   4.909   0.476  11.002 -0.6307 -0.2067 -0.3397
  184SLPC  H14A21085   5.004   0.426  10.998  0.0660  1.0307  0.1990
  184SLPC  H14B21086   4.914   0.568  11.058  0.2314 -1.2053  1.3228
  184SLPC  H14C21087   4.848   0.412  11.065  3.0138  0.3173  4.2675
  184SLPC   C1521088   4.931   0.609  10.800  0.2503 -0.8694  0.0733
  184SLPC  H15A21089   5.035   0.594  10.822  0.3876 -1.2105 -0.7475
  184SLPC  H15B21090   4.910   0.601  10.694 -1.2804 -1.3214  0.3738
  184SLPC  H15C21091   4.893   0.706  10.828 -0.2840  0.1336 -3.5057
  184SLPC   C1221092   4.872   0.369  10.780 -0.3992 -0.3228  0.2226
  184SLPC  H12A21093   4.828   0.385  10.682  1.7366  0.1415 -0.7204
  184SLPC  H12B21094   4.829   0.280  10.823  1.0034 -0.8695  0.5339
  184SLPC   C1121095   5.021   0.331  10.771  0.1141  0.0702 -0.0300
  184SLPC  H11A21096   5.083   0.409  10.722 -0.8777  0.9343  0.0556
  184SLPC  H11B21097   5.031   0.257  10.689 -0.3851  1.4220 -1.3521
  184SLPC     P21098   5.224   0.222  10.890  0.6832  0.5451  0.2109
  184SLPC   O1321099   5.322   0.319  10.934 -0.6491 -0.6616 -1.0003
  184SLPC   O1421100   5.212   0.103  10.975  0.3169 -0.0832 -0.2034
  184SLPC   O1221101   5.079   0.286  10.896  0.3613  0.2336 -0.1530
  184SLPC   O1121102   5.252   0.185  10.743 -0.0003  0.4189 -0.4243
  184SLPC    C121103   5.344   0.250  10.654 -0.1756 -0.0300 -0.3965
  184SLPC    HA21104   5.338   0.356  10.686 -1.5834 -1.1059  3.4080
  184SLPC    HB21105   5.442   0.200  10.670 -0.9569 -0.9156  2.1004
  184SLPC    C221106   5.291   0.246  10.506 -0.5979  0.2029  0.1575
  184SLPC    HS21107   5.346   0.327  10.453 -0.2401 -0.8336 -1.1087
  184SLPC   O2121108   5.149   0.254  10.503 -0.0756 -0.8105 -0.1278
  184SLPC   C2121109   5.110   0.340  10.414 -0.6966  0.1771 -0.2370
  184SLPC   O2221110   5.180   0.377  10.318 -0.0345  0.0746 -0.6294
  184SLPC   C2221111   4.965   0.369  10.430 -1.0176 -0.0912  0.0798
  184SLPC   H2R21112   4.918   0.270  10.452  1.7143 -1.1470  1.6620
  184SLPC   H2S21113   4.960   0.447  10.508 -1.1142 -0.0769  0.0595
  184SLPC    C321114   5.331   0.105  10.457 -0.2219  0.0411 -0.5464
  184SLPC    HX21115   5.271   0.032  10.517 -1.3980  2.3202  1.2016
  184SLPC    HY21116   5.437   0.078  10.478  0.2872  0.2165 -2.7354
  184SLPC   O3121117   5.313   0.084  10.316 -0.2048 -0.0332  0.2543
  184SLPC   C3121118   5.392   0.162  10.253 -0.0371 -0.1683  0.3879
  184SLPC   O3221119   5.487   0.222  10.295 -0.2460  0.6512  0.4173
  184SLPC   C3221120   5.345   0.156  10.110 -0.2705  0.2150  0.1858
  184SLPC   H2X21121   5.241   0.195  10.115 -0.9812 -1.1913 -2.0492
  184SLPC   H2Y21122   5.334   0.052  10.073  0.7455 -0.1525  0.8942
  184SLPC   C2321123   4.897   0.413  10.300  0.6495 -0.0521 -0.3666
  184SLPC   H3R21124   4.789   0.402  10.321  0.4618  2.1709  0.0570
  184SLPC   H3S21125   4.906   0.353  10.207 -0.4473 -0.4939 -0.2075
  184SLPC   C2421126   4.909   0.557  10.261  0.3007  0.7760 -0.1318
  184SLPC   H4R21127   5.013   0.573  10.225  0.2107  0.9515 -0.3140
  184SLPC   H4S21128   4.885   0.623  10.347 -0.0781  0.7292 -0.2032
  184SLPC   C2521129   4.808   0.588  10.154  1.0086 -0.3706 -0.9212
  184SLPC   H5R21130   4.705   0.584  10.195  1.3152 -1.1859 -0.2144
  184SLPC   H5S21131   4.803   0.514  10.071 -2.9456 -1.0071 -0.3126
  184SLPC   C2621132   4.830   0.730  10.095  0.6146 -0.4440 -0.1641
  184SLPC   H6R21133   4.936   0.750  10.066 -0.2700  0.7472 -2.9648
  184SLPC   H6S21134   4.812   0.797  10.182 -0.4496  0.0821 -0.7708
  184SLPC   C2721135   4.725   0.757   9.980 -0.1826  0.5646 -0.2788
  184SLPC   H7R21136   4.661   0.844  10.011  0.4895  0.1721  2.4938
  184SLPC   H7S21137   4.650   0.676   9.968  0.2594  0.3083 -1.3375
  184SLPC   C2821138   4.787   0.787   9.840 -0.3196 -0.5830 -0.1172
  184SLPC   H8R21139   4.867   0.862   9.856  1.0799 -2.3367  1.5972
  184SLPC   H8S21140   4.709   0.844   9.785 -0.8257 -0.8337  0.3311
  184SLPC   C2921141   4.848   0.669   9.765  0.8449 -0.0653 -0.0366
  184SLPC   H9R21142   4.874   0.582   9.827  2.1750 -0.7382 -1.4425
  184SLPC  C21021143   4.875   0.666   9.635  0.7364  0.2210  0.0817
  184SLPC  H10R21144   4.911   0.575   9.587  1.8660  0.4162  0.5343
  184SLPC  C21121145   4.835   0.784   9.550 -0.6643 -0.5444  0.2428
  184SLPC  H11R21146   4.928   0.799   9.492  1.1728 -3.2846  2.1953
  184SLPC  H11S21147   4.812   0.884   9.594 -2.2425 -0.3100 -1.0483
  184SLPC  C21221148   4.715   0.753   9.459  0.0369  0.2239 -0.4093
  184SLPC  H12R21149   4.635   0.700   9.514  1.2712 -1.1336  0.1327
  184SLPC  C21321150   4.695   0.799   9.334  0.3017  0.4661 -0.2271
  184SLPC  H13R21151   4.605   0.765   9.281 -0.1054  0.1511  0.6598
  184SLPC  C21421152   4.793   0.874   9.255  0.2247 -0.1820  0.2819
  184SLPC  H14R21153   4.898   0.837   9.258  0.7319  1.1153 -0.3952
  184SLPC  H14S21154   4.800   0.976   9.301 -0.9017  0.3969 -0.7823
  184SLPC  C21521155   4.767   0.897   9.103 -0.0971 -0.1279  0.5630
  184SLPC  H15R21156   4.824   0.987   9.072  0.7195 -0.9119 -0.2488
  184SLPC  H15S21157   4.657   0.912   9.099  0.2271  2.8267  0.0146
  184SLPC  C21621158   4.817   0.773   9.018  0.5127  0.1263 -0.3414
  184SLPC  H16R21159   4.778   0.684   9.072 -1.5766 -0.3572 -2.4951
  184SLPC  H16S21160   4.928   0.769   9.023  0.6242  0.4545  5.8863
  184SLPC  C21721161   4.770   0.776   8.877  0.1601 -0.6462 -0.4712
  184SLPC  H17R21162   4.835   0.854   8.832 -0.8640  0.6635  0.2285
  184SLPC  H17S21163   4.664   0.807   8.866  0.0956 -0.7583 -0.1774
  184SLPC  C21821164   4.796   0.645   8.804  0.0784  0.3624 -0.3756
  184SLPC  H18R21165   4.780   0.657   8.694  1.5481 -1.1640 -0.7968
  184SLPC  H18S21166   4.735   0.556   8.830  1.2933 -0.6680 -0.9326
  184SLPC  H18T21167   4.900   0.610   8.820  0.1619 -0.6306 -2.6624
  184SLPC   C3321168   5.422   0.249  10.007 -0.4568 -0.5536 -0.3051
  184SLPC   H3X21169   5.460   0.337  10.063 -0.1553  1.1981 -3.0224
  184SLPC   H3Y21170   5.351   0.287   9.930  1.5734  0.6802 -1.6627
  184SLPC   C3421171   5.536   0.167   9.933 -0.8692  0.2067 -0.4438
  184SLPC   H4X21172   5.475   0.091   9.879 -1.6512  1.0314 -0.7439
  184SLPC   H4Y21173   5.603   0.121  10.009 -0.1365  0.6796 -0.8034
  184SLPC   C3521174   5.624   0.247   9.836  0.2081 -0.4523  0.4257
  184SLPC   H5X21175   5.704   0.180   9.798 -0.3203  0.2203 -2.0661
  184SLPC   H5Y21176   5.675   0.321   9.900 -0.9984  0.6588  0.1485
  184SLPC   C3621177   5.562   0.321   9.722 -0.0718 -0.1027 -0.9627
  184SLPC   H6X21178   5.637   0.389   9.676 -1.5245  2.9503  0.9225
  184SLPC   H6Y21179   5.477   0.384   9.753 -1.5006 -1.3215 -2.2512
  184SLPC   C3721180   5.507   0.236   9.609  0.1339  0.2911  1.0882
  184SLPC   H7X21181   5.431   0.159   9.634 -1.9930  2.3135  1.1796
  184SLPC   H7Y21182   5.591   0.181   9.562  1.1913  1.0346  2.0340
  184SLPC   C3821183   5.441   0.327   9.500 -0.3927  0.0188 -0.1364
  184SLPC   H8X21184   5.348   0.366   9.545 -0.1542  0.8308 -0.3389
  184SLPC   H8Y21185   5.415   0.257   9.418  1.9720 -1.0531 -0.0571
  184SLPC   C3921186   5.523   0.441   9.438  0.2007 -0.7329  0.4259
  184SLPC   H9X21187   5.626   0.406   9.415  0.9073  0.5792  1.4399
  184SLPC   H9Y21188   5.539   0.523   9.511  1.4130  0.0302 -0.6542
  184SLPC  C31021189   5.462   0.493   9.309  0.2152  0.3415 -0.1783
  184SLPC  H10X21190   5.363   0.539   9.327  0.7395  0.8237  1.7314
  184SLPC  H10Y21191   5.461   0.397   9.253  0.3672 -0.8264  1.7466
  184SLPC  C31121192   5.552   0.591   9.229 -0.0347 -0.1157  0.4093
  184SLPC  H11X21193   5.656   0.554   9.219  0.2786  0.7498  0.3243
  184SLPC  H11Y21194   5.566   0.691   9.276  1.1441 -0.0165 -0.1097
  184SLPC  C31221195   5.499   0.628   9.085  0.0547 -0.3215 -0.3853
  184SLPC  H12X21196   5.402   0.674   9.114  0.4372 -0.1272  0.6054
  184SLPC  H12Y21197   5.484   0.529   9.037  0.8478 -0.2555 -0.7870
  184SLPC  C31321198   5.589   0.731   9.014  0.0770  0.4178 -0.3881
  184SLPC  H13X21199   5.695   0.703   9.031  0.0503 -0.6516 -1.8149
  184SLPC  H13Y21200   5.565   0.825   9.069  1.6114  0.5672  0.0525
  184SLPC  C31421201   5.580   0.736   8.861  0.5918  0.4140  0.3169
  184SLPC  H14X21202   5.477   0.708   8.827  0.7817 -0.1335  0.1740
  184SLPC  H14Y21203   5.639   0.652   8.817 -2.8377 -0.7499 -2.6195
  184SLPC  C31521204   5.608   0.861   8.793  0.4261 -0.4267  0.3914
  184SLPC  H15X21205   5.716   0.886   8.798  0.4754  0.4853 -2.7272
  184SLPC  H15Y21206   5.556   0.943   8.847  0.6385 -0.5530  0.7890
  184SLPC  C31621207   5.574   0.862   8.645  0.5884 -0.1531  0.6126
  184SLPC  H16X21208   5.468   0.893   8.642  1.0919  1.5744 -1.3771
  184SLPC  H16Y21209   5.601   0.765   8.597  1.5394 -0.5225  1.8329
  184SLPC  C31721210   5.646   0.976   8.571 -0.1350  0.1817 -0.6595
  184SLPC  H17X21211   5.754   0.965   8.591 -0.2763  0.8338  0.6307
  184SLPC  H17Y21212   5.616   1.076   8.611 -0.2327 -1.1622  2.9836
  184SLPC  C31821213   5.615   0.969   8.425 -0.6023  0.4396 -0.7498
  184SLPC  H18X21214   5.600   0.860   8.409  1.2865 -0.1898  1.3465
  184SLPC  H18Y21215   5.698   1.014   8.366 -0.3575  2.9481  1.3275
  184SLPC  H18Z21216   5.531   1.035   8.395 -0.0017  0.6516 -2.0870
  185SLPC     N21217   1.995   5.538   6.264 -0.2203  0.0046 -0.5157
  185SLPC   C1321218   2.143   5.527   6.247  0.1008  0.5636  0.0304
  185SLPC  H13A21219   2.179   5.438   6.296  0.4735  1.8568  2.2255
  185SLPC  H13B21220   2.171   5.520   6.143 -0.9113 -0.1635 -0.2029
  185SLPC  H13C21221   2.196   5.611   6.290 -2.1195  1.8153  0.4724
  185SLPC   C1421222   1.935   5.426   6.190  0.1432 -0.5041 -0.1356
  185SLPC  H14A21223   1.966   5.333   6.235  1.5088  0.5020  1.0990
  185SLPC  H14B21224   1.827   5.430   6.195  0.1698 -1.2447  1.6881
  185SLPC  H14C21225   1.962   5.422   6.085  1.1848  0.6312  0.0544
  185SLPC   C1521226   1.946   5.664   6.197  0.3311 -0.1019  0.1193
  185SLPC  H15A21227   1.980   5.662   6.095 -0.8159  0.4815 -0.2867
  185SLPC  H15B21228   1.840   5.678   6.188  0.5810  2.5453  0.4453
  185SLPC  H15C21229   1.964   5.754   6.255 -1.4971  0.2889  0.1143
  185SLPC   C1221230   1.960   5.531   6.412  0.0149 -0.1114  0.5891
  185SLPC  H12A21231   1.854   5.554   6.417 -0.0233  0.0080 -0.4631
  185SLPC  H12B21232   2.011   5.604   6.473  0.0864  0.4754 -0.1657
  185SLPC   C1121233   1.986   5.386   6.475 -0.2495  0.2810 -0.8698
  185SLPC  H11A21234   1.958   5.407   6.580 -2.1921 -2.5964 -0.7134
  185SLPC  H11B21235   2.095   5.363   6.477  0.2955  2.2671  3.2799
  185SLPC     P21236   1.759   5.264   6.469 -0.1088 -0.1775 -0.1661
  185SLPC   O1321237   1.687   5.393   6.461  0.4011 -0.0508  0.0020
  185SLPC   O1421238   1.703   5.150   6.395  0.2958  0.2519 -0.6714
  185SLPC   O1221239   1.913   5.279   6.423 -0.5682 -0.0952 -0.6901
  185SLPC   O1121240   1.770   5.220   6.621  0.4433  0.1327  0.0059
  185SLPC    C121241   1.814   5.095   6.664  0.2442  0.0088  0.6930
  185SLPC    HA21242   1.723   5.030   6.670  0.2014 -0.3818 -2.3512
  185SLPC    HB21243   1.878   5.031   6.599 -2.9713 -2.4378 -0.3838
  185SLPC    C221244   1.883   5.105   6.802 -0.3837 -1.1147  0.3334
  185SLPC    HS21245   1.916   5.003   6.830  1.0913 -0.5866  0.6045
  185SLPC   O2121246   1.800   5.162   6.898 -0.6110 -0.4877 -0.1381
  185SLPC   C2121247   1.715   5.075   6.943 -0.7518  0.0143 -0.0396
  185SLPC   O2221248   1.691   4.965   6.898 -0.2480  0.9346 -0.3048
  185SLPC   C2221249   1.644   5.140   7.061 -0.3022 -0.0243  0.0861
  185SLPC   H2R21250   1.710   5.218   7.106  0.1078  0.1104 -0.7287
  185SLPC   H2S21251   1.551   5.188   7.022  0.2145 -0.1003 -1.2858
  185SLPC    C321252   2.002   5.198   6.797  0.0259  0.7314  0.0575
  185SLPC    HX21253   1.975   5.303   6.776  1.1421  1.3188  1.3753
  185SLPC    HY21254   2.077   5.160   6.724  1.9683  1.9704  1.3001
  185SLPC   O3121255   2.055   5.200   6.934 -0.0663  0.3973 -0.0958
  185SLPC   C3121256   2.131   5.094   6.962 -0.3300  0.2723 -0.0025
  185SLPC   O3221257   2.150   5.000   6.889 -0.3427 -0.4047 -0.6453
  185SLPC   C3221258   2.176   5.087   7.111  0.4033  0.1980  0.5797
  185SLPC   H2X21259   2.280   5.126   7.121  0.8352 -0.9946  0.8782
  185SLPC   H2Y21260   2.174   4.978   7.133  0.3109  0.1241  0.2205
  185SLPC   C2321261   1.611   5.026   7.166 -0.7785  0.0766  0.6332
  185SLPC   H3R21262   1.704   4.996   7.218 -1.6930 -1.7387  1.3199
  185SLPC   H3S21263   1.561   4.941   7.115  1.2339  0.4758 -2.2594
  185SLPC   C2421264   1.511   5.088   7.265 -0.4318 -0.1844 -0.6065
  185SLPC   H4R21265   1.488   5.022   7.352 -1.5596  0.5817 -0.2954
  185SLPC   H4S21266   1.416   5.116   7.215 -0.8878 -0.5226  0.0497
  185SLPC   C2521267   1.562   5.221   7.336 -0.4417  0.5833 -0.0841
  185SLPC   H5R21268   1.561   5.309   7.268  0.0114  1.6788  1.2758
  185SLPC   H5S21269   1.669   5.195   7.353 -0.8310 -1.3532 -0.3063
  185SLPC   C2621270   1.487   5.253   7.468  0.0536 -0.3332 -0.2813
  185SLPC   H6R21271   1.522   5.349   7.511  2.2037 -1.6793  1.2038
  185SLPC   H6S21272   1.530   5.176   7.536  1.9921  1.5279  0.7302
  185SLPC   C2721273   1.336   5.242   7.468  0.3955 -0.2034 -0.0456
  185SLPC   H7R21274   1.306   5.144   7.425  0.8000 -1.1800  1.8017
  185SLPC   H7S21275   1.300   5.329   7.409  1.0163  0.3957  0.4414
  185SLPC   C2821276   1.277   5.239   7.610  0.1239 -0.1575 -0.5215
  185SLPC   H8R21277   1.345   5.179   7.675 -2.2652  0.2755  2.6663
  185SLPC   H8S21278   1.184   5.178   7.600  0.3452 -0.8532  1.1975
  185SLPC   C2921279   1.262   5.377   7.674  1.5599 -0.1641  0.9665
  185SLPC   H9R21280   1.306   5.456   7.611 -0.6670  1.1496  0.9467
  185SLPC  C21021281   1.206   5.402   7.796  0.3377 -0.4915  0.3181
  185SLPC  H10R21282   1.206   5.508   7.825 -1.3212 -0.1695 -0.7485
  185SLPC  C21121283   1.148   5.303   7.892  0.2343 -0.6861  0.1159
  185SLPC  H11R21284   1.188   5.314   7.995 -1.2894  0.3317  0.6311
  185SLPC  H11S21285   1.169   5.199   7.857  2.4792 -0.0254 -0.6350
  185SLPC  C21221286   0.993   5.316   7.900 -0.2389 -0.1144  0.3252
  185SLPC  H12R21287   0.950   5.366   7.812  0.3111 -0.2415 -0.0179
  185SLPC  C21321288   0.912   5.284   8.003 -0.0592  0.6941  0.3603
  185SLPC  H13R21289   0.803   5.294   7.991 -0.3376 -1.0955  1.0888
  185SLPC  C21421290   0.961   5.219   8.129  0.0898 -0.2189 -0.1960
  185SLPC  H14R21291   1.019   5.127   8.106 -0.9143 -0.7213 -0.8078
  185SLPC  H14S21292   0.869   5.173   8.172  0.2307 -1.5955 -1.2915
  185SLPC  C21521293   1.013   5.316   8.230 -0.6329 -0.3767  0.3963
  185SLPC  H15R21294   0.941   5.401   8.237 -0.3139  0.0555 -1.2441
  185SLPC  H15S21295   1.110   5.359   8.197 -0.6235  0.0901  1.0059
  185SLPC  C21621296   1.037   5.264   8.371 -0.4000  0.5574  0.0970
  185SLPC  H16R21297   1.103   5.175   8.377 -1.7862 -0.4756  0.5249
  185SLPC  H16S21298   0.941   5.241   8.422  0.5087 -1.3517  1.0553
  185SLPC  C21721299   1.106   5.378   8.456 -0.4627  0.5956 -0.8401
  185SLPC  H17R21300   1.213   5.389   8.428 -0.1925  0.2240 -0.0004
  185SLPC  H17S21301   1.109   5.342   8.561 -0.4348  1.2270 -0.6191
  185SLPC  C21821302   1.039   5.515   8.455  0.3808 -0.0383  0.3662
  185SLPC  H18R21303   1.099   5.587   8.516  1.7095 -0.9194  0.1480
  185SLPC  H18S21304   0.940   5.509   8.503  0.6253 -0.0159  0.8813
  185SLPC  H18T21305   1.037   5.546   8.348  3.3529  0.6315  0.4101
  185SLPC   C3321306   2.077   5.167   7.204 -0.5224 -0.1125 -0.1950
  185SLPC   H3X21307   2.101   5.122   7.303 -2.3323  0.8090  0.7285
  185SLPC   H3Y21308   1.970   5.149   7.183 -1.0168  1.0903  1.1089
  185SLPC   C3421309   2.104   5.314   7.217  0.2184  0.3818 -0.5765
  185SLPC   H4X21310   2.095   5.364   7.118  0.9562 -0.8601 -1.2992
  185SLPC   H4Y21311   2.201   5.354   7.255  0.6687 -0.8940 -0.3326
  185SLPC   C3521312   1.989   5.383   7.303 -0.0672 -0.2409  0.4734
  185SLPC   H5X21313   1.890   5.379   7.252 -1.3964 -0.4976  2.9061
  185SLPC   H5Y21314   2.004   5.492   7.312 -4.3592  0.5039  0.5249
  185SLPC   C3621315   1.984   5.340   7.455 -0.7683 -0.4310  0.2320
  185SLPC   H6X21316   2.078   5.375   7.504 -1.0960  2.0013 -0.7312
  185SLPC   H6Y21317   1.967   5.231   7.465 -0.5751 -0.7371 -2.1662
  185SLPC   C3721318   1.871   5.417   7.531  1.1186 -0.0090  0.3954
  185SLPC   H7X21319   1.774   5.366   7.512  0.4241  0.7920  1.6025
  185SLPC   H7Y21320   1.884   5.521   7.493  2.6789  0.1254  1.1993
  185SLPC   C3821321   1.888   5.427   7.684 -0.3981  0.2659 -0.8575
  185SLPC   H8X21322   1.800   5.473   7.734 -0.1393  1.5548 -1.5373
  185SLPC   H8Y21323   1.980   5.486   7.707  0.7360 -1.6549 -0.1502
  185SLPC   C3921324   1.905   5.293   7.766  0.4793  0.5165  0.0515
  185SLPC   H9X21325   1.905   5.320   7.874  0.2845  1.3995 -0.1590
  185SLPC   H9Y21326   2.003   5.247   7.745  0.1847 -1.0275  1.7998
  185SLPC  C31021327   1.801   5.183   7.734  0.0017  0.0618 -0.2050
  185SLPC  H10X21328   1.842   5.095   7.788 -2.0175 -1.2572 -0.6998
  185SLPC  H10Y21329   1.797   5.164   7.624 -4.1780  0.1484 -0.2032
  185SLPC  C31121330   1.663   5.216   7.778  0.0740  0.0294 -0.1742
  185SLPC  H11X21331   1.597   5.140   7.729  0.5369 -0.9227  0.6487
  185SLPC  H11Y21332   1.613   5.303   7.729 -0.1211  1.5483  2.5482
  185SLPC  C31221333   1.639   5.214   7.930 -1.0979 -0.9018  0.1885
  185SLPC  H12X21334   1.706   5.281   7.987 -1.6286 -0.4856  0.3371
  185SLPC  H12Y21335   1.653   5.109   7.964  0.9062  0.4987  4.3298
  185SLPC  C31321336   1.501   5.255   7.957  0.4526 -0.5346 -0.6262
  185SLPC  H13X21337   1.432   5.193   7.897  0.0986  0.7100 -1.5676
  185SLPC  H13Y21338   1.484   5.361   7.926 -0.0096 -0.8681 -1.5362
  185SLPC  C31421339   1.463   5.243   8.104  0.0869  0.2580  0.8549
  185SLPC  H14X21340   1.353   5.252   8.116  0.1919 -0.4678  2.8465
  185SLPC  H14Y21341   1.512   5.331   8.150 -0.5794  0.3871  1.3437
  185SLPC  C31521342   1.491   5.107   8.162 -0.7451 -0.1795 -0.9903
  185SLPC  H15X21343   1.601   5.094   8.170 -0.7644 -1.0925 -2.0035
  185SLPC  H15Y21344   1.458   5.027   8.094 -0.8348  0.8549 -2.2071
  185SLPC  C31621345   1.416   5.083   8.289 -0.4111  0.0662 -0.3379
  185SLPC  H16X21346   1.441   4.980   8.321  1.9553  0.5883 -0.3148
  185SLPC  H16Y21347   1.309   5.104   8.265 -0.4939  1.8559  1.3024
  185SLPC  C31721348   1.460   5.180   8.398  0.2307 -0.3450  0.2357
  185SLPC  H17X21349   1.428   5.276   8.353  2.6433  0.0474 -0.7676
  185SLPC  H17Y21350   1.571   5.175   8.404  0.3147 -2.1528 -1.5829
  185SLPC  C31821351   1.395   5.150   8.529  0.9256 -0.1778  0.0883
  185SLPC  H18X21352   1.428   5.224   8.606  2.1718  0.1593 -0.7395
  185SLPC  H18Y21353   1.430   5.048   8.558 -1.5907 -0.9728  0.5814
  185SLPC  H18Z21354   1.284   5.149   8.534  0.8734 -1.8075 -0.6978
  186SLPC     N21355   3.055   4.639   6.129 -0.0655 -0.0818  0.5465
  186SLPC   C1321356   2.997   4.769   6.086  0.0466 -0.2499  0.0995
  186SLPC  H13A21357   2.988   4.763   5.978 -0.0817  1.8349 -0.0469
  186SLPC  H13B21358   2.898   4.783   6.125  0.0833 -0.5553  0.3002
  186SLPC  H13C21359   3.056   4.859   6.097 -0.2122  0.2822 -2.2212
  186SLPC   C1421360   3.185   4.639   6.059 -0.3359  0.0475 -0.0547
  186SLPC  H14A21361   3.229   4.738   6.051  0.9795 -0.4980  0.2238
  186SLPC  H14B21362   3.256   4.573   6.107 -0.9217 -0.9134 -0.4820
  186SLPC  H14C21363   3.172   4.601   5.959 -1.5594 -0.5842  0.3300
  186SLPC   C1521364   2.972   4.533   6.069  0.1537  0.1954  0.4141
  186SLPC  H15A21365   3.015   4.434   6.073 -2.7878 -1.1955  0.6981
  186SLPC  H15B21366   2.875   4.525   6.116  1.2952  0.9286  3.0558
  186SLPC  H15C21367   2.962   4.535   5.962  0.2850 -1.6828  0.3288
  186SLPC   C1221368   3.066   4.634   6.280 -0.0927  0.4715  0.0068
  186SLPC  H12A21369   3.114   4.723   6.316 -0.2582  1.1805 -1.4895
  186SLPC  H12B21370   3.125   4.550   6.313 -1.0508 -1.4111 -2.6867
  186SLPC   C1121371   2.930   4.635   6.358 -0.1959 -0.3833  0.6681
  186SLPC  H11A21372   2.872   4.728   6.345 -0.1983 -0.4734  0.0287
  186SLPC  H11B21373   2.957   4.627   6.466 -1.2749 -0.6243  0.9336
  186SLPC     P21374   2.698   4.515   6.333 -0.5951 -0.4336  0.5903
  186SLPC   O1321375   2.648   4.620   6.237  0.1542  0.0375 -0.0100
  186SLPC   O1421376   2.655   4.374   6.309 -0.6125  0.1760 -0.0725
  186SLPC   O1221377   2.857   4.522   6.326  0.1459 -0.3574 -1.0825
  186SLPC   O1121378   2.660   4.552   6.480 -0.3997 -0.2279 -0.1991
  186SLPC    C121379   2.728   4.509   6.601  0.0641 -0.0628 -0.4760
  186SLPC    HA21380   2.657   4.450   6.663  0.4090 -1.3530 -1.2704
  186SLPC    HB21381   2.812   4.443   6.573  0.9210  0.1670  1.4089
  186SLPC    C221382   2.775   4.629   6.685  0.2625  0.2476  0.1744
  186SLPC    HS21383   2.823   4.695   6.608 -0.3261  0.1265 -0.3002
  186SLPC   O2121384   2.871   4.572   6.785  0.1736 -0.3935  0.5100
  186SLPC   C2121385   2.929   4.669   6.853  0.0955  0.4461  0.5230
  186SLPC   O2221386   2.935   4.785   6.821  0.0742 -0.0114 -0.0698
  186SLPC   C2221387   2.998   4.613   6.974  0.0567 -0.0093 -0.6253
  186SLPC   H2R21388   2.965   4.507   6.970 -0.7106  0.2403 -1.2709
  186SLPC   H2S21389   3.108   4.621   6.970  0.3067 -0.9032  2.4550
  186SLPC    C321390   2.659   4.718   6.747  0.4548  0.3827 -0.0549
  186SLPC    HX21391   2.589   4.751   6.667 -0.9419 -2.7544 -0.2818
  186SLPC    HY21392   2.706   4.806   6.796  0.7446  0.2930 -0.1724
  186SLPC   O3121393   2.591   4.648   6.851 -0.2564 -0.0537 -0.0235
  186SLPC   C3121394   2.476   4.590   6.839  0.2053  0.4772  0.7140
  186SLPC   O3221395   2.398   4.595   6.743 -0.2059 -0.0074 -0.2850
  186SLPC   C3221396   2.445   4.508   6.967 -0.1009  0.0354  0.0743
  186SLPC   H2X21397   2.392   4.586   7.026  0.0311  1.8618 -2.1110
  186SLPC   H2Y21398   2.540   4.484   7.020 -0.7701 -1.4299  0.6717
  186SLPC   C2321399   2.953   4.663   7.112  0.0694 -0.0367 -0.8856
  186SLPC   H3R21400   2.983   4.770   7.112  0.9303 -0.1893  2.1352
  186SLPC   H3S21401   3.014   4.615   7.190 -0.4339  2.7444  1.3887
  186SLPC   C2421402   2.797   4.638   7.117  0.0535 -0.0552  0.8949
  186SLPC   H4R21403   2.778   4.536   7.077  1.0721  1.2796 -3.5796
  186SLPC   H4S21404   2.739   4.700   7.046  2.1942  2.2125  0.9883
  186SLPC   C2521405   2.747   4.641   7.261  0.1261  0.1947 -0.2957
  186SLPC   H5R21406   2.780   4.744   7.287 -2.0198  1.7111 -2.9476
  186SLPC   H5S21407   2.795   4.566   7.328  0.0635  2.3492  2.2857
  186SLPC   C2621408   2.596   4.634   7.273 -0.0553 -0.3910 -0.4187
  186SLPC   H6R21409   2.566   4.533   7.238 -2.3165 -0.0361  0.3104
  186SLPC   H6S21410   2.555   4.718   7.212  1.3419  1.0469  0.5383
  186SLPC   C2721411   2.568   4.654   7.424 -0.1926 -0.7672 -0.4729
  186SLPC   H7R21412   2.618   4.746   7.459  0.5462 -0.9701 -0.9610
  186SLPC   H7S21413   2.621   4.569   7.471 -0.1050 -0.5594 -0.1933
  186SLPC   C2821414   2.419   4.646   7.456  0.3613  0.5102  0.0468
  186SLPC   H8R21415   2.381   4.555   7.405 -0.3684  0.2368  1.0457
  186SLPC   H8S21416   2.372   4.734   7.407  1.1387  0.2844 -1.1458
  186SLPC   C2921417   2.378   4.645   7.594  0.0182 -0.2801 -0.1872
  186SLPC   H9R21418   2.405   4.729   7.661 -3.4547 -0.4314  1.5939
  186SLPC  C21021419   2.310   4.551   7.659  0.0426 -0.5350  0.9687
  186SLPC  H10R21420   2.282   4.569   7.764 -2.4289  1.9121  0.0011
  186SLPC  C21121421   2.243   4.424   7.605 -0.4452 -0.1364 -1.0022
  186SLPC  H11R21422   2.256   4.347   7.684 -0.1422  1.4974  0.6068
  186SLPC  H11S21423   2.294   4.377   7.519 -1.9709 -1.6957 -1.1246
  186SLPC  C21221424   2.093   4.441   7.563  0.5668 -0.2142  0.0218
  186SLPC  H12R21425   2.083   4.455   7.454  0.9713 -0.0741  0.0040
  186SLPC  C21321426   1.979   4.437   7.636  0.2342  0.4130  0.1206
  186SLPC  H13R21427   1.887   4.444   7.576 -0.1864 -2.8198  0.2259
  186SLPC  C21421428   1.966   4.413   7.789 -0.2348  0.5961  0.1679
  186SLPC  H14R21429   2.057   4.441   7.846  0.4736 -0.6057 -0.3229
  186SLPC  H14S21430   1.934   4.309   7.810 -0.9614  0.6208 -0.7883
  186SLPC  C21521431   1.861   4.515   7.832  0.4974  0.3380  0.0237
  186SLPC  H15R21432   1.762   4.488   7.789  0.9002  0.5696 -1.0652
  186SLPC  H15S21433   1.880   4.622   7.810  1.4799 -0.2035 -1.9483
  186SLPC  C21621434   1.846   4.510   7.983 -0.4225 -0.0868 -0.1855
  186SLPC  H16R21435   1.945   4.546   8.019  0.0325 -0.6184 -0.8914
  186SLPC  H16S21436   1.837   4.407   8.023 -1.0638 -0.1654 -0.5239
  186SLPC  C21721437   1.732   4.599   8.036 -0.0641  0.5664 -0.1794
  186SLPC  H17R21438   1.728   4.568   8.143 -3.3360  0.4699 -0.2476
  186SLPC  H17S21439   1.647   4.566   7.973  0.7782 -1.9743 -0.0979
  186SLPC  C21821440   1.752   4.756   8.038  0.3454 -0.3133  0.1109
  186SLPC  H18R21441   1.845   4.781   8.092 -0.7392 -1.5846  2.7778
  186SLPC  H18S21442   1.674   4.805   8.101  1.9331  2.5813  0.0002
  186SLPC  H18T21443   1.755   4.803   7.938 -0.6398 -1.3833 -0.4578
  186SLPC   C3321444   2.343   4.391   6.958  0.1293 -0.1557  1.2320
  186SLPC   H3X21445   2.387   4.319   6.886  1.2214  1.3895  0.3018
  186SLPC   H3Y21446   2.248   4.421   6.909  0.6988 -2.4085 -1.4862
  186SLPC   C3421447   2.308   4.322   7.095 -1.0361 -0.3262 -0.7396
  186SLPC   H4X21448   2.256   4.391   7.164 -0.6156  0.8816 -1.6059
  186SLPC   H4Y21449   2.391   4.283   7.157  0.0516  2.7874 -0.0770
  186SLPC   C3521450   2.220   4.203   7.064  0.5141 -0.4076  0.2195
  186SLPC   H5X21451   2.281   4.120   7.023 -0.8695 -2.1523  1.5400
  186SLPC   H5Y21452   2.146   4.242   6.991  1.5995  1.4460  0.0455
  186SLPC   C3621453   2.143   4.142   7.179  0.2080  0.4183  0.4191
  186SLPC   H6X21454   2.220   4.129   7.257  0.4514 -1.1509 -0.0469
  186SLPC   H6Y21455   2.107   4.039   7.156  0.7462  0.3609 -0.2279
  186SLPC   C3721456   2.021   4.223   7.223 -0.0637 -0.6109  0.0437
  186SLPC   H7X21457   1.965   4.252   7.132 -0.4878  0.9853  0.7850
  186SLPC   H7Y21458   2.068   4.314   7.266 -0.0848  0.1514 -1.5020
  186SLPC   C3821459   1.927   4.152   7.320  0.1220  0.0276 -0.6517
  186SLPC   H8X21460   1.986   4.126   7.411 -1.4158  1.1266  0.7019
  186SLPC   H8Y21461   1.902   4.061   7.261  1.6522  0.6117 -2.3360
  186SLPC   C3921462   1.806   4.222   7.362  0.8354  0.1582  0.2871
  186SLPC   H9X21463   1.738   4.221   7.275  0.1444  2.3041  0.7355
  186SLPC   H9Y21464   1.820   4.330   7.385 -1.0866  0.2091  1.4178
  186SLPC  C31021465   1.739   4.143   7.476  0.1295  0.8070 -0.8120
  186SLPC  H10X21466   1.823   4.121   7.546  0.6400  0.0997 -1.6279
  186SLPC  H10Y21467   1.716   4.038   7.450  0.4870  0.4715  0.1938
  186SLPC  C31121468   1.627   4.223   7.545 -0.3822 -0.2294 -0.2149
  186SLPC  H11X21469   1.538   4.236   7.479 -0.8829 -1.0067  0.2996
  186SLPC  H11Y21470   1.659   4.327   7.566  0.1049 -0.7282  1.6375
  186SLPC  C31221471   1.577   4.158   7.672  0.6559  0.1318  0.0086
  186SLPC  H12X21472   1.665   4.119   7.728  1.7642  0.1955 -1.6143
  186SLPC  H12Y21473   1.501   4.080   7.653 -0.8274  0.7608  2.7432
  186SLPC  C31321474   1.521   4.270   7.761  0.7076  0.6693 -0.0815
  186SLPC  H13X21475   1.432   4.308   7.707 -0.1164  2.7010  2.4864
  186SLPC  H13Y21476   1.591   4.356   7.767  1.3143  0.3423 -1.9297
  186SLPC  C31421477   1.484   4.217   7.906  0.8123  0.2951 -0.1456
  186SLPC  H14X21478   1.576   4.172   7.950  0.6000  0.3797  0.3950
  186SLPC  H14Y21479   1.395   4.150   7.899 -0.0945  1.1840  1.8309
  186SLPC  C31521480   1.457   4.326   8.012 -0.1030 -0.1309 -0.8792
  186SLPC  H15X21481   1.389   4.406   7.975 -0.5010 -0.5250 -1.0051
  186SLPC  H15Y21482   1.557   4.372   8.028 -0.8500  1.1124  0.4753
  186SLPC  C31621483   1.392   4.276   8.141  0.1607 -0.3748  0.2310
  186SLPC  H16X21484   1.434   4.181   8.182  0.4459  0.1262  1.1126
  186SLPC  H16Y21485   1.282   4.266   8.123  0.1695 -0.9684  0.4974
  186SLPC  C31721486   1.409   4.353   8.270 -0.5052  0.1011 -0.4212
  186SLPC  H17X21487   1.330   4.324   8.342 -0.6080 -0.0359 -0.5895
  186SLPC  H17Y21488   1.411   4.463   8.252 -2.0028  0.3499  0.7144
  186SLPC  C31821489   1.539   4.317   8.348 -0.0251  0.1794 -0.4949
  186SLPC  H18X21490   1.620   4.338   8.275 -0.4570  0.6658 -0.8461
  186SLPC  H18Y21491   1.557   4.212   8.379  1.1389  0.8982  1.4554
  186SLPC  H18Z21492   1.558   4.382   8.436 -1.7642  1.2419 -0.8558
  187SLPC     N21493   5.874   1.914   6.143  0.1064 -0.6861  0.1114
  187SLPC   C1321494   5.764   1.834   6.088  0.5681 -0.9182  1.1045
  187SLPC  H13A21495   5.693   1.897   6.037  2.9546  1.2927  0.3065
  187SLPC  H13B21496   5.803   1.762   6.018  2.1023  1.2142 -0.3574
  187SLPC  H13C21497   5.702   1.787   6.164 -1.4709 -1.1328 -0.6018
  187SLPC   C1421498   5.941   1.963   6.014  0.3254  0.0641 -0.6938
  187SLPC  H14A21499   5.869   2.025   5.962 -1.2901 -0.5125  0.7734
  187SLPC  H14B21500   6.026   2.025   6.039  0.1148 -0.0986  0.4689
  187SLPC  H14C21501   5.969   1.881   5.950 -2.0098 -1.4794  0.1438
  187SLPC   C1521502   5.976   1.832   6.224 -0.3525 -0.2040  0.3102
  187SLPC  H15A21503   6.059   1.890   6.262 -0.1102 -0.5422  0.3025
  187SLPC  H15B21504   5.923   1.786   6.307  0.4267 -1.9716 -0.1276
  187SLPC  H15C21505   6.005   1.750   6.161 -2.4801 -1.4952  0.8805
  187SLPC   C1221506   5.821   2.035   6.212  0.0694 -0.1085  0.6458
  187SLPC  H12A21507   5.750   2.080   6.144  1.6371  1.2755 -0.1394
  187SLPC  H12B21508   5.897   2.109   6.228  3.1561 -2.4858 -1.8051
  187SLPC   C1121509   5.746   2.006   6.347 -0.0109  0.4725  0.1146
  187SLPC  H11A21510   5.831   1.998   6.418 -0.0422  1.0334  0.2213
  187SLPC  H11B21511   5.679   1.919   6.330  1.6888 -1.0646  0.9483
  187SLPC     P21512   5.714   2.261   6.401 -0.3051 -0.4094 -0.1326
  187SLPC   O1321513   5.843   2.301   6.334 -0.2679  0.0647 -0.3673
  187SLPC   O1421514   5.592   2.348   6.384 -0.2906 -0.7123 -0.6611
  187SLPC   O1221515   5.666   2.115   6.359 -0.1329  0.0638  0.5073
  187SLPC   O1121516   5.740   2.264   6.559  0.2710  0.2365 -0.1059
  187SLPC    C121517   5.661   2.179   6.649  0.5176 -0.0173  0.0957
  187SLPC    HA21518   5.661   2.072   6.618 -1.6582 -0.3593  1.0576
  187SLPC    HB21519   5.707   2.182   6.750  1.7735  0.7115 -0.4647
  187SLPC    C221520   5.519   2.235   6.685 -0.4891 -0.2533  0.0300
  187SLPC    HS21521   5.474   2.236   6.583 -1.4782 -2.2660  0.3966
  187SLPC   O2121522   5.527   2.372   6.732 -0.3168  0.4341 -0.2840
  187SLPC   C2121523   5.415   2.431   6.769 -0.3306 -0.1397 -0.5795
  187SLPC   O2221524   5.301   2.398   6.751  0.2389 -0.0986  0.6239
  187SLPC   C2221525   5.445   2.549   6.868 -0.3061  0.0825  0.0287
  187SLPC   H2R21526   5.549   2.584   6.851 -0.4673 -0.0867 -1.4052
  187SLPC   H2S21527   5.367   2.627   6.853 -0.9605 -0.4387  0.6152
  187SLPC    C321528   5.453   2.131   6.778  0.9025  0.1788 -0.2986
  187SLPC    HX21529   5.426   2.037   6.725  0.0210  1.2137 -1.7458
  187SLPC    HY21530   5.352   2.165   6.808  1.2571  0.2436  0.8619
  187SLPC   O3121531   5.519   2.100   6.902 -0.2326  0.6360  0.3722
  187SLPC   C3121532   5.579   1.981   6.904  0.5251 -0.4806 -0.9055
  187SLPC   O3221533   5.586   1.908   6.810 -0.1860  0.3183 -0.4847
  187SLPC   C3221534   5.643   1.963   7.044 -0.6871  0.4136 -0.4119
  187SLPC   H2X21535   5.734   1.900   7.032 -0.4686  0.9625 -1.7884
  187SLPC   H2Y21536   5.582   1.896   7.110 -0.4480  1.0436  0.4574
  187SLPC   C2321537   5.434   2.493   7.009 -0.9938 -0.8106  0.4172
  187SLPC   H3R21538   5.509   2.413   7.025 -0.9120 -0.3399  2.6179
  187SLPC   H3S21539   5.338   2.443   7.034 -0.8538 -1.5463 -0.4637
  187SLPC   C2421540   5.470   2.602   7.111 -0.1435 -0.1207 -0.0103
  187SLPC   H4R21541   5.402   2.688   7.092 -0.5901 -0.3649  0.4372
  187SLPC   H4S21542   5.573   2.643   7.107  0.5406 -0.9642  4.0653
  187SLPC   C2521543   5.437   2.561   7.254  0.0041 -0.2096  0.3909
  187SLPC   H5R21544   5.524   2.495   7.276  0.0636 -0.8466 -1.5334
  187SLPC   H5S21545   5.339   2.508   7.260 -0.5353  0.8373  1.3402
  187SLPC   C2621546   5.419   2.679   7.342  0.3409 -1.0659 -0.5422
  187SLPC   H6R21547   5.329   2.736   7.309  0.0039 -2.1142 -1.4893
  187SLPC   H6S21548   5.508   2.745   7.326  0.4269 -1.0233  0.1170
  187SLPC   C2721549   5.402   2.635   7.487 -0.2957 -0.6620 -0.1962
  187SLPC   H7R21550   5.475   2.555   7.512 -2.3566 -2.7604 -0.4954
  187SLPC   H7S21551   5.300   2.593   7.478 -1.5456  1.7873  1.3353
  187SLPC   C2821552   5.423   2.750   7.582 -0.1267  0.0259 -0.2226
  187SLPC   H8R21553   5.367   2.837   7.540  0.8767  0.1495 -1.3733
  187SLPC   H8S21554   5.530   2.778   7.593 -0.3219  1.1527 -1.0371
  187SLPC   C2921555   5.357   2.703   7.714 -0.3328 -0.9089 -0.3571
  187SLPC   H9R21556   5.247   2.695   7.720 -0.3154 -0.0310  2.4932
  187SLPC  C21021557   5.434   2.675   7.823  0.1685  0.1604  0.1624
  187SLPC  H10R21558   5.389   2.619   7.906 -1.4092 -2.4399 -2.2617
  187SLPC  C21121559   5.585   2.687   7.840  0.0236 -0.2460 -0.1290
  187SLPC  H11R21560   5.596   2.723   7.945 -1.4977  0.5283 -0.2016
  187SLPC  H11S21561   5.629   2.753   7.763 -0.4494 -2.1275 -2.1076
  187SLPC  C21221562   5.645   2.551   7.816 -0.3650 -0.6480  0.3122
  187SLPC  H12R21563   5.626   2.476   7.893  1.6420 -1.2817  0.2559
  187SLPC  C21321564   5.715   2.513   7.712  0.3155 -0.0321  0.4070
  187SLPC  H13R21565   5.762   2.413   7.708  0.2032 -0.0429 -1.1764
  187SLPC  C21421566   5.760   2.588   7.587  0.3251 -0.6106 -0.1543
  187SLPC  H14R21567   5.732   2.695   7.583  1.8538 -0.1734  0.1906
  187SLPC  H14S21568   5.716   2.534   7.500  1.1833 -1.0978 -0.3011
  187SLPC  C21521569   5.913   2.580   7.567  0.2774 -0.2265 -0.3020
  187SLPC  H15R21570   5.954   2.478   7.557 -0.3542 -0.4540 -0.6172
  187SLPC  H15S21571   5.959   2.616   7.662 -0.6102 -1.1575  0.5054
  187SLPC  C21621572   5.967   2.678   7.463 -0.1078  0.8398  0.2270
  187SLPC  H16R21573   6.076   2.687   7.480  0.0623 -2.0257  1.1304
  187SLPC  H16S21574   5.918   2.775   7.488 -0.9033  0.8200 -1.1389
  187SLPC  C21721575   5.935   2.641   7.316 -0.4397 -0.3788 -0.5287
  187SLPC  H17R21576   5.990   2.714   7.253 -1.3919  0.9391  0.1233
  187SLPC  H17S21577   5.826   2.652   7.296 -0.5797 -2.2238 -0.9427
  187SLPC  C21821578   5.984   2.492   7.276 -0.8753 -0.0183 -0.2592
  187SLPC  H18R21579   5.949   2.478   7.171 -0.3132  0.1281 -0.4705
  187SLPC  H18S21580   5.927   2.422   7.341 -0.6956  0.4619  0.4202
  187SLPC  H18T21581   6.095   2.489   7.274 -0.8418  0.9420 -1.4151
  187SLPC   C3321582   5.674   2.091   7.124 -0.5784  0.1130  1.2136
  187SLPC   H3X21583   5.579   2.143   7.146 -1.0597 -0.2438  0.0654
  187SLPC   H3Y21584   5.735   2.158   7.059  0.0934 -1.2191  0.4142
  187SLPC   C3421585   5.745   2.062   7.257  0.2044 -0.3261  0.3970
  187SLPC   H4X21586   5.829   1.992   7.234  0.5310 -0.3324  1.5624
  187SLPC   H4Y21587   5.683   2.011   7.333 -1.7061 -1.2049 -1.6416
  187SLPC   C3521588   5.810   2.181   7.338 -0.1267  0.6061 -0.2742
  187SLPC   H5X21589   5.729   2.256   7.351 -0.1649  0.4280  0.5762
  187SLPC   H5Y21590   5.877   2.237   7.269 -0.9260  1.3549 -0.4618
  187SLPC   C3621591   5.894   2.149   7.465  0.7917  0.5358  0.0739
  187SLPC   H6X21592   5.966   2.234   7.472  0.4370  0.9609 -1.1484
  187SLPC   H6Y21593   5.956   2.058   7.452  0.7533  0.7075 -1.4971
  187SLPC   C3721594   5.800   2.151   7.587  0.4765 -0.0003  0.0068
  187SLPC   H7X21595   5.756   2.249   7.611 -0.8343 -0.3298 -0.9464
  187SLPC   H7Y21596   5.716   2.079   7.576  2.3344 -2.2129 -0.4697
  187SLPC   C3821597   5.859   2.100   7.719  0.2424 -0.1354 -0.8007
  187SLPC   H8X21598   5.868   1.990   7.726 -0.2968 -0.1072  0.9477
  187SLPC   H8Y21599   5.793   2.121   7.806  1.8764 -0.1282  0.4895
  187SLPC   C3921600   6.001   2.157   7.755  0.5217 -0.0229 -0.3870
  187SLPC   H9X21601   6.008   2.266   7.734 -0.5705 -0.0213 -0.8126
  187SLPC   H9Y21602   6.075   2.112   7.685 -0.1412 -1.5920 -0.1161
  187SLPC  C31021603   6.043   2.126   7.897  0.2843  0.0124  0.8723
  187SLPC  H10X21604   6.055   2.016   7.908 -1.4438  0.0215  4.6458
  187SLPC  H10Y21605   5.960   2.157   7.964 -2.3522  1.0417 -2.5838
  187SLPC  C31121606   6.167   2.200   7.937  0.9880  0.6033  0.5452
  187SLPC  H11X21607   6.152   2.310   7.926 -0.5787  0.5734  1.9934
  187SLPC  H11Y21608   6.251   2.175   7.869 -0.7786  1.2954 -2.0799
  187SLPC  C31221609   6.191   2.176   8.088 -1.0407 -0.3973 -0.5741
  187SLPC  H12X21610   6.199   2.065   8.096 -0.6297 -0.4820 -1.8616
  187SLPC  H12Y21611   6.112   2.220   8.152  1.5586  1.5500  1.5140
  187SLPC  C31321612   6.332   2.231   8.123  0.3639  0.1204 -0.1402
  187SLPC  H13X21613   6.354   2.332   8.084  1.8322 -0.8993 -2.1747
  187SLPC  H13Y21614   6.399   2.163   8.066  0.6096 -1.5395  2.0159
  187SLPC  C31421615   6.375   2.222   8.268 -0.6572 -0.1831 -0.7227
  187SLPC  H14X21616   6.320   2.303   8.320  0.0298  0.6462 -1.2299
  187SLPC  H14Y21617   6.482   2.251   8.280 -0.4024 -1.9054  1.7975
  187SLPC  C31521618   6.344   2.092   8.330  0.1173 -0.0886  0.1056
  187SLPC  H15X21619   6.403   2.015   8.276 -0.1789 -1.6124  1.8485
  187SLPC  H15Y21620   6.238   2.056   8.330  0.1887 -0.3021  0.1510
  187SLPC  C31621621   6.397   2.097   8.470 -0.2493  0.1584  0.0213
  187SLPC  H16X21622   6.492   2.151   8.488 -0.6579  0.6042  0.8886
  187SLPC  H16Y21623   6.417   1.994   8.509  1.5006  0.1911 -0.6868
  187SLPC  C31721624   6.288   2.152   8.566 -0.6412  0.2950 -0.0656
  187SLPC  H17X21625   6.196   2.091   8.550  0.4648 -1.0017 -1.8590
  187SLPC  H17Y21626   6.265   2.255   8.533 -1.0494  0.5715  1.0290
  187SLPC  C31821627   6.320   2.154   8.718  0.2310  0.4449  0.1714
  187SLPC  H18X21628   6.338   2.048   8.748 -0.9112 -0.2549 -1.4132
  187SLPC  H18Y21629   6.235   2.202   8.771 -1.3189 -2.5610  0.6544
  187SLPC  H18Z21630   6.408   2.216   8.745  0.8131 -1.3391  2.7548
  188SLPC     N21631   2.924   1.310   6.303  0.3749 -0.2643  0.1988
  188SLPC   C1321632   3.025   1.347   6.199 -0.0267 -0.2319 -0.2518
  188SLPC  H13A21633   3.059   1.256   6.153  1.4655 -0.8380  1.9140
  188SLPC  H13B21634   2.986   1.415   6.124  0.9137  0.2663 -0.3026
  188SLPC  H13C21635   3.108   1.403   6.240 -1.4573  2.3843 -0.6949
  188SLPC   C1421636   2.969   1.185   6.377  0.0632  0.3112 -0.5485
  188SLPC  H14A21637   3.061   1.221   6.421  0.0636  0.9697 -1.0718
  188SLPC  H14B21638   2.899   1.156   6.453  1.4938 -0.7824  0.3983
  188SLPC  H14C21639   2.995   1.103   6.311 -2.1990 -0.5506 -0.4352
  188SLPC   C1521640   2.799   1.285   6.231 -0.2663 -0.1653  0.2716
  188SLPC  H15A21641   2.829   1.240   6.137  0.8575  0.3710  0.3569
  188SLPC  H15B21642   2.734   1.222   6.291  0.4229 -0.3395  0.8538
  188SLPC  H15C21643   2.753   1.377   6.199 -0.0287  0.3122  1.2531
  188SLPC   C1221644   2.914   1.428   6.400  0.3954 -0.4571  0.2399
  188SLPC  H12A21645   2.848   1.403   6.483  1.3855  2.1768  1.9716
  188SLPC  H12B21646   2.876   1.513   6.344 -1.3686 -1.3931 -0.0719
  188SLPC   C1121647   3.048   1.481   6.456  0.4676  0.7407  0.5641
  188SLPC  H11A21648   3.105   1.398   6.502 -0.4182  0.1651  0.6460
  188SLPC  H11B21649   3.017   1.550   6.537 -0.0443  1.7515 -0.4514
  188SLPC     P21650   3.074   1.700   6.324 -0.1109  0.0866  0.5585
  188SLPC   O1321651   3.162   1.766   6.222  0.4059 -0.0125  0.4569
  188SLPC   O1421652   2.925   1.703   6.295 -0.4547 -0.2867  0.0982
  188SLPC   O1221653   3.122   1.548   6.356  0.4388  0.4248 -0.4190
  188SLPC   O1121654   3.094   1.768   6.460  0.1081 -0.0182 -0.5575
  188SLPC    C121655   3.232   1.780   6.510  0.2337  0.4191  0.7182
  188SLPC    HA21656   3.315   1.738   6.450  0.3195  0.9257  0.4753
  188SLPC    HB21657   3.251   1.890   6.511  2.4728  0.2034 -2.3612
  188SLPC    C221658   3.252   1.736   6.654  0.5412 -0.4269 -0.3536
  188SLPC    HS21659   3.227   1.629   6.662  0.5696 -0.4180 -0.1555
  188SLPC   O2121660   3.164   1.815   6.737  0.4585 -0.6542  0.4963
  188SLPC   C2121661   3.087   1.752   6.820 -0.3175 -0.1589 -0.8936
  188SLPC   O2221662   3.084   1.628   6.831  0.0644  0.2430  0.0963
  188SLPC   C2221663   3.007   1.843   6.911 -0.2286  0.1601  0.2438
  188SLPC   H2R21664   3.028   1.950   6.888  2.3319 -0.3688 -0.1663
  188SLPC   H2S21665   2.898   1.827   6.893 -0.2591  0.1113  0.4656
  188SLPC    C321666   3.399   1.766   6.696  0.0503 -0.2629  0.1266
  188SLPC    HX21667   3.408   1.876   6.685 -1.1099  0.0585  1.9290
  188SLPC    HY21668   3.474   1.720   6.628  1.1796  1.4531  0.1476
  188SLPC   O3121669   3.431   1.753   6.834 -0.3239 -0.4722  0.0429
  188SLPC   C3121670   3.489   1.632   6.859  0.3953  0.8189  0.6915
  188SLPC   O3221671   3.509   1.549   6.775  0.4910 -0.1301  0.2738
  188SLPC   C3221672   3.520   1.617   7.000  0.2299 -0.4628 -0.2183
  188SLPC   H2X21673   3.425   1.592   7.052  1.0726 -2.3408  0.5100
  188SLPC   H2Y21674   3.564   1.711   7.040  0.0435  0.0705 -1.2244
  188SLPC   C2321675   3.037   1.812   7.061 -0.2903 -0.2905 -0.2756
  188SLPC   H3R21676   3.147   1.810   7.070  0.1120  0.0348 -3.7443
  188SLPC   H3S21677   2.996   1.714   7.095  0.8938 -0.0438  2.0904
  188SLPC   C2421678   2.985   1.919   7.163 -0.1386  0.6308  0.0477
  188SLPC   H4R21679   2.874   1.918   7.153 -0.1570  1.7705 -0.0103
  188SLPC   H4S21680   3.024   2.017   7.127 -1.1887  0.8555 -0.5151
  188SLPC   C2521681   3.040   1.887   7.303  0.1523  0.3415  0.7848
  188SLPC   H5R21682   3.150   1.905   7.302  0.3864 -0.9085 -1.8747
  188SLPC   H5S21683   3.037   1.777   7.320  0.0914  0.2383  0.1157
  188SLPC   C2621684   2.966   1.967   7.413 -1.7054 -0.2693  0.8005
  188SLPC   H6R21685   2.855   1.962   7.408 -1.6462 -2.6503  0.8671
  188SLPC   H6S21686   2.995   2.074   7.403  1.4086 -1.1095 -0.2866
  188SLPC   C2721687   3.004   1.936   7.554 -0.2000  0.3897  0.0771
  188SLPC   H7R21688   3.114   1.927   7.558 -0.0050  1.5645 -1.4751
  188SLPC   H7S21689   2.965   1.834   7.572  3.2412 -0.7558  1.7510
  188SLPC   C2821690   2.962   2.034   7.667 -0.5950  0.1047 -0.6577
  188SLPC   H8R21691   2.976   1.980   7.763  0.1952  0.2049 -0.7109
  188SLPC   H8S21692   2.855   2.063   7.657 -0.8143  0.0324  1.1950
  188SLPC   C2921693   3.046   2.156   7.667 -0.4494  0.1484  0.5160
  188SLPC   H9R21694   3.063   2.199   7.568 -1.5224 -1.9983 -0.6628
  188SLPC  C21021695   3.121   2.209   7.775  0.3678 -0.5557 -0.1721
  188SLPC  H10R21696   3.168   2.308   7.761 -0.5973 -0.2432 -1.3464
  188SLPC  C21121697   3.133   2.148   7.910  0.4094 -0.4795  0.4735
  188SLPC  H11R21698   3.224   2.198   7.949  1.6492 -0.9365 -1.6661
  188SLPC  H11S21699   3.156   2.040   7.895  0.5327 -0.1837 -1.9320
  188SLPC  C21221700   3.012   2.155   8.000  0.5829 -0.6660 -0.5962
  188SLPC  H12R21701   2.910   2.153   7.957 -0.2477  0.0561  1.2290
  188SLPC  C21321702   3.024   2.144   8.141  0.1073 -0.4236  0.3051
  188SLPC  H13R21703   2.932   2.187   8.185  0.3979  0.1509  0.3625
  188SLPC  C21421704   3.148   2.138   8.227  0.2544  0.5061  0.5851
  188SLPC  H14R21705   3.241   2.142   8.166  0.1125 -0.3589  0.2926
  188SLPC  H14S21706   3.150   2.041   8.280  0.3968 -0.9591 -1.9213
  188SLPC  C21521707   3.148   2.241   8.336  0.0558 -0.1507  0.0874
  188SLPC  H15R21708   3.050   2.238   8.388 -0.5932  0.6188 -1.0582
  188SLPC  H15S21709   3.163   2.346   8.301 -0.7191 -0.8990 -2.6940
  188SLPC  C21621710   3.258   2.216   8.445 -0.3011 -0.1843  0.2444
  188SLPC  H16R21711   3.360   2.202   8.403  0.4567  2.3390  1.0268
  188SLPC  H16S21712   3.222   2.142   8.520  0.2078  1.0167  1.7368
  188SLPC  C21721713   3.267   2.330   8.542 -0.1118 -0.4693 -0.1530
  188SLPC  H17R21714   3.169   2.354   8.589  0.0847  2.0432 -0.8994
  188SLPC  H17S21715   3.285   2.421   8.482 -1.2797  0.3593  0.6894
  188SLPC  C21821716   3.371   2.314   8.646  0.0452  0.5185 -0.6027
  188SLPC  H18R21717   3.378   2.415   8.694 -0.4749  1.7575 -2.9687
  188SLPC  H18S21718   3.474   2.285   8.616  1.0767  1.6127  1.5550
  188SLPC  H18T21719   3.350   2.239   8.726 -1.2298 -0.2087 -1.5938
  188SLPC   C3321720   3.623   1.500   7.024 -0.2443 -0.2228 -0.5300
  188SLPC   H3X21721   3.724   1.526   6.987  0.9336  0.3283  2.7344
  188SLPC   H3Y21722   3.593   1.409   6.968  1.4839 -1.4999  0.5003
  188SLPC   C3421723   3.647   1.469   7.176 -0.5454  0.4389  0.2200
  188SLPC   H4X21724   3.721   1.386   7.178  0.0263  0.8970 -0.8302
  188SLPC   H4Y21725   3.555   1.425   7.219  0.3814 -2.2153 -0.3091
  188SLPC   C3521726   3.688   1.585   7.269 -0.2283 -0.7578  0.7235
  188SLPC   H5X21727   3.605   1.657   7.286  0.2746  0.1503 -0.5723
  188SLPC   H5Y21728   3.773   1.632   7.217 -2.8257  1.9697 -1.4063
  188SLPC   C3621729   3.738   1.527   7.406 -0.2162 -0.1643 -0.2605
  188SLPC   H6X21730   3.818   1.454   7.384  0.2325  0.3926 -0.4977
  188SLPC   H6Y21731   3.644   1.483   7.447  0.6338 -0.3967  1.5008
  188SLPC   C3721732   3.794   1.635   7.501  0.2133 -0.4049 -0.5154
  188SLPC   H7X21733   3.716   1.715   7.503 -0.0623 -0.6683  1.4926
  188SLPC   H7Y21734   3.881   1.672   7.443  1.9057 -2.0959  0.8097
  188SLPC   C3821735   3.808   1.596   7.640  0.3917 -0.6064 -1.4381
  188SLPC   H8X21736   3.860   1.500   7.657  1.5576  0.0448 -1.2518
  188SLPC   H8Y21737   3.703   1.568   7.666 -0.0363 -0.8695 -3.3197
  188SLPC   C3921738   3.892   1.692   7.727  0.2588  0.9748  0.7116
  188SLPC   H9X21739   3.852   1.795   7.720 -0.8865  0.4164 -2.5430
  188SLPC   H9Y21740   3.998   1.693   7.694 -0.4245  0.4124 -1.7271
  188SLPC  C31021741   3.892   1.635   7.870 -0.7302  0.2430  0.3115
  188SLPC  H10X21742   3.919   1.528   7.858  0.4305  0.4848  0.6276
  188SLPC  H10Y21743   3.790   1.642   7.914 -0.6552 -0.5192  0.6111
  188SLPC  C31121744   3.996   1.706   7.956  0.8509 -0.3974 -0.3083
  188SLPC  H11X21745   3.986   1.816   7.949  0.8373 -0.5003 -2.4908
  188SLPC  H11Y21746   4.101   1.673   7.939  0.9815 -0.9349  1.3921
  188SLPC  C31221747   3.963   1.675   8.105 -0.5695 -0.5421  0.4944
  188SLPC  H12X21748   3.952   1.565   8.116 -2.2336 -0.7576 -2.2986
  188SLPC  H12Y21749   3.869   1.730   8.125 -1.0579 -1.6578  1.3499
  188SLPC  C31321750   4.069   1.730   8.204  0.8310  0.2675  0.9823
  188SLPC  H13X21751   4.070   1.840   8.187 -2.0932  0.1881 -0.3250
  188SLPC  H13Y21752   4.170   1.686   8.197  0.7530  0.0247  1.3632
  188SLPC  C31421753   4.018   1.709   8.352  0.1244 -0.2015  0.5000
  188SLPC  H14X21754   3.994   1.602   8.371 -1.3739  0.0121 -0.0192
  188SLPC  H14Y21755   3.922   1.762   8.364 -1.2228 -2.1145 -1.0684
  188SLPC  C31521756   4.122   1.759   8.455  0.2281 -0.5280  0.6716
  188SLPC  H15X21757   4.154   1.862   8.429  1.9448 -1.2327 -0.1708
  188SLPC  H15Y21758   4.217   1.701   8.447  0.0277 -1.1181  2.3121
  188SLPC  C31621759   4.077   1.746   8.597  0.4492 -0.4941  0.3676
  188SLPC  H16X21760   4.037   1.643   8.611 -0.1072 -0.6013 -1.7345
  188SLPC  H16Y21761   3.993   1.818   8.607  0.2532 -0.0151 -3.4823
  188SLPC  C31721762   4.192   1.762   8.693 -0.2424 -0.2060 -0.8785
  188SLPC  H17X21763   4.211   1.868   8.720 -1.9112  0.1723 -1.0500
  188SLPC  H17Y21764   4.280   1.717   8.643 -0.6395 -2.8786  0.6387
  188SLPC  C31821765   4.166   1.684   8.824 -0.3589 -0.5462  0.1965
  188SLPC  H18X21766   4.081   1.737   8.871 -0.1655  0.0646 -0.1308
  188SLPC  H18Y21767   4.250   1.699   8.896 -2.3079 -2.4328  3.0486
  188SLPC  H18Z21768   4.140   1.580   8.796 -1.1550  0.0327 -1.3729
  189SLPC     N21769   5.808   2.579   6.066 -0.1556  0.0163  0.1903
  189SLPC   C1321770   5.706   2.599   6.172 -0.5186 -1.1301  0.0431
  189SLPC  H13A21771   5.651   2.513   6.206 -1.6307  0.2420  1.9072
  189SLPC  H13B21772   5.757   2.634   6.261 -0.5832 -1.2296  0.1190
  189SLPC  H13C21773   5.632   2.675   6.150 -0.5922 -1.4625 -0.8982
  189SLPC   C1421774   5.734   2.586   5.934 -0.1596 -0.1883 -0.2495
  189SLPC  H14A21775   5.804   2.565   5.854 -0.5281  0.2836 -0.7018
  189SLPC  H14B21776   5.656   2.514   5.914  0.3870 -0.5372 -1.1912
  189SLPC  H14C21777   5.679   2.678   5.925  1.1476  0.5138 -1.5861
  189SLPC   C1521778   5.857   2.440   6.071  0.7028  0.4705  0.4959
  189SLPC  H15A21779   5.926   2.429   5.988  1.8632  0.6338  1.4087
  189SLPC  H15B21780   5.905   2.418   6.165 -0.5471 -1.7325  0.6789
  189SLPC  H15C21781   5.777   2.370   6.056  1.0234  0.5217 -1.8128
  189SLPC   C1221782   5.920   2.685   6.069  0.4194  0.4718 -0.1512
  189SLPC  H12A21783   5.887   2.782   6.035  1.2394 -0.4005 -3.8314
  189SLPC  H12B21784   5.983   2.655   5.987 -1.9744 -0.2013 -1.8223
  189SLPC   C1121785   6.009   2.700   6.199 -0.7721  0.2085 -0.6061
  189SLPC  H11A21786   6.101   2.757   6.173 -0.2639 -0.9629 -1.4912
  189SLPC  H11B21787   6.030   2.593   6.219 -0.3930  0.7013  1.9678
  189SLPC     P21788   5.936   2.913   6.329  0.0839  0.5587  0.7218
  189SLPC   O1321789   6.034   2.947   6.437  0.1002  0.6827  0.3884
  189SLPC   O1421790   5.952   2.976   6.197  0.4511  0.4764  0.4478
  189SLPC   O1221791   5.940   2.756   6.317 -0.0310  0.1831  0.4818
  189SLPC   O1121792   5.793   2.950   6.392  0.3089  0.2272 -0.6009
  189SLPC    C121793   5.709   2.867   6.469 -0.7818 -0.2667 -0.2515
  189SLPC    HA21794   5.617   2.836   6.414 -1.6229  2.4801 -0.5300
  189SLPC    HB21795   5.760   2.774   6.501 -0.8129 -0.2442 -0.1352
  189SLPC    C221796   5.680   2.953   6.596 -0.4376 -0.0254  1.1735
  189SLPC    HS21797   5.654   3.056   6.565  2.1056 -0.5186 -3.4320
  189SLPC   O2121798   5.789   2.941   6.683 -0.2099  0.2242  0.0599
  189SLPC   C2121799   5.809   3.040   6.764 -0.2689 -0.5386  0.5354
  189SLPC   O2221800   5.746   3.144   6.761  0.1215 -0.2863 -0.1392
  189SLPC   C2221801   5.900   2.989   6.880 -0.1277 -0.0374 -0.6721
  189SLPC   H2R21802   5.834   2.930   6.947 -0.3169  0.6432 -0.2525
  189SLPC   H2S21803   5.987   2.933   6.838 -1.3124 -0.6574 -2.4324
  189SLPC    C321804   5.556   2.898   6.654  0.4967  0.4220 -0.1648
  189SLPC    HX21805   5.573   2.789   6.668 -0.4475  0.2730 -0.1452
  189SLPC    HY21806   5.470   2.902   6.584  0.1821 -3.1005 -0.1659
  189SLPC   O3121807   5.518   2.963   6.776 -0.1059 -0.2936  0.5517
  189SLPC   C3121808   5.454   3.071   6.761  0.3586 -0.4266 -0.3686
  189SLPC   O3221809   5.417   3.128   6.658 -0.0163  0.2392  0.4708
  189SLPC   C3221810   5.451   3.138   6.904  0.5223  0.0667  0.3482
  189SLPC   H2X21811   5.549   3.186   6.922  1.4854 -1.1509 -1.3667
  189SLPC   H2Y21812   5.446   3.055   6.977 -0.2051 -0.4696 -0.2884
  189SLPC   C2321813   5.961   3.100   6.960 -0.1232 -0.0439  0.5004
  189SLPC   H3R21814   6.018   3.182   6.911 -1.1592  2.6312  3.3941
  189SLPC   H3S21815   6.045   3.059   7.022  0.3051  1.0006  0.6298
  189SLPC   C2421816   5.869   3.171   7.062 -0.3647 -0.6867 -0.3215
  189SLPC   H4R21817   5.787   3.214   7.001 -0.2139  0.8264  0.4829
  189SLPC   H4S21818   5.923   3.251   7.118  0.2501 -1.4948  0.2554
  189SLPC   C2521819   5.807   3.072   7.174  0.4872 -0.2137  0.1850
  189SLPC   H5R21820   5.886   3.028   7.239  1.5061 -1.4917 -1.8207
  189SLPC   H5S21821   5.750   2.983   7.143  1.9551 -1.1029 -0.0723
  189SLPC   C2621822   5.706   3.151   7.258  0.5694 -0.1493  0.1500
  189SLPC   H6R21823   5.637   3.206   7.189  2.0550  0.2044 -1.1196
  189SLPC   H6S21824   5.771   3.224   7.311  2.0434  0.0572 -1.8119
  189SLPC   C2721825   5.610   3.062   7.343  0.2300  0.0302 -0.6952
  189SLPC   H7R21826   5.674   3.002   7.411  2.0284  0.8770 -1.5583
  189SLPC   H7S21827   5.551   2.996   7.277  0.5767  0.5633 -1.5634
  189SLPC   C2821828   5.531   3.155   7.434  0.9767  0.7426 -0.2470
  189SLPC   H8R21829   5.456   3.094   7.488 -1.5204  1.3542 -2.8325
  189SLPC   H8S21830   5.481   3.223   7.362  0.1576  2.1478  1.5563
  189SLPC   C2921831   5.614   3.232   7.535 -0.1904  0.6620  1.0992
  189SLPC   H9R21832   5.665   3.319   7.492 -1.4752  1.1179  0.4458
  189SLPC  C21021833   5.625   3.200   7.665 -0.1080  0.1985 -0.4227
  189SLPC  H10R21834   5.700   3.257   7.722 -0.0970  1.7606 -1.8883
  189SLPC  C21121835   5.566   3.081   7.738 -0.0229  0.6364  0.4606
  189SLPC  H11R21836   5.629   3.053   7.825 -0.0925  0.8423  0.5788
  189SLPC  H11S21837   5.567   2.987   7.679  0.3977  1.1079 -0.2988
  189SLPC  C21221838   5.421   3.114   7.783 -0.3181  1.0305  0.1813
  189SLPC  H12R21839   5.363   3.179   7.716 -1.4067  0.4732  0.5624
  189SLPC  C21321840   5.360   3.070   7.894 -0.1319  0.1413 -0.1816
  189SLPC  H13R21841   5.253   3.093   7.907 -0.2912 -0.9747  0.6367
  189SLPC  C21421842   5.407   2.976   8.002 -0.4727 -0.2055 -0.3018
  189SLPC  H14R21843   5.518   2.968   8.007 -0.5884 -2.1558  0.2079
  189SLPC  H14S21844   5.365   2.874   7.987 -0.4973 -0.6913  2.5027
  189SLPC  C21521845   5.366   3.015   8.144 -0.3142 -0.1974 -0.5957
  189SLPC  H15R21846   5.390   2.936   8.218 -0.9451 -0.2886 -0.4797
  189SLPC  H15S21847   5.257   3.035   8.158 -0.2742 -0.5620  0.2772
  189SLPC  C21621848   5.441   3.138   8.204  1.0280  0.9625 -0.4689
  189SLPC  H16R21849   5.439   3.226   8.136  0.1088  1.1453 -0.2258
  189SLPC  H16S21850   5.546   3.106   8.222  0.4833  0.1887  1.6418
  189SLPC  C21721851   5.392   3.182   8.343  0.4485 -0.2987  0.2462
  189SLPC  H17R21852   5.384   3.090   8.404 -3.9801 -0.2050  0.1212
  189SLPC  H17S21853   5.288   3.219   8.325  0.3500 -1.5990 -2.2962
  189SLPC  C21821854   5.478   3.297   8.399 -0.5612  0.7769  0.0974
  189SLPC  H18R21855   5.485   3.394   8.344 -3.0567  0.6666 -0.5511
  189SLPC  H18S21856   5.583   3.262   8.408  0.7381  3.3937 -2.8240
  189SLPC  H18T21857   5.435   3.316   8.500  0.9016  0.1344  0.8785
  189SLPC   C3321858   5.331   3.235   6.920 -0.1673 -0.2418  0.5203
  189SLPC   H3X21859   5.234   3.183   6.905 -0.9814  0.8705  1.6782
  189SLPC   H3Y21860   5.337   3.314   6.842  0.8961  2.0211  2.7690
  189SLPC   C3421861   5.344   3.308   7.058 -0.1531  0.0651 -0.0803
  189SLPC   H4X21862   5.433   3.375   7.057 -0.1060  0.0254  0.8039
  189SLPC   H4Y21863   5.371   3.231   7.133  2.1470  0.9611  0.0868
  189SLPC   C3521864   5.212   3.383   7.105  0.0089  0.1470 -0.3656
  189SLPC   H5X21865   5.137   3.302   7.116  0.6128 -0.5281 -1.0625
  189SLPC   H5Y21866   5.176   3.441   7.017 -0.4224  1.5746  0.7180
  189SLPC   C3621867   5.236   3.469   7.227  0.0344  0.6286 -0.2884
  189SLPC   H6X21868   5.183   3.565   7.209  0.1283  0.2858 -2.7574
  189SLPC   H6Y21869   5.345   3.489   7.235  0.9518 -3.1613 -1.2961
  189SLPC   C3721870   5.191   3.392   7.351  0.0806 -0.5210  0.4365
  189SLPC   H7X21871   5.234   3.290   7.347  1.0620 -0.0751 -2.5715
  189SLPC   H7Y21872   5.081   3.376   7.344  0.1247 -1.1074  0.9829
  189SLPC   C3821873   5.216   3.473   7.482  0.4488  0.2888  0.3800
  189SLPC   H8X21874   5.176   3.575   7.465 -2.0822 -0.2778  2.2235
  189SLPC   H8Y21875   5.323   3.479   7.511  0.1468 -1.2397  2.0047
  189SLPC   C3921876   5.132   3.418   7.593  0.1717 -0.5434  0.2075
  189SLPC   H9X21877   5.135   3.309   7.571  1.0101 -0.3512 -0.7024
  189SLPC   H9Y21878   5.023   3.432   7.572  0.1524  0.4032  0.8586
  189SLPC  C31021879   5.181   3.463   7.728 -0.3397 -0.3990  0.0864
  189SLPC  H10X21880   5.176   3.574   7.738 -0.7533 -0.3271 -0.8170
  189SLPC  H10Y21881   5.281   3.416   7.737 -0.2470 -0.3610 -0.6598
  189SLPC  C31121882   5.101   3.398   7.839 -0.5466 -0.0717  0.2392
  189SLPC  H11X21883   5.126   3.290   7.824  1.9700  0.7835 -2.7843
  189SLPC  H11Y21884   4.997   3.403   7.801 -0.7132 -0.5834  0.6125
  189SLPC  C31221885   5.117   3.451   7.986 -0.4497  0.4639  1.4362
  189SLPC  H12X21886   5.069   3.550   8.002 -1.3729 -0.1933  2.9801
  189SLPC  H12Y21887   5.224   3.456   8.014  0.2705 -3.7513  0.0694
  189SLPC  C31321888   5.050   3.355   8.083  0.3477  0.0799  0.1895
  189SLPC  H13X21889   5.106   3.259   8.078 -0.4039 -0.4496  1.5489
  189SLPC  H13Y21890   4.947   3.343   8.044  0.8455  0.4872 -1.3254
  189SLPC  C31421891   5.062   3.411   8.229 -0.5453  0.3667  0.3312
  189SLPC  H14X21892   5.064   3.522   8.222  0.7487  0.3343 -0.2554
  189SLPC  H14Y21893   5.166   3.379   8.252 -0.5334 -0.9178 -1.3300
  189SLPC  C31521894   4.964   3.348   8.331 -0.5729 -1.4141 -0.1321
  189SLPC  H15X21895   4.963   3.237   8.325  1.9299 -1.5167  0.1618
  189SLPC  H15Y21896   4.863   3.390   8.309 -0.1285 -0.1551  0.1214
  189SLPC  C31621897   4.992   3.388   8.482 -0.2047  0.5589  0.7125
  189SLPC  H16X21898   4.912   3.347   8.547  0.6422  1.7806  2.6098
  189SLPC  H16Y21899   4.982   3.499   8.490  0.6008  0.7192 -0.2515
  189SLPC  C31721900   5.131   3.342   8.529 -0.3828 -0.3699 -1.0416
  189SLPC  H17X21901   5.205   3.416   8.494  0.0955 -1.3702 -2.2556
  189SLPC  H17Y21902   5.153   3.249   8.471 -3.7855 -0.5976 -2.2074
  189SLPC  C31821903   5.144   3.316   8.683 -0.0943 -0.1072  0.1630
  189SLPC  H18X21904   5.252   3.315   8.707  0.3054 -0.2218 -1.4799
  189SLPC  H18Y21905   5.097   3.219   8.711  1.5012 -0.7389  0.7261
  189SLPC  H18Z21906   5.104   3.397   8.747 -1.6022 -0.8905  0.2772
  190SLPC     N21907   4.981   0.404   6.361 -0.9108  0.8354 -0.0959
  190SLPC   C1321908   5.071   0.507   6.316  0.1527  0.6081 -0.1981
  190SLPC  H13A21909   5.027   0.558   6.231 -2.9910  0.8029  1.3726
  190SLPC  H13B21910   5.107   0.576   6.391  0.4150 -0.5387  0.7638
  190SLPC  H13C21911   5.160   0.462   6.275 -1.7375 -1.3140 -2.5168
  190SLPC   C1421912   4.954   0.304   6.248 -0.1459 -0.1014 -0.1849
  190SLPC  H14A21913   4.882   0.343   6.177 -0.6538  0.0970  0.4253
  190SLPC  H14B21914   5.042   0.283   6.189 -1.3190 -0.3351 -1.9300
  190SLPC  H14C21915   4.921   0.210   6.290  1.0147 -0.0849  0.8006
  190SLPC   C1521916   4.850   0.462   6.402  0.0160 -0.3458  0.2184
  190SLPC  H15A21917   4.768   0.393   6.414 -1.3430  0.4280 -3.4561
  190SLPC  H15B21918   4.868   0.511   6.496  0.1581  1.6312 -0.7903
  190SLPC  H15C21919   4.821   0.538   6.332 -1.0208 -0.1122  0.8859
  190SLPC   C1221920   5.042   0.334   6.485 -0.3346  0.1875  0.1027
  190SLPC  H12A21921   5.060   0.407   6.562 -1.6941 -1.5774  2.2222
  190SLPC  H12B21922   5.139   0.297   6.454 -0.5951  0.0469 -0.5723
  190SLPC   C1121923   4.955   0.229   6.542  0.0949 -0.3526 -0.3966
  190SLPC  H11A21924   4.848   0.260   6.548  0.3145  0.3094  0.2007
  190SLPC  H11B21925   4.985   0.213   6.648 -1.5135  2.0250  0.5055
  190SLPC     P21926   5.048  -0.010   6.482 -0.2543 -0.2379  0.5923
  190SLPC   O1321927   4.965  -0.125   6.439  0.4344 -0.1062 -0.0896
  190SLPC   O1421928   5.182   0.016   6.429 -0.0116 -0.4601 -0.3681
  190SLPC   O1221929   4.952   0.118   6.460  0.2270  0.3639  0.2417
  190SLPC   O1121930   5.059  -0.037   6.643  0.0215 -0.2163  0.4216
  190SLPC    C121931   4.937  -0.068   6.718  0.2453  0.5063  0.1976
  190SLPC    HA21932   4.912   0.023   6.775 -0.7665  0.3042  0.0856
  190SLPC    HB21933   4.845  -0.092   6.660  0.0011  2.2116 -0.1724
  190SLPC    C221934   4.961  -0.183   6.821  0.7284 -0.0151 -0.0698
  190SLPC    HS21935   4.887  -0.186   6.904  2.3206 -4.3855  1.4907
  190SLPC   O2121936   5.091  -0.174   6.893 -0.0042  0.3384  0.1980
  190SLPC   C2121937   5.097  -0.073   6.975 -0.4985 -0.2181 -0.1994
  190SLPC   O2221938   5.011   0.016   6.989 -0.1248  0.2138 -0.7349
  190SLPC   C2221939   5.222  -0.076   7.053  0.0764 -0.1078 -0.4938
  190SLPC   H2R21940   5.296  -0.129   6.989 -0.0262 -0.2590 -0.4874
  190SLPC   H2S21941   5.240   0.033   7.059  0.3833 -0.1981  0.4534
  190SLPC    C321942   4.953  -0.318   6.747 -0.5546  0.2134  0.5461
  190SLPC    HX21943   5.046  -0.321   6.686 -0.8179  2.1299 -0.0348
  190SLPC    HY21944   4.871  -0.323   6.673 -0.4211  0.7108  0.3585
  190SLPC   O3121945   4.954  -0.431   6.833  0.3444 -0.1979 -0.1871
  190SLPC   C3121946   4.837  -0.470   6.878  0.3315  0.1184  0.4380
  190SLPC   O3221947   4.727  -0.425   6.849  0.0274  0.3904  0.5553
  190SLPC   C3221948   4.853  -0.601   6.964 -0.6917 -1.4765 -0.3013
  190SLPC   H2X21949   4.943  -0.584   7.027 -0.9543 -1.5528  0.0946
  190SLPC   H2Y21950   4.880  -0.686   6.898 -0.0603 -0.9572 -0.7233
  190SLPC   C2321951   5.216  -0.138   7.195  0.0194 -0.6164  0.1610
  190SLPC   H3R21952   5.321  -0.164   7.223  0.1723  0.4221  0.6072
  190SLPC   H3S21953   5.165  -0.235   7.178  0.1308 -0.6571  0.0585
  190SLPC   C2421954   5.145  -0.052   7.307  0.4220  0.5306  0.4686
  190SLPC   H4R21955   5.037  -0.036   7.286  0.1626  0.4110  1.5968
  190SLPC   H4S21956   5.199   0.044   7.322  1.5099 -0.1497  1.0045
  190SLPC   C2521957   5.145  -0.133   7.436 -0.5709 -0.2998  0.2933
  190SLPC   H5R21958   5.117  -0.070   7.523  1.5222 -0.1737  0.9419
  190SLPC   H5S21959   5.253  -0.158   7.448  0.3054  2.3813 -1.2520
  190SLPC   C2621960   5.068  -0.265   7.441  0.0986  0.7082 -0.5098
  190SLPC   H6R21961   5.099  -0.341   7.366  0.6613 -0.5148  0.8999
  190SLPC   H6S21962   4.960  -0.244   7.423  0.4322  1.0352 -2.2136
  190SLPC   C2721963   5.083  -0.316   7.582 -0.1280 -0.4837 -0.2774
  190SLPC   H7R21964   5.056  -0.230   7.648  1.6664  1.9286 -2.4953
  190SLPC   H7S21965   5.186  -0.343   7.611 -0.1923  0.3074  0.7725
  190SLPC   C2821966   4.980  -0.428   7.611 -0.0513 -0.4053 -0.4079
  190SLPC   H8R21967   4.975  -0.503   7.529  0.9977 -0.8292 -0.1010
  190SLPC   H8S21968   4.883  -0.373   7.607 -0.5565 -1.2317  0.2190
  190SLPC   C2921969   5.006  -0.501   7.741  0.2207  0.1695 -0.4033
  190SLPC   H9R21970   5.066  -0.592   7.729 -1.9256 -1.3688  0.0234
  190SLPC  C21021971   4.967  -0.459   7.866 -0.0976  0.9448  0.0993
  190SLPC  H10R21972   4.999  -0.522   7.951 -1.9851 -3.1182 -1.9124
  190SLPC  C21121973   4.895  -0.337   7.911  0.6762  0.3256 -0.1398
  190SLPC  H11R21974   4.788  -0.365   7.923  0.4920  1.2732  0.5279
  190SLPC  H11S21975   4.903  -0.250   7.843 -0.8209  0.9537  0.4546
  190SLPC  C21221976   4.939  -0.290   8.045 -0.3917  0.9001 -0.0590
  190SLPC  H12R21977   5.006  -0.205   8.022 -1.1239  1.1092 -1.4585
  190SLPC  C21321978   4.913  -0.330   8.173 -0.1286  0.2738 -0.3906
  190SLPC  H13R21979   4.964  -0.264   8.245  0.2794  1.5678 -1.8013
  190SLPC  C21421980   4.820  -0.437   8.213 -0.1106  0.3950 -0.1859
  190SLPC  H14R21981   4.778  -0.491   8.126  0.1958  1.8046 -1.2391
  190SLPC  H14S21982   4.727  -0.384   8.245  0.3707  1.0882  0.1077
  190SLPC  C21521983   4.864  -0.532   8.329  0.1638  0.6311  0.5918
  190SLPC  H15R21984   4.960  -0.583   8.307  1.2152  2.4376  0.8065
  190SLPC  H15S21985   4.779  -0.599   8.354 -1.0117  0.8001 -2.4792
  190SLPC  C21621986   4.902  -0.452   8.456  0.1604 -0.2107  0.3445
  190SLPC  H16R21987   4.986  -0.387   8.421 -0.5961  0.5143 -0.1464
  190SLPC  H16S21988   4.942  -0.523   8.532  2.8684  0.4345 -0.3511
  190SLPC  C21721989   4.784  -0.357   8.501 -0.2571 -0.5453 -0.0118
  190SLPC  H17R21990   4.692  -0.419   8.513 -0.4977  0.0778  1.5572
  190SLPC  H17S21991   4.767  -0.275   8.428  2.0690 -2.3274 -2.8217
  190SLPC  C21821992   4.820  -0.295   8.637  0.0901 -0.0940 -0.0951
  190SLPC  H18R21993   4.740  -0.224   8.669 -1.2747 -1.3406 -0.6061
  190SLPC  H18S21994   4.913  -0.237   8.621  0.9210 -0.6791  2.2911
  190SLPC  H18T21995   4.835  -0.371   8.716  3.0871 -0.0540 -0.5335
  190SLPC   C3321996   4.730  -0.636   7.051  0.5920  0.1670 -0.7816
  190SLPC   H3X21997   4.739  -0.746   7.067 -0.3686  0.0981 -0.6374
  190SLPC   H3Y21998   4.629  -0.631   7.006 -0.9138 -1.0260  2.1559
  190SLPC   C3421999   4.721  -0.571   7.190 -0.3388  0.1305 -0.2219
  190SLPC   H4X22000   4.667  -0.475   7.178 -0.6108  0.3840  2.4806
  190SLPC   H4Y22001   4.824  -0.543   7.222 -0.9135  2.3533 -0.1954
  190SLPC   C3522002   4.654  -0.650   7.306  0.5501 -0.3677  0.2332
  190SLPC   H5X22003   4.705  -0.749   7.304 -2.0598 -1.8431 -3.0001
  190SLPC   H5Y22004   4.550  -0.680   7.284  0.9351 -1.1234 -0.6659
  190SLPC   C3622005   4.669  -0.583   7.441  0.0221 -0.5879  0.2704
  190SLPC   H6X22006   4.601  -0.495   7.446  0.7405  0.1556 -1.7673
  190SLPC   H6Y22007   4.774  -0.552   7.460  0.6653 -1.8302 -1.0334
  190SLPC   C3722008   4.633  -0.677   7.548 -0.4428 -0.4819 -0.9438
  190SLPC   H7X22009   4.716  -0.749   7.566  2.3464  2.3985 -1.5021
  190SLPC   H7Y22010   4.535  -0.730   7.542  0.0481 -2.0029  2.4029
  190SLPC   C3822011   4.620  -0.597   7.681  0.1224 -0.1843  0.7421
  190SLPC   H8X22012   4.529  -0.533   7.682 -0.4548 -0.9702  0.2604
  190SLPC   H8Y22013   4.707  -0.529   7.689  0.0634 -0.0339  0.1577
  190SLPC   C3922014   4.613  -0.699   7.788 -0.1592 -0.2223 -0.3393
  190SLPC   H9X22015   4.716  -0.731   7.812  2.2549  4.5072 -2.8675
  190SLPC   H9Y22016   4.549  -0.783   7.756 -0.8145  0.2045 -0.1813
  190SLPC  C31022017   4.549  -0.642   7.918  0.0267 -0.4007  0.7162
  190SLPC  H10X22018   4.443  -0.614   7.901  1.0167  2.3744 -1.6051
  190SLPC  H10Y22019   4.609  -0.554   7.949 -1.3360  0.4715  0.9465
  190SLPC  C31122020   4.539  -0.756   8.019 -0.1505 -0.7674 -0.0034
  190SLPC  H11X22021   4.645  -0.785   8.036  0.4056  0.1090 -1.7442
  190SLPC  H11Y22022   4.478  -0.841   7.983 -5.5595  2.8777 -0.6255
  190SLPC  C31222023   4.495  -0.711   8.157  0.2133 -0.0843  0.3330
  190SLPC  H12X22024   4.390  -0.681   8.142  0.0450 -1.2766 -1.1984
  190SLPC  H12Y22025   4.561  -0.626   8.185  1.5189 -1.9936  3.6603
  190SLPC  C31322026   4.508  -0.817   8.263 -0.1022  0.2581 -0.1300
  190SLPC  H13X22027   4.617  -0.841   8.264 -0.0709  0.3766  0.7868
  190SLPC  H13Y22028   4.457  -0.914   8.245  2.8775 -1.1934 -1.5343
  190SLPC  C31422029   4.464  -0.744   8.392  0.1206  0.5116 -0.7663
  190SLPC  H14X22030   4.355  -0.720   8.401  0.8459  3.8065  1.2356
  190SLPC  H14Y22031   4.511  -0.644   8.403  0.8418 -0.0432  1.8483
  190SLPC  C31522032   4.492  -0.824   8.527 -0.3112 -0.1927  0.7584
  190SLPC  H15X22033   4.594  -0.869   8.521 -0.4599 -0.6694  1.5866
  190SLPC  H15Y22034   4.418  -0.904   8.549 -0.4391 -0.4046 -0.3833
  190SLPC  C31622035   4.505  -0.744   8.663  0.8392 -0.1607  0.0397
  190SLPC  H16X22036   4.584  -0.667   8.658 -0.7339  1.6688  1.7743
  190SLPC  H16Y22037   4.541  -0.817   8.738 -1.5333  0.4345  1.8923
  190SLPC  C31722038   4.373  -0.680   8.717 -0.5712  0.6398 -0.1477
  190SLPC  H17X22039   4.382  -0.666   8.827 -1.9489  2.4527 -0.1954
  190SLPC  H17Y22040   4.285  -0.745   8.699 -1.0661  0.2881  2.8851
  190SLPC  C31822041   4.345  -0.540   8.666 -0.0567  0.5903 -0.0167
  190SLPC  H18X22042   4.353  -0.540   8.555  2.0556 -1.2548  0.0658
  190SLPC  H18Y22043   4.416  -0.471   8.715 -1.8886  1.0942  2.0644
  190SLPC  H18Z22044   4.245  -0.506   8.703 -0.0085  0.1640  0.5250
  191SLPC     N22045   0.011   3.751   5.917  0.8084  0.3260  0.3077
  191SLPC   C1322046   0.117   3.787   6.016  0.1661 -0.3914 -0.5007
  191SLPC  H13A22047   0.150   3.711   6.084 -0.1925 -1.3089 -1.3306
  191SLPC  H13B22048   0.199   3.814   5.951  0.4136  0.2687  0.0703
  191SLPC  H13C22049   0.098   3.883   6.063 -0.2453 -0.6813 -0.0587
  191SLPC   C1422050  -0.116   3.700   5.989  0.0655 -0.3621 -0.5112
  191SLPC  H14A22051  -0.190   3.648   5.928  1.2252 -0.7710 -1.6142
  191SLPC  H14B22052  -0.098   3.624   6.062 -1.8057 -0.6504 -0.2863
  191SLPC  H14C22053  -0.165   3.779   6.044  0.9632 -1.7020  2.3666
  191SLPC   C1522054   0.066   3.637   5.847 -0.7415 -0.0129  0.2966
  191SLPC  H15A22055   0.105   3.562   5.914 -0.7491 -0.4538 -0.1755
  191SLPC  H15B22056  -0.009   3.587   5.786 -0.2698 -1.1157  0.5846
  191SLPC  H15C22057   0.150   3.667   5.786 -2.8055  4.8610 -0.6186
  191SLPC   C1222058  -0.006   3.863   5.826  0.0643  0.4664  1.2410
  191SLPC  H12A22059  -0.052   3.836   5.732  0.1999  1.4381  0.8878
  191SLPC  H12B22060   0.090   3.890   5.786 -0.4890  1.4046  0.5286
  191SLPC   C1122061  -0.063   4.001   5.870  0.4850 -0.2555  0.9843
  191SLPC  H11A22062  -0.168   3.982   5.902 -0.0006 -2.1386 -1.4240
  191SLPC  H11B22063  -0.077   4.073   5.786 -1.8693  0.4505  1.9017
  191SLPC     P22064   0.132   4.150   5.920  0.1229  0.4078  0.3448
  191SLPC   O1322065   0.236   4.067   5.860  0.1128 -0.0847  0.0547
  191SLPC   O1422066   0.075   4.253   5.823  0.3610  0.0846 -0.4166
  191SLPC   O1222067   0.019   4.056   5.968 -0.0352  0.1807  0.3580
  191SLPC   O1122068   0.185   4.220   6.038 -0.8192 -0.0628  0.9670
  191SLPC    C122069   0.106   4.308   6.123 -0.0669 -0.6232  0.0683
  191SLPC    HA22070   0.154   4.406   6.145 -1.6796 -0.3347  2.6243
  191SLPC    HB22071   0.012   4.338   6.072 -0.3452  1.5392  1.7287
  191SLPC    C222072   0.059   4.244   6.257 -0.5652 -0.4301  0.0236
  191SLPC    HS22073   0.022   4.325   6.324 -2.0343 -1.5667  0.6715
  191SLPC   O2122074   0.167   4.168   6.319  0.2849 -0.0091 -0.1176
  191SLPC   C2122075   0.250   4.257   6.382 -0.4371 -0.0353 -0.4532
  191SLPC   O2222076   0.249   4.375   6.373  0.1643  0.0871 -0.3314
  191SLPC   C2222077   0.334   4.183   6.486  0.5690 -0.3157  0.3919
  191SLPC   H2R22078   0.269   4.129   6.558 -0.2922 -3.0363 -2.2314
  191SLPC   H2S22079   0.389   4.106   6.428  0.4105 -1.9704  2.3412
  191SLPC    C322080  -0.060   4.141   6.260  0.4837 -0.0819 -0.1680
  191SLPC    HX22081  -0.034   4.053   6.197  2.0408 -0.6334  1.1691
  191SLPC    HY22082  -0.147   4.177   6.202  1.0663 -0.1721 -1.1232
  191SLPC   O3122083  -0.093   4.109   6.402  0.3036  0.6528 -0.6977
  191SLPC   C3122084  -0.056   3.987   6.438 -0.2158  0.6710  0.5752
  191SLPC   O3222085   0.013   3.905   6.374 -0.1599 -0.2965 -0.2182
  191SLPC   C3222086  -0.086   3.962   6.587  0.4929 -0.0708  0.4853
  191SLPC   H2X22087  -0.029   3.869   6.607  1.7461  0.8101  1.1140
  191SLPC   H2Y22088  -0.194   3.934   6.587  0.3520  0.4394  1.4555
  191SLPC   C2322089   0.427   4.280   6.557  0.5986  1.2625 -0.1760
  191SLPC   H3R22090   0.478   4.353   6.490  0.3147  1.5330 -0.0984
  191SLPC   H3S22091   0.510   4.220   6.599 -0.3596 -0.1589 -0.2505
  191SLPC   C2422092   0.355   4.349   6.675 -0.3558 -0.1006 -0.0261
  191SLPC   H4R22093   0.283   4.419   6.628  1.6735  0.8998 -1.8452
  191SLPC   H4S22094   0.437   4.404   6.726 -1.9671  1.7119  0.7074
  191SLPC   C2522095   0.285   4.254   6.768  0.7900  0.4479 -0.2636
  191SLPC   H5R22096   0.343   4.159   6.773 -1.3346 -0.8778  0.4988
  191SLPC   H5S22097   0.179   4.236   6.741  0.7074  0.1426  0.2625
  191SLPC   C2622098   0.297   4.295   6.910 -0.0678 -0.2037 -0.6361
  191SLPC   H6R22099   0.288   4.404   6.927 -0.3936  0.2010 -3.1166
  191SLPC   H6S22100   0.397   4.260   6.943 -0.1155 -1.5449 -1.8160
  191SLPC   C2722101   0.194   4.233   7.005  0.0371  0.4641 -0.9351
  191SLPC   H7R22102   0.193   4.122   7.002  1.4840  0.3030  1.4957
  191SLPC   H7S22103   0.090   4.269   6.990 -0.3655  0.2244  0.9729
  191SLPC   C2822104   0.229   4.261   7.157  0.3360 -0.9191  0.4276
  191SLPC   H8R22105   0.284   4.357   7.165 -2.0082  0.5144  0.4043
  191SLPC   H8S22106   0.298   4.180   7.187  0.0848 -1.2133  0.2085
  191SLPC   C2922107   0.105   4.266   7.248  0.8307 -0.3828  0.6021
  191SLPC   H9R22108   0.036   4.346   7.219  0.5402 -0.7795  0.1852
  191SLPC  C21022109   0.088   4.184   7.355  0.4747  0.1806  0.6412
  191SLPC  H10R22110   0.002   4.194   7.424 -0.8346  0.6072 -0.9933
  191SLPC  C21122111   0.184   4.073   7.391  0.3188 -0.1348  0.1266
  191SLPC  H11R22112   0.216   4.019   7.300 -2.0310 -1.5788  0.0765
  191SLPC  H11S22113   0.124   3.999   7.448 -0.6493  1.8692  1.8800
  191SLPC  C21222114   0.313   4.125   7.462 -0.2468  0.3155 -0.8869
  191SLPC  H12R22115   0.349   4.222   7.423  2.1198 -0.1233  0.1022
  191SLPC  C21322116   0.386   4.073   7.567 -0.0655  0.0583  0.2873
  191SLPC  H13R22117   0.480   4.117   7.604  0.2843 -0.4505  0.0098
  191SLPC  C21422118   0.360   3.939   7.638 -0.7624 -0.9110  0.7052
  191SLPC  H14R22119   0.429   3.863   7.596  0.9744 -0.2421  2.2069
  191SLPC  H14S22120   0.255   3.909   7.616 -1.5358 -0.0396  2.9377
  191SLPC  C21522121   0.371   3.939   7.791 -0.5433  0.1046  0.1619
  191SLPC  H15R22122   0.277   3.968   7.843  1.4658  1.9793  3.0211
  191SLPC  H15S22123   0.444   4.017   7.821 -2.7506  2.6902 -0.8112
  191SLPC  C21622124   0.418   3.802   7.843  0.0431 -0.2914 -0.0624
  191SLPC  H16R22125   0.526   3.783   7.822  0.0690  0.2998 -0.4713
  191SLPC  H16S22126   0.355   3.727   7.791 -1.4895  0.5126  0.5707
  191SLPC  C21722127   0.399   3.800   7.994  0.3026 -0.3193  0.3145
  191SLPC  H17R22128   0.418   3.700   8.037  0.6799  0.5347  2.2085
  191SLPC  H17S22129   0.296   3.828   8.024  0.4586 -0.2515  0.7973
  191SLPC  C21822130   0.479   3.909   8.065 -0.1617 -0.2136 -0.3638
  191SLPC  H18R22131   0.428   4.006   8.045 -1.4406 -1.4396 -3.6772
  191SLPC  H18S22132   0.587   3.916   8.042  0.8674  1.5032  3.9265
  191SLPC  H18T22133   0.478   3.898   8.176 -1.5637 -0.5901 -0.3960
  191SLPC   C3322134  -0.055   4.087   6.678 -0.1711  0.9281  0.0221
  191SLPC   H3X22135  -0.150   4.143   6.689  0.7073  2.2998  0.9533
  191SLPC   H3Y22136   0.006   4.161   6.621 -0.3618 -0.0368 -1.5028
  191SLPC   C3422137   0.002   4.028   6.811 -0.0555  0.2134  0.5840
  191SLPC   H4X22138   0.026   4.122   6.866  1.7140  0.4802 -0.5847
  191SLPC   H4Y22139   0.096   3.975   6.787 -1.0773 -1.1806 -0.4553
  191SLPC   C3522140  -0.104   3.947   6.869  0.7153 -0.0698  0.3113
  191SLPC   H5X22141  -0.120   3.852   6.813  2.5718 -0.0904 -0.2305
  191SLPC   H5Y22142  -0.193   4.011   6.888  0.3442 -0.8478  1.2977
  191SLPC   C3622143  -0.076   3.899   7.017  0.1205 -0.3960  0.3335
  191SLPC   H6X22144  -0.048   3.985   7.082  0.3417 -0.2864  0.0948
  191SLPC   H6Y22145  -0.001   3.818   7.015 -0.9860 -1.4401 -0.7983
  191SLPC   C3722146  -0.213   3.847   7.078 -0.2914 -0.1340  0.8084
  191SLPC   H7X22147  -0.275   3.794   7.003  0.8091 -0.1138 -0.1475
  191SLPC   H7Y22148  -0.270   3.932   7.120 -1.7460 -1.5656  1.8761
  191SLPC   C3822149  -0.179   3.746   7.186  0.4745  0.7458 -0.7915
  191SLPC   H8X22150  -0.074   3.710   7.185 -0.4471 -2.3701  0.9131
  191SLPC   H8Y22151  -0.241   3.655   7.171 -1.8454  2.1867 -0.4084
  191SLPC   C3922152  -0.205   3.797   7.333  0.5036  0.2910 -0.4017
  191SLPC   H9X22153  -0.173   3.904   7.336  0.4279  0.2918  0.6321
  191SLPC   H9Y22154  -0.143   3.733   7.399 -1.0673 -0.0836  0.7452
  191SLPC  C31022155  -0.356   3.791   7.370 -0.8341 -0.3470  0.3382
  191SLPC  H10X22156  -0.393   3.693   7.333 -0.5874 -0.9013  1.5085
  191SLPC  H10Y22157  -0.412   3.873   7.319  1.5844  0.0618 -1.8773
  191SLPC  C31122158  -0.389   3.800   7.518 -0.4885 -0.0845 -0.7419
  191SLPC  H11X22159  -0.499   3.805   7.538 -0.3087  0.2138  0.2181
  191SLPC  H11Y22160  -0.344   3.886   7.571  3.7102 -0.5050 -3.1492
  191SLPC  C31222161  -0.328   3.694   7.604  0.2879 -0.4723 -1.0245
  191SLPC  H12X22162  -0.218   3.710   7.616  0.1525 -1.0524  1.5971
  191SLPC  H12Y22163  -0.343   3.593   7.561  0.8393 -1.4289  0.9062
  191SLPC  C31322164  -0.400   3.678   7.744  0.1057 -0.0996 -0.0947
  191SLPC  H13X22165  -0.510   3.668   7.733 -0.1616 -1.9844  3.0492
  191SLPC  H13Y22166  -0.374   3.762   7.812  1.0395  1.4635 -2.2972
  191SLPC  C31422167  -0.351   3.545   7.815 -0.4322 -0.1492  0.3045
  191SLPC  H14X22168  -0.243   3.521   7.807  0.0572  0.4196  3.7887
  191SLPC  H14Y22169  -0.396   3.463   7.754  1.5998 -0.7937 -0.4357
  191SLPC  C31522170  -0.388   3.540   7.960 -0.7992 -0.1319 -0.5967
  191SLPC  H15X22171  -0.499   3.547   7.956 -1.1960 -3.8285  0.6659
  191SLPC  H15Y22172  -0.343   3.630   8.007 -0.2295 -0.4441 -0.5328
  191SLPC  C31622173  -0.354   3.408   8.030 -0.1379 -1.0008 -0.2897
  191SLPC  H16X22174  -0.247   3.378   8.021  0.0027 -0.5045 -0.3032
  191SLPC  H16Y22175  -0.397   3.338   7.956  1.7012 -2.4561 -0.0597
  191SLPC  C31722176  -0.417   3.391   8.166  0.0917 -0.7828  0.2316
  191SLPC  H17X22177  -0.525   3.419   8.166  0.2750  0.2475 -2.6361
  191SLPC  H17Y22178  -0.372   3.459   8.242  0.7181 -0.2058 -0.6363
  191SLPC  C31822179  -0.412   3.245   8.219 -0.4781 -0.0641 -0.5677
  191SLPC  H18X22180  -0.307   3.208   8.224 -0.8473 -0.9558  0.8762
  191SLPC  H18Y22181  -0.464   3.175   8.150  2.7845 -0.5267 -2.8030
  191SLPC  H18Z22182  -0.450   3.241   8.323  0.0172  1.6953 -0.2875
  192SLPC     N22183   5.819   3.410   6.395 -0.8815  0.6990  0.2319
  192SLPC   C1322184   5.828   3.266   6.445  0.2935 -0.2281 -0.0899
  192SLPC  H13A22185   5.926   3.236   6.477  0.4019 -0.6960 -0.8340
  192SLPC  H13B22186   5.752   3.253   6.520  0.6448 -2.3612 -0.0339
  192SLPC  H13C22187   5.796   3.206   6.360  2.8401  0.1629 -1.4294
  192SLPC   C1422188   5.679   3.446   6.371  0.1434  0.1287  0.4059
  192SLPC  H14A22189   5.631   3.387   6.294 -0.8781  0.7061  0.5822
  192SLPC  H14B22190   5.618   3.461   6.459  0.8873 -0.2704  1.0022
  192SLPC  H14C22191   5.669   3.538   6.315 -3.0121 -1.1424 -1.4492
  192SLPC   C1522192   5.898   3.413   6.268 -0.0022  0.1997  0.3151
  192SLPC  H15A22193   5.855   3.341   6.201 -0.4162  1.1230 -0.4259
  192SLPC  H15B22194   5.887   3.511   6.223  0.3202  0.1454  0.1186
  192SLPC  H15C22195   6.001   3.391   6.291 -0.1166 -1.1187 -0.4044
  192SLPC   C1222196   5.869   3.502   6.503  0.1423 -0.0878  1.2642
  192SLPC  H12A22197   5.961   3.460   6.541  0.2449  0.0283  1.1452
  192SLPC  H12B22198   5.803   3.496   6.589  0.0174 -0.1853  1.1627
  192SLPC   C1122199   5.885   3.648   6.461 -0.3871 -0.4743  0.7691
  192SLPC  H11A22200   5.934   3.690   6.551 -2.0868  2.4218  0.4848
  192SLPC  H11B22201   5.784   3.694   6.454 -1.2953 -2.2600  1.5363
  192SLPC     P22202   6.125   3.681   6.347  0.3025 -0.2243  0.0094
  192SLPC   O1322203   6.204   3.559   6.397 -0.3670 -0.4638 -0.5068
  192SLPC   O1422204   6.160   3.722   6.209 -0.2215  0.6772 -0.7209
  192SLPC   O1222205   5.963   3.669   6.342  0.1331  0.4788 -0.3745
  192SLPC   O1122206   6.139   3.800   6.449 -0.0786  0.0005  0.5805
  192SLPC    C122207   6.084   3.930   6.416 -0.4692 -0.0664 -0.4339
  192SLPC    HA22208   5.986   3.931   6.363 -0.9075  1.0737  0.3610
  192SLPC    HB22209   6.066   3.981   6.512 -1.0260 -1.4833  0.2444
  192SLPC    C222210   6.183   4.029   6.341  0.5097 -0.0408  0.0407
  192SLPC    HS22211   6.251   3.968   6.278  0.6914  0.3619 -0.1570
  192SLPC   O2122212   6.257   4.104   6.440 -0.0823  0.0972 -0.0710
  192SLPC   C2122213   6.377   4.136   6.400 -0.5358 -0.2086  0.0928
  192SLPC   O2222214   6.422   4.118   6.289  0.4732 -0.5427 -0.0600
  192SLPC   C2222215   6.453   4.198   6.522 -0.3759  0.0301 -0.4406
  192SLPC   H2R22216   6.472   4.112   6.589 -0.2104 -0.8748 -1.6146
  192SLPC   H2S22217   6.543   4.256   6.492  0.2148  0.4547  1.9374
  192SLPC    C322218   6.108   4.132   6.251 -0.0398 -0.1520  0.0385
  192SLPC    HX22219   6.047   4.066   6.186  2.3381 -0.7670 -1.7170
  192SLPC    HY22220   6.186   4.186   6.194 -1.1653  1.1564 -0.3075
  192SLPC   O3122221   6.014   4.202   6.328  0.5265  0.0102  0.3154
  192SLPC   C3122222   6.035   4.322   6.369 -0.2349  0.0462  0.3179
  192SLPC   O3222223   6.135   4.389   6.351 -0.2764  0.2464  0.4556
  192SLPC   C3222224   5.920   4.382   6.440  0.3525 -1.0057 -0.1145
  192SLPC   H2X22225   5.832   4.314   6.446  1.0296 -1.7760  1.6266
  192SLPC   H2Y22226   5.897   4.476   6.385  1.0269 -0.4432  0.5473
  192SLPC   C2322227   6.351   4.302   6.593 -0.3364 -0.3367 -0.1491
  192SLPC   H3R22228   6.262   4.248   6.631  1.9273 -4.8697 -0.6135
  192SLPC   H3S22229   6.322   4.374   6.513 -0.3321 -1.7055 -1.4382
  192SLPC   C2422230   6.410   4.363   6.722 -0.7517 -0.2630  0.1861
  192SLPC   H4R22231   6.337   4.442   6.750  0.4454  0.9497 -0.0381
  192SLPC   H4S22232   6.505   4.419   6.714  0.4587 -2.3431 -1.0398
  192SLPC   C2522233   6.437   4.260   6.831  0.0257  0.5357  0.3125
  192SLPC   H5R22234   6.525   4.196   6.812 -1.6202 -2.8611  2.9599
  192SLPC   H5S22235   6.354   4.187   6.826  0.7492 -0.2016 -2.3146
  192SLPC   C2622236   6.450   4.310   6.975  1.1289 -0.2973  0.2646
  192SLPC   H6R22237   6.350   4.349   7.006 -0.2489 -2.4880 -1.1358
  192SLPC   H6S22238   6.520   4.396   6.983  1.0873 -0.1075 -1.1492
  192SLPC   C2722239   6.490   4.196   7.069 -0.7816  0.2309  0.4600
  192SLPC   H7R22240   6.601   4.187   7.072 -0.4509  3.2475  0.2901
  192SLPC   H7S22241   6.443   4.105   7.026 -0.3155  0.8275 -1.3600
  192SLPC   C2822242   6.432   4.210   7.214 -0.9961  0.7881 -1.1349
  192SLPC   H8R22243   6.467   4.116   7.262  0.1889  1.2236 -1.0982
  192SLPC   H8S22244   6.321   4.207   7.214 -1.0476  2.0405 -0.5151
  192SLPC   C2922245   6.495   4.337   7.278  0.5387 -0.5941  0.0422
  192SLPC   H9R22246   6.528   4.405   7.198  2.3838 -2.5412 -0.9555
  192SLPC  C21022247   6.519   4.351   7.402 -0.0549  0.5717 -1.0602
  192SLPC  H10R22248   6.582   4.436   7.433  1.9687 -0.8100 -1.2300
  192SLPC  C21122249   6.482   4.251   7.504 -0.0847 -0.1442 -0.4000
  192SLPC  H11R22250   6.394   4.187   7.482 -0.2474 -0.4773  1.1130
  192SLPC  H11S22251   6.454   4.303   7.598  1.1152 -1.7066  0.8827
  192SLPC  C21222252   6.588   4.144   7.534  0.7043  0.9731 -0.1042
  192SLPC  H12R22253   6.633   4.106   7.441  0.3691 -1.6927  0.7360
  192SLPC  C21322254   6.622   4.082   7.644 -0.4052  0.4558  0.0217
  192SLPC  H13R22255   6.710   4.016   7.635 -1.4356 -0.6544 -3.6361
  192SLPC  C21422256   6.574   4.104   7.784  0.2675  0.0356  0.7878
  192SLPC  H14R22257   6.547   4.009   7.833  0.4455 -0.7828 -0.6460
  192SLPC  H14S22258   6.488   4.174   7.786 -0.8264 -0.8893 -3.6133
  192SLPC  C21522259   6.677   4.156   7.890 -0.0709 -0.4135 -0.1216
  192SLPC  H15R22260   6.617   4.183   7.980  5.0870  3.9466  2.5970
  192SLPC  H15S22261   6.718   4.256   7.866 -0.1425 -0.2256  0.5025
  192SLPC  C21622262   6.782   4.054   7.945  0.0607  0.3807  0.0478
  192SLPC  H16R22263   6.836   4.042   7.849  0.4761  1.7900  0.0864
  192SLPC  H16S22264   6.747   3.949   7.946 -1.1106  0.7487  1.1411
  192SLPC  C21722265   6.864   4.094   8.069  0.6775 -0.2496  0.0947
  192SLPC  H17R22266   6.954   4.032   8.083  0.8920  0.2248  0.9110
  192SLPC  H17S22267   6.903   4.194   8.042 -1.4572  1.1519  1.8203
  192SLPC  C21822268   6.781   4.123   8.194  0.2946 -0.0261  0.0422
  192SLPC  H18R22269   6.714   4.211   8.187 -1.6878 -1.3882  0.9212
  192SLPC  H18S22270   6.842   4.156   8.281  0.3459 -0.4506  0.1719
  192SLPC  H18T22271   6.717   4.035   8.219 -2.0336  0.9258 -2.1520
  192SLPC   C3322272   5.948   4.429   6.584 -0.1397 -0.5588  0.2632
  192SLPC   H3X22273   5.879   4.513   6.605  0.4742 -0.0522  0.3001
  192SLPC   H3Y22274   6.043   4.486   6.591 -0.5469  0.0086  1.4787
  192SLPC   C3422275   5.948   4.312   6.679  1.0174  0.0081  0.0996
  192SLPC   H4X22276   6.039   4.250   6.661  0.7968 -0.3279  0.1413
  192SLPC   H4Y22277   5.864   4.242   6.659  0.1825  1.3451 -1.3302
  192SLPC   C3522278   5.930   4.357   6.821 -0.2301  0.2016 -0.3018
  192SLPC   H5X22279   5.830   4.405   6.831 -0.4680  0.1218 -1.9732
  192SLPC   H5Y22280   6.004   4.435   6.850  0.8350 -1.2660  1.1234
  192SLPC   C3622281   5.964   4.233   6.914 -0.8494 -0.2687 -0.5642
  192SLPC   H6X22282   6.060   4.181   6.897 -0.4761  0.0952  0.3555
  192SLPC   H6Y22283   5.887   4.159   6.884 -0.6735  0.4915 -3.1806
  192SLPC   C3722284   5.952   4.269   7.059  0.4585 -0.1444  0.0110
  192SLPC   H7X22285   5.844   4.283   7.081  0.2127  0.6273 -1.6143
  192SLPC   H7Y22286   6.004   4.362   7.088 -0.6941  0.9539 -1.3069
  192SLPC   C3822287   6.014   4.165   7.154  0.0944  0.4806 -0.8739
  192SLPC   H8X22288   6.120   4.142   7.131  0.4635 -0.8892  1.7112
  192SLPC   H8Y22289   5.952   4.075   7.130 -1.2452  1.7351 -2.3349
  192SLPC   C3922290   6.005   4.197   7.305 -0.1051  0.0251  0.2563
  192SLPC   H9X22291   5.896   4.201   7.325 -0.4039 -1.8611 -0.7168
  192SLPC   H9Y22292   6.033   4.301   7.333 -0.1319  0.5726 -1.5997
  192SLPC  C31022293   6.076   4.103   7.407 -0.7362  0.1625  0.7051
  192SLPC  H10X22294   6.184   4.093   7.381 -1.0450 -0.7557 -0.3016
  192SLPC  H10Y22295   6.030   4.003   7.397  1.4391 -1.1309  2.5924
  192SLPC  C31122296   6.070   4.155   7.546  0.2869  0.2332 -0.2183
  192SLPC  H11X22297   5.976   4.202   7.580  0.8391 -0.1244  1.9687
  192SLPC  H11Y22298   6.154   4.227   7.546  1.8329 -1.4698 -1.2601
  192SLPC  C31222299   6.108   4.055   7.651  0.0770 -0.0241 -0.5896
  192SLPC  H12X22300   6.192   3.992   7.615  0.9412  1.1357 -0.6630
  192SLPC  H12Y22301   6.015   3.998   7.670  1.0239 -0.9160  1.6221
  192SLPC  C31322302   6.139   4.128   7.790 -0.5461 -0.1143  0.0938
  192SLPC  H13X22303   6.047   4.156   7.843  1.2715 -0.2555  3.5912
  192SLPC  H13Y22304   6.201   4.221   7.787  1.3301 -1.3062 -2.4059
  192SLPC  C31422305   6.192   4.030   7.891 -0.0712  0.1310  0.4992
  192SLPC  H14X22306   6.219   4.093   7.979 -1.8347  1.8067 -0.0808
  192SLPC  H14Y22307   6.284   3.976   7.860 -1.1256 -1.3958 -0.0951
  192SLPC  C31522308   6.082   3.935   7.939 -0.4106  0.0623 -0.3855
  192SLPC  H15X22309   6.042   3.872   7.857  2.1382 -1.8667 -0.2716
  192SLPC  H15Y22310   5.995   3.996   7.972  0.1647  1.2547 -0.9980
  192SLPC  C31622311   6.127   3.822   8.039  0.5304  0.5082  0.1217
  192SLPC  H16X22312   6.155   3.877   8.131  4.4377 -3.1168  1.3927
  192SLPC  H16Y22313   6.210   3.766   7.991 -0.7046  0.2401 -1.8195
  192SLPC  C31722314   6.016   3.720   8.069 -0.6483 -0.3175 -0.4935
  192SLPC  H17X22315   6.052   3.659   8.154  2.3965  1.8796 -0.0747
  192SLPC  H17Y22316   5.968   3.668   7.983 -1.9215 -1.9519  1.1162
  192SLPC  C31822317   5.897   3.786   8.141  0.3053 -0.2098  0.4696
  192SLPC  H18X22318   5.816   3.712   8.161  0.6273 -0.7298 -0.1053
  192SLPC  H18Y22319   5.859   3.863   8.071 -2.8004 -0.4227  1.7422
  192SLPC  H18Z22320   5.920   3.822   8.243  0.0388  0.1035  0.4189
  193SOD    SOD22321   4.895   5.743   6.152 -0.3235 -0.1855  0.6884
  194SOD    SOD22322   4.382   1.486  13.660 -0.0092  0.8734  0.5379
  195SOD    SOD22323   0.014   5.630  14.598 -0.1533 -0.2263  0.2265
  196SOD    SOD22324   4.120   0.322  12.590 -0.0644 -0.4150 -0.0711
  197SOD    SOD22325   5.843   5.557   4.125 -0.9216  0.2069  0.1277
  198SOD    SOD22326   3.911   4.523  11.157 -0.2239  0.0274 -0.0431
  199SOD    SOD22327   0.366   3.250   4.700  0.2658 -0.2356  0.0687
  200SOD    SOD22328   6.353   1.415  11.362 -0.2455  0.2691  0.0840
  201SOD    SOD22329   6.336   1.253  15.327 -0.0417 -0.0705 -0.0360
  202SOD    SOD22330   6.802   6.017   4.761 -0.6158 -0.0345 -0.3176
  203SOD    SOD22331   6.126   5.497  15.917  0.0869  0.2060  0.1279
  204SOD    SOD22332   4.978   2.751  17.131 -0.2174  0.2743  0.2164
  205SOD    SOD22333   0.754   1.655   4.055  0.6736  0.4664 -0.0312
  206SOD    SOD22334   1.408   4.446   4.487 -0.1269 -0.1521  0.2248
  207SOD    SOD22335   3.504   0.602   4.237  0.3605  0.3103  0.1073
  208SOD    SOD22336   3.949   0.915  12.491 -0.0601 -0.1084 -0.0493
  209SOD    SOD22337   2.340   2.383  10.642  0.0419  0.4819  0.0261
  210SOD    SOD22338   4.452   1.211   6.499  0.0869  0.1067  0.0547
  211SOD    SOD22339   3.168   1.779  11.260 -0.0924 -0.1906 -0.3017
  212SOD    SOD22340   3.647   2.759   6.468  0.0080 -0.1732 -0.4790
  213SOD    SOD22341   0.764   4.019   3.274  0.0821 -0.1147  0.0183
  214SOD    SOD22342   0.244   5.047  13.918  0.2206 -0.3198  0.2924
  215SOD    SOD22343   6.763   1.453   5.443 -0.0462  0.2730 -0.1205
  216SOD    SOD22344   2.943   1.775   4.078 -0.0061 -0.3323  0.2357
  217SOD    SOD22345   1.759   4.362  11.491 -0.2762 -0.1856 -0.0396
  218SOD    SOD22346   6.656   3.416   6.279 -0.5871  0.2176  0.0576
  219SOD    SOD22347   2.667   3.331   3.703  0.2913  0.1102 -0.1347
  220SOD    SOD22348   5.709   5.844  10.936 -0.0132 -0.4352 -0.1857
  221SOD    SOD22349   3.488   3.995  14.557  0.0099 -0.5700  0.0770
  222SOD    SOD22350   5.132   3.868   3.322  0.2253  0.3339 -0.7657
  223SOD    SOD22351   4.461   1.874   5.098  0.2254  0.0811  0.2171
  224SOD    SOD22352   0.090   1.021   4.425  0.3296  0.1260 -0.0963
  225SOD    SOD22353   0.208   1.078   0.762 -0.5566  0.5840 -0.1072
  226SOD    SOD22354   5.493   3.324  12.267 -0.3518 -0.0171 -0.1662
  227SOD    SOD22355   0.333   4.591  13.470  0.2668  0.2098  0.5685
  228SOD    SOD22356   3.104   6.612   4.410 -0.0475 -0.3444 -0.3178
  229SOD    SOD22357   2.438   1.593  15.028  0.0649  0.1009 -0.3684
  230SOD    SOD22358   5.997   0.402   2.130  0.1717 -0.6408  0.3197
  231SOD    SOD22359   3.220   4.947   0.169 -0.5975  0.0334 -0.2940
  232SOD    SOD22360   3.899   4.931   0.897  0.6528  0.3097 -0.6169
  233SOD    SOD22361   2.037   5.894   5.960 -0.1921  0.1921 -0.1616
  234SOD    SOD22362   1.912   6.511   3.192 -0.1938  0.6565  0.2359
  235SOD    SOD22363   4.678   3.366  14.485 -0.1633 -0.1119 -0.6919
  236SOD    SOD22364   0.350   0.900  14.506 -0.3769  0.0558  0.0647
  237SOD    SOD22365   2.448   4.904  12.798  0.2764 -0.2724 -0.2528
  238SOD    SOD22366   0.978   6.019   6.258 -0.4422 -0.5641 -0.0438
  239SOD    SOD22367   5.405   0.766  16.727  0.3512  0.0530  0.4335
  240SOD    SOD22368   2.658   1.825  12.933  0.0933  0.0588 -0.1848
  241SOD    SOD22369   4.844   0.560  15.924 -0.1510  0.1322 -0.5389
  242SOD    SOD22370   6.436   4.059  12.290  0.0564 -0.0657 -0.4770
  243SOD    SOD22371   1.305   6.785  11.467  0.3891  0.2019  0.0969
  244SOD    SOD22372   4.562   5.957   3.880 -0.1167  0.0469 -0.6019
  245SOD    SOD22373   5.651   3.614   1.992 -0.5388  0.0845  0.2106
  246SOD    SOD22374   0.392   4.275  11.867 -0.2063 -0.8569 -0.0795
  247SOD    SOD22375   3.843   3.599  13.794  0.1846 -0.3092  0.2701
  248SOD    SOD22376   2.762   3.073   5.134 -0.3254  0.0936  0.1519
  249SOD    SOD22377   3.507   3.937   5.667  0.2951  0.1106 -0.0208
  250SOD    SOD22378   0.480   3.927   1.596 -0.0423 -0.6092  0.2330
  251SOD    SOD22379   2.103   5.846   0.267 -0.0045 -0.3787 -0.1617
  252SOD    SOD22380   5.311   4.868   4.544  0.0626 -0.2415 -0.1327
  253SOD    SOD22381   4.366   0.600   5.801 -0.1854 -0.4550 -0.2273
  254SOD    SOD22382   2.028   2.734  15.324  0.0241 -0.3332 -0.0412
  255SOD    SOD22383   1.292   4.812   5.854 -0.3399 -0.6662  0.2245
  256SOD    SOD22384   3.050   0.213  14.376 -0.2211  0.4705 -0.2203
  257SOD    SOD22385   6.161   0.667  16.399 -0.1000  0.0741 -0.3222
  258SOD    SOD22386   1.624   0.778   6.118 -0.1416  0.0714 -0.4397
  259SOD    SOD22387   5.937   5.653   1.380 -0.1344 -0.5150  0.0648
  260SOD    SOD22388   4.279   6.007  11.859 -0.0330  0.0284  0.1534
  261SOD    SOD22389   0.431   0.363  10.850 -0.5579 -0.2655  0.3426
  262SOD    SOD22390   5.220   5.952   5.515  0.3640  0.5183 -0.3467
  263SOD    SOD22391   4.561   5.880   1.803 -0.4899 -0.0939  0.1465
  264SOD    SOD22392   2.472   2.522   6.281 -0.0319 -0.1889  0.2292
  265SOD    SOD22393   2.273   2.799   0.282  0.3643 -0.5280 -0.5562
  266CLA    CLA22394   0.801   5.391  15.981  0.0354 -0.1743  0.2280
  267CLA    CLA22395   6.352   5.410  14.775 -0.3202 -0.0261  0.2733
  268CLA    CLA22396   5.995   2.265   1.072  0.0829  0.2589 -0.1534
  269CLA    CLA22397   3.380   2.801   0.954  0.1252  0.3773 -0.3556
  270CLA    CLA22398   0.188   1.738   1.216 -0.7366  0.2559 -0.2903
  271CLA    CLA22399   5.398   1.645   5.614 -0.0287  0.0729  0.0716
  272CLA    CLA22400   5.204   1.640  12.755 -0.4639 -0.3964  0.3240
  273CLA    CLA22401   4.368   6.222   2.101 -0.3156  0.0085 -0.1430
  274CLA    CLA22402   0.313   5.047   4.284  0.4066  0.5948  0.2084
  275CLA    CLA22403   0.864   0.485  11.756 -0.3682 -0.0093  0.1052
  276CLA    CLA22404   0.179   2.639   4.299 -0.2183  0.1441  0.4240
  277CLA    CLA22405   2.914   2.760   5.510 -0.0493 -0.0746 -0.2470
  278CLA    CLA22406   6.086   0.238  14.793  0.4050 -0.0779  0.1481
  279CLA    CLA22407   3.677   1.943   4.467 -0.2746 -0.0151  0.2753
  280CLA    CLA22408   4.126   4.256  16.608 -0.5895 -0.2696  0.1687
  281CLA    CLA22409   1.847   3.508   4.625  0.0836 -0.3224  0.8716
  282CLA    CLA22410   3.704   2.797  16.163  0.0409 -0.5751 -0.2648
  283CLA    CLA22411   0.124   1.706  14.047  0.2655  0.0685 -0.2867
  284CLA    CLA22412   4.899   4.886   3.041  0.1640  0.4591 -0.1267
  285CLA    CLA22413   6.234   2.245  17.142 -0.3342  0.1932 -0.4602
  286CLA    CLA22414   2.201   2.068  14.765  0.3006  0.0979  0.1199
  287CLA    CLA22415   5.475   1.950   0.506  0.2540  0.1693 -0.2030
  288CLA    CLA22416   0.689   4.599   4.629 -0.2682 -0.6397  0.2024
  289CLA    CLA22417   5.077   0.218   4.902  0.2579 -0.3050 -0.2724
  290CLA    CLA22418   5.284   6.273   4.308  0.4356  0.4385  0.3752
  291CLA    CLA22419   5.711   5.076  13.834 -0.3824  0.0073 -0.3670
  292CLA    CLA22420   3.380   1.046  12.356  0.3450  0.3529  0.3216
  293CLA    CLA22421   3.793   0.243   3.901  0.3211 -0.2093  0.2921
  294CLA    CLA22422   1.320   5.589   1.378 -0.1262  0.2753  0.2666
  295CLA    CLA22423   2.051   0.431   4.293 -0.0273 -0.0138 -0.2820
  296CLA    CLA22424   6.322   6.661   5.691 -0.6303 -0.4282  0.1232
  297CLA    CLA22425   4.719   4.075   1.613  0.2576  0.1156  0.1437
  298CLA    CLA22426   3.140   2.451  16.165 -0.3208  0.7238 -0.1968
  299CLA    CLA22427   5.149   3.795   2.504  0.1997  0.0777  0.3403
  300CLA    CLA22428   4.433   0.840   2.498 -0.1188  0.1567  0.2218
  301CLA    CLA22429   2.947   4.162  13.356 -0.2174 -0.0981 -0.3338
  302CLA    CLA22430   1.042   5.629  14.750  0.7336 -0.0259 -0.4529
  303CLA    CLA22431   4.784   2.602   5.063  0.2241 -0.0379 -0.4273
  304CLA    CLA22432   1.542   3.643  12.308 -0.3719 -0.2202 -0.4518
  305CLA    CLA22433   1.263   3.516   2.936  0.4604  0.3347  0.1714
  306CLA    CLA22434   1.383   4.686   0.054 -0.0042  0.3232 -0.0723
  307CLA    CLA22435   4.089   6.342  17.087 -0.1068  0.2304  0.6415
  308CLA    CLA22436   4.473   2.595  16.042 -0.2748 -0.0414 -0.3021
  309CLA    CLA22437   1.915   3.730   1.129  0.0868 -0.0626  0.3042
  310CLA    CLA22438   2.439   2.868   5.476 -0.5609 -0.3363 -0.0925
  311CLA    CLA22439   6.700   3.152  12.710 -0.0210 -0.0048 -0.0877
  312CLA    CLA22440   2.188   4.035   3.360 -0.4966 -0.1129 -0.1870
  313CLA    CLA22441   5.525   5.196   1.395  0.0136 -0.4082 -0.1881
  314CLA    CLA22442   4.882   3.459   4.333  0.1307  0.0915 -0.0686
  315CLA    CLA22443   2.441   1.215  12.058 -0.1550  0.3472 -0.4327
  316CLA    CLA22444   4.669   0.351  15.511 -0.0952 -0.1082  0.1943
  317CLA    CLA22445   1.460   4.356   6.014 -0.5146  0.2169  0.2896
  318CLA    CLA22446   0.841   5.749   2.667  0.3405  0.0056  0.2285
  319TIP3   OH222447   4.572   3.708   1.371  0.7774 -0.5688 -0.4725
  319TIP3    H122448   4.540   3.664   1.293 -2.6764 -0.8320  0.8876
  319TIP3    H222449   4.563   3.801   1.352  0.1177 -0.6306 -0.4958
  320TIP3   OH222450   1.841   4.611   1.260  0.2216 -0.1355  0.3171
  320TIP3    H122451   1.755   4.594   1.300  0.9660  0.8537  2.4532
  320TIP3    H222452   1.833   4.698   1.222  0.2823 -0.0478  0.5066
  321TIP3   OH222453   6.004   3.862   0.142  0.0315  0.2582 -1.2546
  321TIP3    H122454   5.985   3.949   0.178  1.1855 -0.1531  0.4606
  321TIP3    H222455   5.944   3.803   0.187 -0.6890  0.1282 -2.3533
  322TIP3   OH222456   3.241   3.568  12.927 -0.1447 -1.1911  0.2457
  322TIP3    H122457   3.257   3.506  12.999 -0.8934 -1.0748  0.5181
  322TIP3    H222458   3.216   3.649  12.971 -1.2766 -1.3154 -0.1555
  323TIP3   OH222459   2.066   3.961  15.710  0.0360  0.2283 -0.3915
  323TIP3    H122460   2.141   3.902  15.722  1.2423  1.9063  0.7263
  323TIP3    H222461   2.053   3.964  15.615  0.2337 -1.4642 -0.4990
  324TIP3   OH222462   1.073   6.070  12.509  0.3666  0.5881 -0.3925
  324TIP3    H122463   1.084   6.103  12.598 -2.6268  1.0060 -0.0622
  324TIP3    H222464   1.047   5.978  12.520  1.8136  0.0881 -0.9611
  325TIP3   OH222465   1.301   1.636  15.175  0.0959 -0.5143  0.1938
  325TIP3    H122466   1.269   1.596  15.256 -0.1242 -1.3420 -0.2932
  325TIP3    H222467   1.307   1.564  15.113  0.7303  0.0261 -0.3965
  326TIP3   OH222468   2.986   5.904   5.104  0.2249 -0.3363  0.1455
  326TIP3    H122469   2.986   5.820   5.149  0.1474  1.1416  3.1522
  326TIP3    H222470   3.064   5.949   5.136 -2.3614  2.6978  2.9352
  327TIP3   OH222471   1.401   1.883  15.471 -0.1819  0.7094  0.2635
  327TIP3    H122472   1.396   1.893  15.566 -0.8778  0.1726  0.2988
  327TIP3    H222473   1.430   1.792  15.458 -1.7706  0.2131 -0.0213
  328TIP3   OH222474   2.253   3.687   2.630 -0.4070  0.2130  0.3765
  328TIP3    H122475   2.187   3.716   2.693 -0.1109  1.6746  0.0526
  328TIP3    H222476   2.245   3.591   2.629 -0.5087  0.1654  2.5053
  329TIP3   OH222477   5.772   1.115   2.694  0.5685  0.8004  0.1564
  329TIP3    H122478   5.678   1.132   2.692  0.1922 -1.0446  0.9157
  329TIP3    H222479   5.811   1.201   2.710 -1.1180  1.3111  1.9291
  330TIP3   OH222480   4.680   1.465  16.863 -0.0844 -0.1118  0.2118
  330TIP3    H122481   4.700   1.503  16.777  1.1836 -0.4106  0.3444
  330TIP3    H222482   4.593   1.426  16.852  0.4879 -1.0887 -1.2846
  331TIP3   OH222483   2.445   6.440   4.206  0.1784 -0.2470  0.2595
  331TIP3    H122484   2.430   6.526   4.243  0.1819  0.1987 -0.7315
  331TIP3    H222485   2.538   6.441   4.180  0.7388 -1.2910  2.0798
  332TIP3   OH222486   5.542   3.578   4.359 -0.5146  0.2577  0.2646
  332TIP3    H122487   5.516   3.653   4.413 -0.5558 -0.0793  0.7133
  332TIP3    H222488   5.461   3.551   4.315 -0.7908 -0.3616  1.1339
  333TIP3   OH222489   6.545   3.584  11.383  0.7328 -0.1688 -0.3983
  333TIP3    H122490   6.459   3.595  11.343 -0.2336 -1.6500  1.1571
  333TIP3    H222491   6.565   3.491  11.373  0.5288 -0.5725  2.2963
  334TIP3   OH222492   0.615   0.361   6.331  0.3479  0.2932  0.1022
  334TIP3    H122493   0.697   0.410   6.330  0.2814  0.4055  0.2585
  334TIP3    H222494   0.616   0.312   6.248 -0.2437  1.6444 -0.7351
  335TIP3   OH222495   5.165   2.121  13.362  0.2039 -0.2976 -0.2324
  335TIP3    H122496   5.166   2.140  13.456 -1.0281  1.9286 -0.6043
  335TIP3    H222497   5.256   2.133  13.334  0.0237  2.6197  0.1093
  336TIP3   OH222498   5.439   3.537  11.442 -0.0199 -0.2703  0.1132
  336TIP3    H122499   5.393   3.573  11.366  0.4751 -0.5989 -0.3537
  336TIP3    H222500   5.414   3.444  11.443  0.8628 -0.5265 -0.3380
  337TIP3   OH222501   0.247   1.628   2.210 -0.3427  0.0973  0.0635
  337TIP3    H122502   0.173   1.684   2.190 -1.0142 -0.5649  0.6181
  337TIP3    H222503   0.254   1.630   2.306  0.3935  0.2010  0.0132
  338TIP3   OH222504   2.879   0.519  12.683  0.2603  0.0856  0.8014
  338TIP3    H122505   2.820   0.566  12.742  1.1134  4.3290 -1.4100
  338TIP3    H222506   2.821   0.471  12.624 -1.0131  2.3600  0.0949
  339TIP3   OH222507   3.839   2.263   6.314 -0.1317 -0.7162  0.7904
  339TIP3    H122508   3.915   2.264   6.256 -1.4394  0.4641 -1.0107
  339TIP3    H222509   3.806   2.174   6.307  0.7624 -1.0907  1.1669
  340TIP3   OH222510   0.774   4.143   4.645 -0.1780  0.0242 -0.4530
  340TIP3    H122511   0.761   4.236   4.668  0.7226  0.1178 -0.3094
  340TIP3    H222512   0.685   4.107   4.642 -0.4477  0.3927  1.5840
  341TIP3   OH222513   3.408   5.032   0.071 -0.1619  0.4834 -0.3995
  341TIP3    H122514   3.436   5.105   0.015 -0.0059 -0.7147 -1.9612
  341TIP3    H222515   3.471   4.962   0.053 -1.3861 -0.6699 -0.3684
  342TIP3   OH222516   2.996   0.144   5.622 -0.2138  0.2726 -0.6922
  342TIP3    H122517   2.908   0.179   5.615  0.7548  3.0778  0.0081
  342TIP3    H222518   3.042   0.179   5.546  1.0324  1.3598  0.5094
  343TIP3   OH222519   5.573   1.010   3.084 -1.0722 -0.0962 -0.9038
  343TIP3    H122520   5.647   0.964   3.045  0.1291  0.1844  0.8925
  343TIP3    H222521   5.560   1.086   3.028 -0.9331 -0.8642 -2.0262
  344TIP3   OH222522   2.708   5.660   0.084  0.1705  0.2248  0.3432
  344TIP3    H122523   2.735   5.591   0.023 -1.5833 -0.6707  0.5288
  344TIP3    H222524   2.779   5.665   0.148 -0.3301 -2.5706  1.2604
  345TIP3   OH222525   1.590   2.282  13.608  0.2650 -0.4723 -0.2545
  345TIP3    H122526   1.569   2.313  13.520 -2.0313  1.5291  0.8960
  345TIP3    H222527   1.625   2.359  13.653 -0.4359 -0.9250  1.1308
  346TIP3   OH222528   0.751   3.740  14.215  0.1593  0.1448 -0.5610
  346TIP3    H122529   0.843   3.717  14.205 -0.1955 -1.3271 -0.5443
  346TIP3    H222530   0.746   3.781  14.301  0.5749 -1.0057  0.0236
  347TIP3   OH222531   1.492   2.021  13.620  0.2494  0.2574 -0.1527
  347TIP3    H122532   1.511   2.114  13.633  2.4214  0.1189 -1.7328
  347TIP3    H222533   1.456   2.016  13.531 -0.7241 -0.3423  0.2559
  348TIP3   OH222534   1.830   4.177  16.211 -0.0419 -0.2622  0.2649
  348TIP3    H122535   1.876   4.237  16.153  0.3418 -0.1736  0.6554
  348TIP3    H222536   1.858   4.203  16.299 -0.7091 -0.3185  0.4965
  349TIP3   OH222537   0.685   3.520   1.002 -0.0352  0.8518 -0.3814
  349TIP3    H122538   0.683   3.587   0.935  0.8442  2.5262  1.1700
  349TIP3    H222539   0.657   3.564   1.082  0.1454 -0.7416  0.6214
  350TIP3   OH222540   2.512   0.296   6.784  0.0497 -0.4025 -0.2019
  350TIP3    H122541   2.534   0.388   6.774  0.4681 -0.5427 -0.6477
  350TIP3    H222542   2.423   0.296   6.818 -0.3089  0.1674 -1.0879
  351TIP3   OH222543   4.667   1.055  12.527 -0.2010 -0.6974  0.0172
  351TIP3    H122544   4.614   1.129  12.556  0.3840 -0.7893  1.4325
  351TIP3    H222545   4.694   1.078  12.438 -2.4748 -0.5992 -0.7137
  352TIP3   OH222546   1.876   5.100  13.717 -0.3894  0.0263  0.1852
  352TIP3    H122547   1.919   5.027  13.671  0.4871  0.6273  0.0277
  352TIP3    H222548   1.943   5.132  13.777 -0.8990  0.4633  0.5197
  353TIP3   OH222549   1.944   5.110  13.105 -0.6748  0.0272  0.7557
  353TIP3    H122550   1.877   5.045  13.083  0.5784 -1.0149 -0.1340
  353TIP3    H222551   1.955   5.102  13.199 -1.3489 -0.2359  0.8185
  354TIP3   OH222552   0.614   2.840  16.376  0.4469  0.3347  0.0663
  354TIP3    H122553   0.561   2.761  16.376  0.3297  0.4073 -1.0269
  354TIP3    H222554   0.627   2.860  16.469 -1.4714  0.3557  0.3618
  355TIP3   OH222555   1.856   5.826   5.006  0.4344  0.6496  0.2569
  355TIP3    H122556   1.840   5.865   5.092  0.7146 -0.5241  0.8656
  355TIP3    H222557   1.817   5.887   4.944  2.6921  3.0029  0.9699
  356TIP3   OH222558   5.904   0.475  16.717  0.8785  0.3714 -0.0045
  356TIP3    H122559   5.933   0.457  16.806  0.7959 -0.7896 -0.1941
  356TIP3    H222560   5.883   0.568  16.716 -0.4828  0.1234  1.5828
  357TIP3   OH222561   0.994   0.263  13.837 -0.4275 -0.1711  0.1743
  357TIP3    H122562   0.908   0.304  13.829  0.3291  1.0782 -2.4272
  357TIP3    H222563   0.976   0.175  13.871 -2.7179  0.0355 -0.3915
  358TIP3   OH222564   4.356   6.824  15.035  0.2047  0.0874 -0.5968
  358TIP3    H122565   4.359   6.917  15.056 -1.6365 -0.1579  1.0601
  358TIP3    H222566   4.405   6.781  15.105  2.6971 -0.1457 -2.3535
  359TIP3   OH222567   3.234   4.391  14.852 -0.4291  0.2456  0.3812
  359TIP3    H122568   3.224   4.426  14.940 -0.8914 -1.4253  1.0336
  359TIP3    H222569   3.327   4.372  14.845 -0.5907 -0.9388  1.0808
  360TIP3   OH222570   2.777   1.948   4.511 -0.1493 -0.3756  0.0759
  360TIP3    H122571   2.707   2.003   4.476 -0.1364 -1.2836 -1.4145
  360TIP3    H222572   2.812   1.999   4.584  0.9384  2.3929 -2.2008
  361TIP3   OH222573   0.816   4.364  14.702  0.1142  0.4351 -0.1025
  361TIP3    H122574   0.868   4.375  14.623  0.8961  0.1977  0.3702
  361TIP3    H222575   0.743   4.308  14.675  1.8232 -1.9562 -0.0487
  362TIP3   OH222576   5.790   4.417  15.535  0.5759 -0.3237  0.3539
  362TIP3    H122577   5.739   4.336  15.545  1.9168 -1.3736 -0.9162
  362TIP3    H222578   5.815   4.439  15.625 -2.0203  0.2328  1.0343
  363TIP3   OH222579   3.308   0.026   4.836 -0.0078 -0.0539  0.1687
  363TIP3    H122580   3.373   0.038   4.767 -0.1883  0.3089  0.0587
  363TIP3    H222581   3.295  -0.069   4.841 -0.5069 -0.0490 -0.7792
  364TIP3   OH222582   2.819   0.083  12.885 -0.4227 -0.1644  0.3646
  364TIP3    H122583   2.857   0.039  12.961  1.7634  0.3795 -0.3401
  364TIP3    H222584   2.880   0.154  12.865 -0.8761 -0.3513 -1.9364
  365TIP3   OH222585   4.999   4.979   1.590  0.0018 -0.0385 -0.2623
  365TIP3    H122586   5.034   5.069   1.594  0.5203 -0.2568  0.2224
  365TIP3    H222587   4.916   4.984   1.637 -1.8105  0.9907 -3.2881
  366TIP3   OH222588   5.217   2.173   5.945 -0.3524 -0.1530  0.0082
  366TIP3    H122589   5.269   2.252   5.957  0.4313 -0.7845  0.8743
  366TIP3    H222590   5.207   2.165   5.850  2.7443 -1.0339 -0.3341
  367TIP3   OH222591   2.432   6.157   4.784 -0.2890  0.6846 -0.4256
  367TIP3    H122592   2.511   6.199   4.749  1.5686 -1.3964  0.9983
  367TIP3    H222593   2.417   6.201   4.867  1.5799 -1.1732  1.0036
  368TIP3   OH222594   3.198   0.414   0.348  0.0460  0.2827  0.0914
  368TIP3    H122595   3.139   0.344   0.374  0.2351  0.1075  0.0538
  368TIP3    H222596   3.239   0.382   0.267  1.4327 -0.3286  0.9948
  369TIP3   OH222597   1.418   3.851  12.879 -0.5397 -0.3348 -0.2683
  369TIP3    H122598   1.492   3.858  12.818 -0.8012 -0.7186 -0.6397
  369TIP3    H222599   1.341   3.873  12.826 -0.7125 -0.1163  0.0686
  370TIP3   OH222600   5.108   1.465  12.120 -0.4739 -0.4739 -0.0094
  370TIP3    H122601   5.158   1.517  12.183 -0.5886  0.2877 -0.5438
  370TIP3    H222602   5.155   1.475  12.037 -1.1569 -0.2619 -0.3805
  371TIP3   OH222603   2.027   2.286   4.146 -0.2201  0.3029 -0.3495
  371TIP3    H122604   1.950   2.316   4.195 -0.7392 -0.6973 -0.5308
  371TIP3    H222605   1.996   2.210   4.097  0.7597  0.1987 -0.8269
  372TIP3   OH222606   6.342   1.499  16.080 -0.1126  0.1962 -0.5573
  372TIP3    H122607   6.285   1.543  16.016 -0.3435  0.6043 -0.0750
  372TIP3    H222608   6.335   1.553  16.159  0.5720 -0.0195 -0.3442
  373TIP3   OH222609   2.357   5.630   6.607 -0.1277  0.2140  0.0689
  373TIP3    H122610   2.390   5.654   6.694  0.6160 -2.2471  0.5481
  373TIP3    H222611   2.267   5.600   6.624  0.3098 -1.0974  0.1750
  374TIP3   OH222612   0.141   4.077  16.251 -0.5495  0.2417 -0.1969
  374TIP3    H122613   0.141   4.013  16.179 -1.1563 -0.5834  0.5161
  374TIP3    H222614   0.230   4.110  16.254 -0.3738 -0.1427 -0.9565
  375TIP3   OH222615   6.714   1.374  11.740  0.3323  0.0675  0.1768
  375TIP3    H122616   6.648   1.411  11.681 -0.5537  2.1295  2.3348
  375TIP3    H222617   6.697   1.414  11.825  2.2836 -1.9097  1.6333
  376TIP3   OH222618   1.593   4.126   5.394  0.4717  0.2058 -0.3538
  376TIP3    H122619   1.639   4.079   5.463  1.5487  3.1513  1.0941
  376TIP3    H222620   1.641   4.105   5.314  2.2797  0.5475  0.5967
  377TIP3   OH222621   0.244   6.217  11.193 -0.5504 -0.1395  0.3497
  377TIP3    H122622   0.152   6.244  11.192 -0.1856  1.2111  0.7187
  377TIP3    H222623   0.288   6.284  11.245  0.7831 -0.2829 -0.5281
  378TIP3   OH222624   2.216   2.001  15.987  0.2927  0.3981 -0.1642
  378TIP3    H122625   2.216   1.990  16.082  0.3913  0.3186 -0.1741
  378TIP3    H222626   2.211   2.096  15.974 -0.9597  0.3559 -0.0867
  379TIP3   OH222627   2.434   6.362  14.538  0.3148  0.1718  0.0429
  379TIP3    H122628   2.421   6.356  14.633 -0.1012  0.1285 -0.0160
  379TIP3    H222629   2.412   6.275  14.505 -0.9056  0.5856 -0.2503
  380TIP3   OH222630   2.444   4.853  15.481 -0.4905  0.1292 -0.3202
  380TIP3    H122631   2.476   4.763  15.489  0.5796  0.6372  2.4101
  380TIP3    H222632   2.521   4.904  15.456 -0.6607  0.5189 -0.0629
  381TIP3   OH222633   2.005   1.371  16.367 -0.1240 -0.0435 -0.1266
  381TIP3    H122634   2.043   1.329  16.289 -1.5902 -1.1115 -0.2856
  381TIP3    H222635   2.080   1.414  16.409  1.0916 -1.2956 -0.9351
  382TIP3   OH222636   0.589   2.894   4.413 -0.4659 -0.0900  0.2115
  382TIP3    H122637   0.553   2.894   4.502 -1.6960 -0.0743 -0.2664
  382TIP3    H222638   0.614   2.985   4.397  0.4389 -0.2206  0.7840
  383TIP3   OH222639   2.749   2.496   5.058  0.2174  0.2124 -0.1584
  383TIP3    H122640   2.715   2.474   5.145  0.7281  0.6041  0.1431
  383TIP3    H222641   2.692   2.448   4.998  0.4525 -0.8121  0.4276
  384TIP3   OH222642   0.334   5.488   0.416  0.2807  0.1448  0.0661
  384TIP3    H122643   0.273   5.419   0.445  1.6657 -1.2424 -0.1677
  384TIP3    H222644   0.298   5.569   0.452 -0.1186 -1.0098  2.4758
  385TIP3   OH222645   0.808   4.690   2.500 -0.1434  0.4387 -0.2461
  385TIP3    H122646   0.778   4.768   2.547 -0.6600 -0.2707  0.6354
  385TIP3    H222647   0.887   4.664   2.547  1.6746  2.0071 -2.2470
  386TIP3   OH222648   1.803   5.283   2.184  0.1803  0.5610 -0.0319
  386TIP3    H122649   1.870   5.275   2.252  1.0668  1.6578 -0.7521
  386TIP3    H222650   1.757   5.364   2.205  0.4291  0.8834 -0.7100
  387TIP3   OH222651   0.231   4.991  16.823 -0.3658  0.3251  0.2216
  387TIP3    H122652   0.144   4.960  16.800 -1.1721  1.8880  0.9842
  387TIP3    H222653   0.218   5.083  16.848  1.5747  0.7559 -0.1488
  388TIP3   OH222654   0.173   2.674  14.644 -1.2040  0.4083 -0.1521
  388TIP3    H122655   0.166   2.582  14.620 -0.4632  0.6078 -1.1873
  388TIP3    H222656   0.223   2.674  14.726  2.2923  0.0706 -2.1291
  389TIP3   OH222657   2.863   5.244   1.366 -0.4810 -0.4175  0.2507
  389TIP3    H122658   2.846   5.265   1.274 -0.9114  1.4944  0.7198
  389TIP3    H222659   2.782   5.268   1.412 -0.7205 -2.4959  0.9967
  390TIP3   OH222660   3.764   0.062   4.132  0.0039  0.0373  0.5656
  390TIP3    H122661   3.748   0.127   4.064 -0.2602 -0.5481  0.0613
  390TIP3    H222662   3.773  -0.021   4.085 -0.1292 -0.3658  1.2354
  391TIP3   OH222663   2.444   3.848  11.684  0.3795 -0.3954  0.7092
  391TIP3    H122664   2.393   3.822  11.607  0.1044 -0.9158  1.0541
  391TIP3    H222665   2.509   3.779  11.693  0.0903 -0.6088  1.2281
  392TIP3   OH222666   1.125   6.616   0.492  0.2298 -0.2466  0.2482
  392TIP3    H122667   1.180   6.543   0.464 -1.5120 -1.1731 -0.9375
  392TIP3    H222668   1.037   6.580   0.493 -0.4727  1.4244  1.2318
  393TIP3   OH222669   1.546   6.191  16.450 -0.1402  0.0607  0.1459
  393TIP3    H122670   1.552   6.098  16.469  0.8971  0.1347  0.2390
  393TIP3    H222671   1.453   6.207  16.436 -0.2507 -1.1297 -0.6216
  394TIP3   OH222672   6.183   0.857  13.815  0.6338  0.3486 -0.0185
  394TIP3    H122673   6.181   0.780  13.759 -1.4446 -0.3961  0.9833
  394TIP3    H222674   6.229   0.828  13.894  1.4954  0.7133 -0.3713
  395TIP3   OH222675   0.155   1.331   5.262  0.4369  0.0354  0.1029
  395TIP3    H122676   0.211   1.369   5.194  1.1146 -0.3585  0.4288
  395TIP3    H222677   0.194   1.245   5.279  0.5155  0.2920  1.2745
  396TIP3   OH222678   6.130   5.165  13.066  0.1296 -0.0267 -0.2642
  396TIP3    H122679   6.046   5.144  13.108 -0.0623  0.9360 -0.1297
  396TIP3    H222680   6.109   5.238  13.008  1.0262  0.7193  0.3270
  397TIP3   OH222681   6.071   2.139   5.114 -0.7945  0.4869  0.1665
  397TIP3    H122682   6.082   2.195   5.037  0.7398 -0.9833 -0.7305
  397TIP3    H222683   6.015   2.067   5.085 -0.1172 -0.1356  0.3761
  398TIP3   OH222684   3.995   2.686  14.020 -0.2333 -0.0857 -0.2297
  398TIP3    H122685   3.999   2.618  14.087  0.8056 -0.0799 -0.2833
  398TIP3    H222686   4.085   2.715  14.009 -0.4494  0.2091 -1.3382
  399TIP3   OH222687   1.677   0.153  16.235  0.1324 -0.2744  0.1702
  399TIP3    H122688   1.650   0.071  16.194  0.9973 -0.8872  0.7875
  399TIP3    H222689   1.595   0.198  16.255 -0.3254 -0.1871 -1.7267
  400TIP3   OH222690   1.882   5.332   4.380 -0.2354 -0.1225  0.3255
  400TIP3    H122691   1.957   5.391   4.374  0.9683 -1.7221 -1.5841
  400TIP3    H222692   1.821   5.377   4.438  2.1777  1.2483  1.9905
  401TIP3   OH222693   5.296   0.061   6.749 -0.3453 -0.3639 -0.1853
  401TIP3    H122694   5.213   0.023   6.719  0.9857 -1.0675 -3.3640
  401TIP3    H222695   5.355  -0.015   6.758  0.5168  0.3193  0.0761
  402TIP3   OH222696   1.486   4.828   6.009 -0.3903 -0.3823  0.5325
  402TIP3    H122697   1.472   4.908   6.059  1.2512 -0.1543  0.7018
  402TIP3    H222698   1.561   4.786   6.053 -0.2268 -1.2086 -0.5005
  403TIP3   OH222699   2.795   0.244  12.397  0.3411  0.3589  0.1903
  403TIP3    H122700   2.801   0.170  12.337  0.3658  0.4982  0.0193
  403TIP3    H222701   2.789   0.204  12.484  1.0052  0.1683  0.1540
  404TIP3   OH222702   0.415   2.077  15.799 -0.4712 -0.6128 -0.2013
  404TIP3    H122703   0.423   2.038  15.886 -2.6773 -0.8757 -0.0441
  404TIP3    H222704   0.444   2.167  15.809 -0.1360 -0.8118  0.6456
  405TIP3   OH222705   1.824   2.872   6.250  0.1533  0.0665 -1.0362
  405TIP3    H122706   1.903   2.912   6.215  1.1437 -0.6669  0.2939
  405TIP3    H222707   1.844   2.779   6.259 -0.6713 -0.0598 -0.2362
  406TIP3   OH222708   4.078   2.391  13.167  0.1321  0.5533  0.2735
  406TIP3    H122709   4.121   2.400  13.082  0.6971  1.3537  0.6407
  406TIP3    H222710   3.989   2.362  13.145 -0.0801  1.8325 -0.6535
  407TIP3   OH222711   6.462   6.103  15.042 -0.4229  0.0577  0.1823
  407TIP3    H122712   6.533   6.125  15.102 -0.9104 -0.2988  0.8999
  407TIP3    H222713   6.505   6.090  14.957  0.1207  1.8312  0.1421
  408TIP3   OH222714   3.574   4.664  11.957 -0.1159 -0.1248 -0.4208
  408TIP3    H122715   3.491   4.637  11.917 -0.0371  1.6048 -1.8859
  408TIP3    H222716   3.637   4.598  11.929 -0.7343 -0.7474 -0.3742
  409TIP3   OH222717   5.170   2.516  12.763 -0.0246  0.1978 -0.1654
  409TIP3    H122718   5.084   2.476  12.750  0.2263 -0.3129 -0.2573
  409TIP3    H222719   5.166   2.598  12.713 -0.9808  0.9277  1.0296
  410TIP3   OH222720   0.144   5.273  12.752  0.1591 -0.1261 -0.6166
  410TIP3    H122721   0.078   5.284  12.684  1.6132  1.3720 -1.8921
  410TIP3    H222722   0.111   5.202  12.807 -1.7082 -0.4980 -2.1098
  411TIP3   OH222723   2.578   0.287  13.193 -0.0174  0.3759 -0.0805
  411TIP3    H122724   2.515   0.215  13.193  0.9715 -0.5528  1.7346
  411TIP3    H222725   2.537   0.354  13.249 -1.0821  1.4384 -2.0226
  412TIP3   OH222726   3.487   4.797   4.858  0.4147  0.6755  0.0056
  412TIP3    H122727   3.491   4.707   4.890 -2.1865  1.1229  1.9770
  412TIP3    H222728   3.423   4.794   4.787 -0.6188  1.0801  0.8760
  413TIP3   OH222729   4.860   1.153  15.754 -0.1617 -0.1634 -0.0002
  413TIP3    H122730   4.939   1.199  15.724  0.7009 -0.4735  1.6842
  413TIP3    H222731   4.795   1.222  15.766  1.1046  0.7115  2.4829
  414TIP3   OH222732   0.674   1.434   4.502  0.1307 -0.0137 -0.4279
  414TIP3    H122733   0.730   1.406   4.575 -1.4030  0.0905  0.8569
  414TIP3    H222734   0.668   1.357   4.445  0.9126 -0.2778 -0.1695
  415TIP3   OH222735   2.180   5.099  10.707  0.1556 -0.3146  0.1791
  415TIP3    H122736   2.220   5.144  10.632  1.1442 -2.0674 -0.3882
  415TIP3    H222737   2.089   5.129  10.706  0.3290  0.2735 -1.2612
  416TIP3   OH222738   3.012   3.021  15.142  0.0481  0.3183 -0.1113
  416TIP3    H122739   3.001   3.086  15.211  1.4192 -0.6772  1.0995
  416TIP3    H222740   2.978   3.064  15.063 -0.8530  1.7598  1.0149
  417TIP3   OH222741   5.612   3.278  12.452  0.5237  0.0984  0.3124
  417TIP3    H122742   5.602   3.220  12.528 -1.2541  2.8050  2.3282
  417TIP3    H222743   5.706   3.277  12.433  0.9519 -1.0432  2.2344
  418TIP3   OH222744   3.521   3.212   6.419  0.3245 -0.3414  0.1735
  418TIP3    H122745   3.558   3.127   6.396  1.5244  0.4858 -1.0339
  418TIP3    H222746   3.435   3.213   6.376  1.1680 -0.1401 -1.5897
  419TIP3   OH222747   4.158   1.500   2.369  0.6763  0.0314 -0.2869
  419TIP3    H122748   4.139   1.443   2.295  1.2012 -0.7279  0.1476
  419TIP3    H222749   4.227   1.455   2.417  1.2089  1.1112 -0.0070
  420TIP3   OH222750   0.473   4.898  11.338 -0.4378  0.2122 -0.1141
  420TIP3    H122751   0.453   4.865  11.425 -0.3653  0.1536 -0.1192
  420TIP3    H222752   0.564   4.929  11.344 -1.6993  4.2956  1.0622
  421TIP3   OH222753   3.468   3.376  12.011  0.0548 -0.3735  0.4612
  421TIP3    H122754   3.540   3.395  11.951  2.0421 -0.9387  2.5142
  421TIP3    H222755   3.462   3.454  12.067 -2.3564  0.5228 -0.8706
  422TIP3   OH222756   3.304   6.599   2.607  0.5106  0.7610 -0.1377
  422TIP3    H122757   3.306   6.692   2.584 -0.9225  0.7679 -0.2860
  422TIP3    H222758   3.211   6.577   2.613  0.8252 -0.7094 -0.2789
  423TIP3   OH222759   1.266   0.401  17.161 -0.8838  0.1485 -0.2870
  423TIP3    H122760   1.223   0.450  17.091  0.7785  0.8807 -0.8486
  423TIP3    H222761   1.323   0.466  17.204  0.7273 -1.0493 -0.5061
  424TIP3   OH222762   3.005   2.263   0.518 -0.1273 -0.3650  0.2524
  424TIP3    H122763   2.911   2.244   0.517 -0.0787 -0.7063 -1.6152
  424TIP3    H222764   3.017   2.332   0.453  0.5573  1.9391  2.6487
  425TIP3   OH222765   0.022   3.722   1.039  0.2699  0.3418 -0.5021
  425TIP3    H122766  -0.041   3.673   1.091  0.6544  0.2567 -0.1091
  425TIP3    H222767  -0.018   3.730   0.952 -0.1834  0.1104 -0.3125
  426TIP3   OH222768   4.860   5.850  14.253  0.1895 -0.1187  0.0734
  426TIP3    H122769   4.768   5.878  14.246  0.3500  0.2020 -0.9294
  426TIP3    H222770   4.873   5.791  14.179  0.9503  0.2934 -0.1321
  427TIP3   OH222771   5.357   0.661   1.190 -0.0677  0.1527  0.1900
  427TIP3    H122772   5.332   0.581   1.143 -0.9170  1.5397 -1.8457
  427TIP3    H222773   5.442   0.685   1.152 -1.0169  1.5905 -1.1626
  428TIP3   OH222774   2.069   5.914  14.947  0.5277 -0.8290  0.0818
  428TIP3    H122775   1.976   5.935  14.953  0.6829 -0.4044  1.4417
  428TIP3    H222776   2.086   5.858  15.023  1.2631 -1.3771 -0.4739
  429TIP3   OH222777   6.821   1.013  16.596 -0.0978  0.0291 -0.4703
  429TIP3    H122778   6.910   1.000  16.561  0.6900 -0.2999  1.5036
  429TIP3    H222779   6.771   0.939  16.563  0.9966 -1.0650  0.2294
  430TIP3   OH222780   4.034   6.290  13.536  0.3992  0.0148 -0.0052
  430TIP3    H122781   3.960   6.259  13.484 -0.4167  1.0601  0.5031
  430TIP3    H222782   4.002   6.368  13.581  1.1748 -0.6600  1.8370
  431TIP3   OH222783   4.958   5.128  14.774 -0.0316  0.4111  0.1767
  431TIP3    H122784   5.036   5.082  14.805 -1.0882 -0.8933  1.0118
  431TIP3    H222785   4.889   5.104  14.837 -1.1066  1.5612 -0.5077
  432TIP3   OH222786   0.790   3.667   4.588  0.0719 -0.2199  0.3174
  432TIP3    H122787   0.816   3.711   4.669 -0.5064  0.0553  0.3588
  432TIP3    H222788   0.782   3.737   4.524  0.9429 -0.4861 -0.0964
  433TIP3   OH222789   3.914   6.408   0.364 -0.1958 -0.2487  0.0452
  433TIP3    H122790   3.884   6.323   0.397  0.6385 -0.9355 -0.9114
  433TIP3    H222791   3.909   6.400   0.269 -1.0028  1.1198 -0.0605
  434TIP3   OH222792   2.745   5.597   6.198 -0.2508  0.0368  0.7042
  434TIP3    H122793   2.743   5.690   6.218  0.3304  0.2132 -0.0197
  434TIP3    H222794   2.816   5.562   6.251 -1.7628 -0.4019  2.5469
  435TIP3   OH222795   4.846   0.624  14.688  0.3869 -0.1461  0.4696
  435TIP3    H122796   4.860   0.695  14.750 -0.0014  1.3332 -1.0345
  435TIP3    H222797   4.920   0.565  14.701 -0.0745 -0.3057  2.8056
  436TIP3   OH222798   1.514   1.619   2.765  0.1272 -0.3063 -0.1291
  436TIP3    H122799   1.529   1.612   2.670  0.3547  0.2692 -0.1368
  436TIP3    H222800   1.503   1.528   2.794  0.9229 -0.5491 -0.5694
  437TIP3   OH222801   3.517   4.224  14.590  0.4402  0.0883 -0.0368
  437TIP3    H122802   3.477   4.288  14.532  1.4270 -0.0566 -0.9049
  437TIP3    H222803   3.524   4.269  14.675 -1.2429  0.2109  0.0703
  438TIP3   OH222804   5.653   6.495  16.269  0.0669  0.4822  0.8481
  438TIP3    H122805   5.583   6.548  16.307 -0.5869  2.1993 -2.3619
  438TIP3    H222806   5.610   6.414  16.244 -0.4969  0.9732  0.1658
  439TIP3   OH222807   3.774   3.152  13.087  0.1384  0.2116 -0.1679
  439TIP3    H122808   3.798   3.234  13.045 -1.7774  0.5568 -0.6628
  439TIP3    H222809   3.743   3.096  13.016 -1.0085 -0.0023  0.4745
  440TIP3   OH222810   0.337   0.788   4.116  0.0648 -0.4563  0.0645
  440TIP3    H122811   0.400   0.720   4.091  1.4587  0.9836 -0.5719
  440TIP3    H222812   0.274   0.789   4.044  1.0707  0.1099 -0.8466
  441TIP3   OH222813   0.635   6.382  16.994  0.1338  0.3349 -0.2901
  441TIP3    H122814   0.680   6.464  17.013  1.2378  0.0284 -1.4798
  441TIP3    H222815   0.562   6.380  17.056  2.1674  0.4829  2.2770
  442TIP3   OH222816   3.943   2.405   1.120  0.5252  0.1885  0.6333
  442TIP3    H122817   3.887   2.343   1.073  0.3767  0.5620  0.3089
  442TIP3    H222818   3.882   2.469   1.158  0.5713 -0.6106  2.1134
  443TIP3   OH222819   2.916   4.922   5.593  0.4791 -0.3231 -0.0517
  443TIP3    H122820   2.883   4.967   5.516  0.9713 -1.0417 -0.7094
  443TIP3    H222821   3.011   4.933   5.588  0.5489 -0.7719  0.1882
  444TIP3   OH222822   4.427   0.827   4.071  0.2783 -0.1452 -0.4003
  444TIP3    H122823   4.372   0.760   4.032  0.1155  0.9542 -2.1604
  444TIP3    H222824   4.366   0.894   4.101  0.5664  0.5488 -1.3179
  445TIP3   OH222825   3.708   2.975   1.486  0.0857  0.2680 -0.3098
  445TIP3    H122826   3.724   2.970   1.580  0.7319 -2.0019 -0.4859
  445TIP3    H222827   3.615   2.997   1.478 -0.9249 -2.9871  0.9641
  446TIP3   OH222828   6.096   6.065  13.565  0.4437  0.6398 -0.4169
  446TIP3    H122829   6.173   6.008  13.563 -0.5989 -1.0108  1.8184
  446TIP3    H222830   6.075   6.080  13.473  2.0441 -0.8233 -1.0844
  447TIP3   OH222831   4.230   4.912  11.474  0.2839  0.0427  0.3319
  447TIP3    H122832   4.220   4.829  11.427 -3.7312  1.0554 -1.0531
  447TIP3    H222833   4.258   4.975  11.407 -0.9692  0.5970  0.3004
  448TIP3   OH222834   6.513   1.330   4.292  0.5343 -0.0460 -0.0542
  448TIP3    H122835   6.567   1.365   4.363 -0.5152  1.0228  0.2629
  448TIP3    H222836   6.573   1.279   4.238  1.4257 -0.6311  1.4262
  449TIP3   OH222837   4.255   6.637  15.819 -0.7025 -0.1579 -0.1332
  449TIP3    H122838   4.178   6.689  15.798 -0.0690  0.3306 -1.3077
  449TIP3    H222839   4.324   6.701  15.836 -0.7635 -0.5516  1.9640
  450TIP3   OH222840   2.515   5.259  13.465 -0.8239  0.2872 -0.5092
  450TIP3    H122841   2.508   5.354  13.458 -2.7727  0.3053  0.9245
  450TIP3    H222842   2.609   5.241  13.453  0.1992  2.7351  2.4079
  451TIP3   OH222843   1.585   2.569   4.961 -0.1070 -0.8852 -0.8410
  451TIP3    H122844   1.659   2.542   5.015 -0.5180 -0.8659 -0.2607
  451TIP3    H222845   1.626   2.612   4.885  0.4698  1.1804  0.5405
  452TIP3   OH222846   2.915   3.420  16.568  0.2071 -0.1933 -0.4474
  452TIP3    H122847   2.838   3.441  16.515 -0.3700 -0.2784  0.3453
  452TIP3    H222848   2.886   3.348  16.625  0.5617  0.4209  0.5412
  453TIP3   OH222849   6.095   3.366  11.165  0.1928  0.2213 -0.6570
  453TIP3    H122850   6.045   3.288  11.187 -0.6143  0.8907 -0.0433
  453TIP3    H222851   6.091   3.371  11.069 -0.4481 -0.0364 -0.6437
  454TIP3   OH222852   5.342   0.702   3.117  0.3683  0.2451  0.0388
  454TIP3    H122853   5.419   0.645   3.115  0.3231  0.2029 -0.5204
  454TIP3    H222854   5.370   0.778   3.169  0.7689  0.2071 -0.1190
  455TIP3   OH222855   4.291   6.635  13.637 -0.0407 -0.1430  0.4516
  455TIP3    H122856   4.199   6.611  13.631  0.1609 -1.5020  2.0192
  455TIP3    H222857   4.313   6.624  13.729  1.9128 -0.8147 -0.0347
  456TIP3   OH222858   1.608   0.069   1.774 -0.2718  0.2429  0.2023
  456TIP3    H122859   1.517   0.087   1.799 -0.8146 -0.4381 -1.1755
  456TIP3    H222860   1.621   0.120   1.694  0.8306  0.9604  0.8112
  457TIP3   OH222861   6.206   0.859   2.868 -0.4792 -0.3606  1.2595
  457TIP3    H122862   6.183   0.930   2.927  3.0473  0.5908  1.7217
  457TIP3    H222863   6.130   0.801   2.869 -2.2313  1.7795  3.3365
  458TIP3   OH222864   4.268   2.717   0.605 -0.4348 -0.3785  0.0488
  458TIP3    H122865   4.225   2.713   0.519 -1.1067  1.4858  0.2494
  458TIP3    H222866   4.351   2.671   0.593 -0.5103 -0.1331 -1.6094
  459TIP3   OH222867   1.775   4.461  15.145  0.0117  1.0012 -0.5434
  459TIP3    H122868   1.789   4.383  15.199 -0.4208  0.8856 -0.5990
  459TIP3    H222869   1.718   4.431  15.074 -0.3274  1.4147 -0.4486
  460TIP3   OH222870   4.455   3.017   4.765 -0.7256 -0.0618  0.2150
  460TIP3    H122871   4.507   2.941   4.737 -1.5687 -0.6980  0.3459
  460TIP3    H222872   4.491   3.090   4.714  1.6179 -0.0695  1.6895
  461TIP3   OH222873   4.546   2.858   2.828 -0.3277  0.2117 -0.2967
  461TIP3    H122874   4.495   2.907   2.763  1.4146  1.1605 -1.0154
  461TIP3    H222875   4.480   2.815   2.883 -1.8720  0.6187 -1.7452
  462TIP3   OH222876   3.888   5.058  14.802 -0.2816  0.2570 -0.2398
  462TIP3    H122877   3.934   5.072  14.719  0.4000 -0.4650  0.0070
  462TIP3    H222878   3.826   4.988  14.784 -1.2576  1.1850 -0.5548
  463TIP3   OH222879   1.921   2.806  13.169  0.7102 -0.0386  0.3663
  463TIP3    H122880   1.844   2.791  13.224 -0.0911 -1.0832 -0.9833
  463TIP3    H222881   1.955   2.719  13.152  0.2522  0.1439 -1.7090
  464TIP3   OH222882   3.223   6.310   0.721  0.0776 -0.3952 -0.3175
  464TIP3    H122883   3.210   6.271   0.634  1.3511 -2.1552  0.2343
  464TIP3    H222884   3.315   6.291   0.742 -0.2567 -0.1334  1.4849
  465TIP3   OH222885   1.593   3.712   1.784  0.8891 -0.0007  0.4801
  465TIP3    H122886   1.680   3.714   1.824  0.8116  1.0101  0.6261
  465TIP3    H222887   1.577   3.802   1.755  1.0098 -0.7121 -2.0354
  466TIP3   OH222888   3.464   5.619  10.775  0.2331  0.1935 -0.3655
  466TIP3    H122889   3.436   5.546  10.830  1.6506  0.1897  0.3935
  466TIP3    H222890   3.423   5.602  10.690 -2.5163  0.5213  0.7766
  467TIP3   OH222891   3.997   5.239   4.407 -0.4128  0.3168 -0.1699
  467TIP3    H122892   4.017   5.149   4.434  0.2531  0.1205 -1.2739
  467TIP3    H222893   4.042   5.294   4.471 -1.1713 -0.1254  0.7619
  468TIP3   OH222894   4.488   5.718   1.969 -0.4391  1.3670  0.3354
  468TIP3    H122895   4.467   5.632   1.931  1.2898  1.4586 -0.9945
  468TIP3    H222896   4.460   5.712   2.060  1.1062 -1.2420  0.7628
  469TIP3   OH222897   5.320   2.529   1.392 -0.1740 -0.0951 -0.4390
  469TIP3    H122898   5.410   2.496   1.397 -0.8542 -2.5235 -2.4172
  469TIP3    H222899   5.266   2.451   1.402 -2.1192  1.3569  1.0017
  470TIP3   OH222900   2.378   1.000   5.614  0.1777  0.1045 -0.1001
  470TIP3    H122901   2.401   0.937   5.683  1.8067  1.2354  0.4439
  470TIP3    H222902   2.317   0.952   5.558 -0.4423 -1.1765  1.5704
  471TIP3   OH222903   2.075   2.485   2.459  0.3918 -0.6818  0.6070
  471TIP3    H122904   2.010   2.528   2.403 -0.4788 -1.6077  0.8695
  471TIP3    H222905   2.114   2.417   2.404 -1.2814 -2.3619  1.3942
  472TIP3   OH222906   5.220   4.660   1.731 -0.3167  0.4888  0.0812
  472TIP3    H122907   5.167   4.673   1.652 -0.0618  0.4382 -0.0979
  472TIP3    H222908   5.187   4.725   1.793 -3.0135 -1.7203  1.2354
  473TIP3   OH222909   3.005   6.732  10.864 -0.1357 -0.0677 -0.0359
  473TIP3    H122910   2.966   6.782  10.793  1.8434 -0.3633 -1.4172
  473TIP3    H222911   2.980   6.779  10.943 -0.5479  1.5675 -1.0879
  474TIP3   OH222912   4.100   1.994   4.458 -1.2243  0.4204 -0.0919
  474TIP3    H122913   4.032   2.059   4.440 -1.6449 -0.0037 -0.0353
  474TIP3    H222914   4.061   1.911   4.433 -1.1862  0.0221  1.1276
  475TIP3   OH222915   2.262   6.678   4.086 -0.0716 -0.0483  0.1667
  475TIP3    H122916   2.329   6.678   4.018 -1.1853 -0.0993 -0.9775
  475TIP3    H222917   2.308   6.704   4.165  1.3333 -0.2944 -0.5372
  476TIP3   OH222918   6.386   0.920  16.686  0.4412  0.2156 -1.0253
  476TIP3    H122919   6.315   0.923  16.751  1.0156 -0.1810 -0.3629
  476TIP3    H222920   6.388   1.008  16.649  0.8119  0.7809  0.2821
  477TIP3   OH222921   0.706   0.060   3.535  0.2754 -0.0318  0.1649
  477TIP3    H122922   0.704  -0.027   3.495  0.4004 -0.6643  1.4594
  477TIP3    H222923   0.763   0.112   3.479  0.5232 -0.9076 -0.4063
  478TIP3   OH222924   2.096   1.457   5.059  0.2315 -0.1623 -0.1557
  478TIP3    H122925   2.106   1.449   5.154  0.2756 -0.8855 -0.2090
  478TIP3    H222926   2.028   1.523   5.047 -0.8243 -1.0971  0.4293
  479TIP3   OH222927   5.346   5.626   2.831  0.6633  0.7295  0.2251
  479TIP3    H122928   5.373   5.695   2.770  1.5653  1.8287  1.7785
  479TIP3    H222929   5.343   5.547   2.778  0.2932  1.8183 -1.4779
  480TIP3   OH222930   6.797   0.588  15.069 -0.3814 -0.2831  0.0504
  480TIP3    H122931   6.820   0.646  15.141 -1.0697 -0.3374  0.3266
  480TIP3    H222932   6.701   0.596  15.062 -0.4194 -0.9473 -0.2818
  481TIP3   OH222933   4.536   0.319   2.353 -0.4513 -0.1884  0.2920
  481TIP3    H122934   4.494   0.361   2.278 -0.3049  0.6633  0.6789
  481TIP3    H222935   4.495   0.232   2.358  0.4178 -0.7501 -1.5296
  482TIP3   OH222936   0.822   6.197   2.911 -0.3904  0.5583 -0.4134
  482TIP3    H122937   0.786   6.275   2.953  1.1394  1.9710 -1.5841
  482TIP3    H222938   0.765   6.181   2.836 -2.1403 -0.9680  1.1668
  483TIP3   OH222939   0.660   1.742   3.126 -0.1790 -0.1991  0.6882
  483TIP3    H122940   0.608   1.741   3.046  1.5926 -0.5344 -0.5270
  483TIP3    H222941   0.611   1.799   3.186 -0.9647  1.0459 -1.0423
  484TIP3   OH222942   5.645   1.265   1.863  0.6665 -0.3628 -0.2610
  484TIP3    H122943   5.635   1.277   1.958  0.9736 -0.0051 -0.2665
  484TIP3    H222944   5.604   1.181   1.844  0.2855 -0.2704  0.1351
  485TIP3   OH222945   4.079   5.569   3.830 -0.2842 -0.5178  0.4926
  485TIP3    H122946   4.135   5.492   3.825 -1.0216 -1.0744  0.6256
  485TIP3    H222947   4.069   5.586   3.924  0.4627  0.1826  0.4527
  486TIP3   OH222948   5.717   5.762  11.147 -0.1655  0.0732  0.0293
  486TIP3    H122949   5.672   5.702  11.206  2.1113 -0.3515  1.4546
  486TIP3    H222950   5.761   5.824  11.205  2.0320 -0.2542 -1.1846
  487TIP3   OH222951   1.265   0.965   3.384 -0.4536  0.2902  0.2941
  487TIP3    H122952   1.201   0.904   3.422 -1.1638  0.4710 -0.5897
  487TIP3    H222953   1.219   1.004   3.310  0.6220  0.5819 -0.2277
  488TIP3   OH222954   0.960   2.297   5.652 -0.0675 -0.0309 -0.1382
  488TIP3    H122955   0.875   2.262   5.625 -0.5440 -0.6058  1.9701
  488TIP3    H222956   0.947   2.392   5.654 -0.9381 -0.1555  0.9684
  489TIP3   OH222957   5.436   4.271   5.460  0.4585  0.3354  0.3403
  489TIP3    H122958   5.429   4.357   5.502  1.0646  0.0048  1.1332
  489TIP3    H222959   5.528   4.248   5.466  0.3420 -0.2715 -0.0803
  490TIP3   OH222960   5.571   1.374  11.523 -0.2798 -0.5708 -0.1302
  490TIP3    H122961   5.662   1.344  11.524 -0.2878 -0.9700 -2.9070
  490TIP3    H222962   5.519   1.294  11.518 -0.8645 -0.3573  1.6485
  491TIP3   OH222963   5.939   2.532  16.251 -0.3553 -0.0982  0.0570
  491TIP3    H122964   5.976   2.524  16.339 -0.1364 -0.2233 -0.0442
  491TIP3    H222965   5.967   2.619  16.222  1.0745 -0.7350 -0.5728
  492TIP3   OH222966   0.716   6.451  16.229  0.1833 -0.1818 -0.2716
  492TIP3    H122967   0.794   6.406  16.197  0.6114  0.9533 -0.8411
  492TIP3    H222968   0.745   6.501  16.305 -0.2167 -0.5420  0.1304
  493TIP3   OH222969   1.615   0.206  11.410  0.0479  0.8591 -0.7123
  493TIP3    H122970   1.666   0.141  11.458  2.1860  0.2914 -3.5361
  493TIP3    H222971   1.524   0.176  11.418  0.8679 -2.0384 -1.2332
  494TIP3   OH222972   0.301   3.659   0.166  0.4437  0.0043  0.1358
  494TIP3    H122973   0.289   3.737   0.221  2.7657 -0.0676  0.8407
  494TIP3    H222974   0.395   3.656   0.149  0.2986 -2.2294 -0.5569
  495TIP3   OH222975   3.981   6.072   1.520 -1.0084 -0.1020  0.3031
  495TIP3    H122976   4.055   6.030   1.476 -0.3200  1.8420 -0.5602
  495TIP3    H222977   3.987   6.044   1.611  1.7367  1.1242  0.5878
  496TIP3   OH222978   6.117   0.406   4.694 -0.2168  0.0635  0.3019
  496TIP3    H122979   6.175   0.400   4.770 -0.1809 -0.8548  0.2235
  496TIP3    H222980   6.041   0.353   4.718 -0.3359  0.0042 -0.1844
  497TIP3   OH222981   5.221   1.525  11.860 -0.1862 -0.4836  0.0363
  497TIP3    H122982   5.167   1.599  11.833 -0.5930 -0.3776  1.0918
  497TIP3    H222983   5.170   1.448  11.835  0.2347 -0.4290 -1.0582
  498TIP3   OH222984   5.951   3.184   1.402  0.2518  0.0817 -0.3309
  498TIP3    H122985   5.897   3.228   1.468 -0.6473  0.1740 -1.1012
  498TIP3    H222986   5.892   3.120   1.362  1.6214 -2.1446  1.0025
  499TIP3   OH222987   3.870   4.548   5.196  0.5995  0.4715  0.1685
  499TIP3    H122988   3.894   4.485   5.127  4.3538  2.2415 -0.3728
  499TIP3    H222989   3.875   4.498   5.277  0.8869 -0.5321 -0.4494
  500TIP3   OH222990   3.290   2.364   3.638  0.5428 -0.3504  0.4995
  500TIP3    H122991   3.297   2.447   3.591 -0.8459 -0.9424 -0.8299
  500TIP3    H222992   3.356   2.370   3.707  0.0927  2.0971  0.8045
  501TIP3   OH222993   3.631   3.998   2.086  0.2794 -0.6148  0.1037
  501TIP3    H122994   3.704   4.021   2.144  0.8986 -1.5463 -0.2763
  501TIP3    H222995   3.672   3.958   2.010 -0.5121  0.8323 -1.1297
  502TIP3   OH222996   3.189   6.572   3.585  0.3662  0.2963  0.2987
  502TIP3    H122997   3.197   6.667   3.579 -0.6440  0.3206 -1.2266
  502TIP3    H222998   3.107   6.557   3.631  0.3854  0.1583  0.2906
  503TIP3   OH222999   0.036   0.208  14.356  0.2495  0.0132 -0.6245
  503TIP3    H123000   0.047   0.240  14.446 -2.7665 -0.0842 -0.0954
  503TIP3    H223001   0.017   0.115  14.366 -0.2690  0.0353 -1.3108
  504TIP3   OH223002   6.813   5.919  16.568  0.2725  0.5523 -0.2034
  504TIP3    H123003   6.736   5.975  16.570 -0.6849 -0.6996 -0.7498
  504TIP3    H223004   6.780   5.832  16.589  1.9224  0.3427  1.9937
  505TIP3   OH223005   6.614   2.333   5.281 -0.3150 -0.1846  0.2052
  505TIP3    H123006   6.597   2.407   5.223 -1.7480  0.0302  0.8820
  505TIP3    H223007   6.595   2.365   5.369  1.1735 -0.7139  0.7602
  506TIP3   OH223008   1.785   1.474   4.765 -0.5211  0.3099 -0.0835
  506TIP3    H123009   1.839   1.396   4.750 -1.2443 -0.2638  0.2313
  506TIP3    H223010   1.703   1.454   4.720 -1.5781 -0.1133  1.9337
  507TIP3   OH223011   0.487   1.770   5.901 -0.9156 -0.3820 -0.1681
  507TIP3    H123012   0.398   1.759   5.933 -0.6877 -2.7851 -0.1692
  507TIP3    H223013   0.542   1.756   5.977 -0.5173  1.1129 -0.1643
  508TIP3   OH223014   5.015   6.082  17.106 -0.1932  0.2335 -0.5204
  508TIP3    H123015   5.016   5.987  17.096 -0.6098 -0.0518  1.5740
  508TIP3    H223016   4.953   6.098  17.177  2.2135  1.7735  1.4155
  509TIP3   OH223017   3.474   5.274   4.104  0.5710  0.2908 -0.1567
  509TIP3    H123018   3.562   5.281   4.066  0.7634 -2.6394 -0.4963
  509TIP3    H223019   3.415   5.276   4.029  0.2418  2.7753  0.1076
  510TIP3   OH223020   6.710   5.612  15.435 -0.2026 -0.2480 -0.3410
  510TIP3    H123021   6.647   5.540  15.424  0.6105 -0.9440 -0.5186
  510TIP3    H223022   6.710   5.656  15.349 -1.5120  0.6697  0.0889
  511TIP3   OH223023   5.756   1.972   3.798  0.1007 -0.0697 -0.0397
  511TIP3    H123024   5.708   2.025   3.861  0.5285 -0.0395  0.2659
  511TIP3    H223025   5.790   1.899   3.849  1.1720  0.4018 -0.0440
  512TIP3   OH223026   1.579   2.024   0.121 -0.5750  0.0742 -0.1438
  512TIP3    H123027   1.637   2.048   0.049 -1.1843  0.1684 -0.6065
  512TIP3    H223028   1.570   2.105   0.172 -0.7444  0.2082 -0.3841
  513TIP3   OH223029   1.332   3.745   3.774 -0.2848 -0.0965 -0.5500
  513TIP3    H123030   1.327   3.724   3.680  1.0053 -0.3464 -0.5821
  513TIP3    H223031   1.417   3.787   3.784  0.4757 -1.8259  0.8175
  514TIP3   OH223032   1.146   6.329  12.371  0.2434  0.3858  0.3176
  514TIP3    H123033   1.238   6.355  12.376  0.1667  0.5204  1.3043
  514TIP3    H223034   1.131   6.281  12.453 -0.9176  1.5120  0.7847
  515TIP3   OH223035   5.640   5.266   4.304 -0.0451  0.3428 -0.2504
  515TIP3    H123036   5.676   5.270   4.216 -0.8256  2.2765 -0.5412
  515TIP3    H223037   5.572   5.333   4.305 -0.1272  0.2993  1.8005
  516TIP3   OH223038   2.450   0.285   4.840 -0.1923 -0.6108  0.7010
  516TIP3    H123039   2.380   0.323   4.788  0.1174  0.3289  0.9430
  516TIP3    H223040   2.493   0.222   4.782  1.1326  1.5133 -0.7575
  517TIP3   OH223041   2.885   6.746   2.171 -0.4319 -0.4645  0.4049
  517TIP3    H123042   2.807   6.746   2.115 -0.4272  2.6718  0.2611
  517TIP3    H223043   2.852   6.728   2.259 -1.1660 -0.2598  0.1755
  518TIP3   OH223044   2.189   1.558   5.772  0.1805  0.0389 -0.1852
  518TIP3    H123045   2.129   1.527   5.704 -0.1149  0.8138 -0.2838
  518TIP3    H223046   2.226   1.478   5.808 -2.1252 -0.5997  1.0073
  519TIP3   OH223047   5.509   1.771   1.661  0.1069 -0.7242  0.4072
  519TIP3    H123048   5.557   1.847   1.693 -0.1137 -0.1863 -0.5069
  519TIP3    H223049   5.546   1.754   1.574 -1.9156  0.2592 -0.7132
  520TIP3   OH223050   0.733   5.958   1.060  0.1280 -0.6566  0.4200
  520TIP3    H123051   0.699   5.875   1.092  0.0744 -0.2232  1.5476
  520TIP3    H223052   0.802   5.981   1.122  0.2284  0.0673  0.0489
  521TIP3   OH223053   3.767   5.860  13.099 -0.1988  0.6428 -0.2293
  521TIP3    H123054   3.678   5.888  13.079  0.0411  2.1862  0.7171
  521TIP3    H223055   3.823   5.926  13.056  0.3836  1.6692  1.9561
  522TIP3   OH223056   1.805   5.680   0.698 -0.1532 -0.2802 -0.0823
  522TIP3    H123057   1.755   5.614   0.746 -0.0742 -0.0382  0.3389
  522TIP3    H223058   1.886   5.635   0.672  0.7123  0.1328  1.7509
  523TIP3   OH223059   6.229   1.678   3.000  0.1198  1.1708 -0.1606
  523TIP3    H123060   6.323   1.692   2.990  0.4077 -0.7059 -0.4220
  523TIP3    H223061   6.212   1.700   3.092  1.0805  0.2844  0.2523
  524TIP3   OH223062   5.922   6.779   2.304 -0.4230  0.5659  0.5513
  524TIP3    H123063   5.874   6.837   2.363 -0.4681  0.6985  0.3864
  524TIP3    H223064   5.991   6.741   2.358  0.3765  1.7145  0.3782
  525TIP3   OH223065   6.172   0.570   0.417  0.3755 -0.6186 -0.2247
  525TIP3    H123066   6.175   0.549   0.511  2.1264 -1.6421 -0.4614
  525TIP3    H223067   6.195   0.662   0.412 -1.5740 -0.0488  0.4457
  526TIP3   OH223068   6.026   2.489  15.831  0.3346  0.4525 -0.1087
  526TIP3    H123069   6.039   2.584  15.837 -0.7958  0.5982  0.2513
  526TIP3    H223070   6.031   2.458  15.921  3.0431 -0.2015 -0.4046
  527TIP3   OH223071   5.069   5.528   4.901 -0.1495 -0.1610 -0.6650
  527TIP3    H123072   5.091   5.620   4.915  0.9289 -0.5238  0.1310
  527TIP3    H223073   5.123   5.480   4.963  0.0106 -1.4069 -1.7130
  528TIP3   OH223074   1.613   4.512  13.970 -0.3288 -0.4755 -0.1044
  528TIP3    H123075   1.708   4.508  13.957 -0.3396 -0.1832 -0.2746
  528TIP3    H223076   1.599   4.470  14.055 -0.0674 -0.6921 -0.1650
  529TIP3   OH223077   2.785   6.632   2.646  0.1115  0.1295 -0.0966
  529TIP3    H123078   2.723   6.705   2.654  0.1770 -0.0069  2.7356
  529TIP3    H223079   2.871   6.673   2.659  0.4106 -0.0736 -1.3419
  530TIP3   OH223080   3.096   2.998  12.136  0.1448 -0.0638  0.5623
  530TIP3    H123081   3.033   3.066  12.162  1.5323  1.0061  1.3012
  530TIP3    H223082   3.122   3.022  12.048  1.4039  1.0156  1.1967
  531TIP3   OH223083   3.691   0.829   2.262 -0.2035  0.4385  0.1596
  531TIP3    H123084   3.715   0.897   2.325 -0.6679  1.6786 -0.9542
  531TIP3    H223085   3.767   0.822   2.204 -0.4932  0.6135 -0.2408
  532TIP3   OH223086   3.984   4.589   4.797 -0.0545  0.1793 -0.2002
  532TIP3    H123087   3.927   4.630   4.862  0.2581 -0.1657  0.2976
  532TIP3    H223088   4.070   4.626   4.812 -0.0585  0.3945 -0.6838
  533TIP3   OH223089   4.146   4.517  14.782  0.3124  0.2729 -0.2860
  533TIP3    H123090   4.198   4.437  14.793 -1.4758 -1.3426 -2.6131
  533TIP3    H223091   4.200   4.586  14.820  3.6280 -1.4422 -1.4822
  534TIP3   OH223092   3.529   5.753  12.123 -0.4882 -0.5662 -0.0664
  534TIP3    H123093   3.480   5.686  12.171 -0.9688 -1.5608 -1.8744
  534TIP3    H223094   3.558   5.709  12.043 -0.9374  1.4124 -1.3890
  535TIP3   OH223095   3.059   2.155  13.663  0.2680 -0.2833 -0.0747
  535TIP3    H123096   3.100   2.197  13.739 -0.7859  0.6046  0.0169
  535TIP3    H223097   3.133   2.127  13.609  1.0585  2.0181 -0.3173
  536TIP3   OH223098   1.146   3.583  16.283  0.2605 -0.1206  0.1733
  536TIP3    H123099   1.212   3.527  16.243 -1.2675 -1.7752 -0.1507
  536TIP3    H223100   1.110   3.633  16.210  0.6805  0.3038  0.2485
  537TIP3   OH223101   6.747   0.352  15.666  0.4794 -0.4989  0.0972
  537TIP3    H123102   6.695   0.359  15.587  0.4493 -0.0688  0.1520
  537TIP3    H223103   6.805   0.277  15.650 -0.2254 -1.0422  0.0851
  538TIP3   OH223104   4.781   6.310  16.190  0.1483 -0.0478  0.0160
  538TIP3    H123105   4.819   6.283  16.106  0.6369  0.0478  0.2017
  538TIP3    H223106   4.824   6.393  16.209 -0.4871  0.2810  0.0173
  539TIP3   OH223107   4.840   2.184   1.925 -0.1549 -0.3030  0.3980
  539TIP3    H123108   4.874   2.176   2.014  0.9843  0.4432  0.0388
  539TIP3    H223109   4.908   2.147   1.870 -1.2253 -1.5725 -0.1350
  540TIP3   OH223110   6.115   4.637  15.253  0.2283  0.3213  0.3159
  540TIP3    H123111   6.159   4.691  15.319 -0.0131  1.0512 -0.1146
  540TIP3    H223112   6.131   4.547  15.282  0.3246  0.6268  1.2413
  541TIP3   OH223113   6.258   6.440   2.755  0.3241 -0.2739  0.0369
  541TIP3    H123114   6.222   6.360   2.717 -1.4737  1.1464 -1.4998
  541TIP3    H223115   6.183   6.499   2.760  1.7983  1.7051  0.0097
  542TIP3   OH223116   6.348   0.165   5.683  0.2445  0.2340  0.2446
  542TIP3    H123117   6.356   0.070   5.688 -1.6500 -0.0218 -0.6677
  542TIP3    H223118   6.364   0.185   5.590  2.9050  1.1154  0.8121
  543TIP3   OH223119   6.601   3.591   0.252 -0.2960 -0.2136  0.4578
  543TIP3    H123120   6.692   3.573   0.226 -0.8490  0.0281 -1.8788
  543TIP3    H223121   6.587   3.683   0.227 -1.2167 -0.2822  0.7023
  544TIP3   OH223122   3.775   6.028   3.598  0.1500 -0.2248  0.9251
  544TIP3    H123123   3.783   6.110   3.549 -1.2391 -0.1956  0.7197
  544TIP3    H223124   3.804   6.050   3.686 -1.1284  0.7468  1.1194
  545TIP3   OH223125   4.274   5.675  10.683 -0.0705  0.1416 -0.1893
  545TIP3    H123126   4.290   5.635  10.768 -0.0657  0.5919  0.0271
  545TIP3    H223127   4.199   5.734  10.698  0.0842  0.4060 -0.4351
  546TIP3   OH223128   5.068   0.056  15.390 -0.0523 -0.1562 -0.1971
  546TIP3    H123129   5.028   0.043  15.304  2.3348 -0.3763 -1.3246
  546TIP3    H223130   4.993   0.067  15.449 -1.7457  0.2135 -2.3026
  547TIP3   OH223131   5.166   2.156  13.629 -0.5247 -0.2777 -0.2119
  547TIP3    H123132   5.211   2.218  13.686  0.0492 -0.1674 -0.7678
  547TIP3    H223133   5.177   2.072  13.672  2.2000 -0.6478 -1.3814
  548TIP3   OH223134   5.315   4.360  13.778 -0.5001  1.2327 -0.0047
  548TIP3    H123135   5.268   4.282  13.810 -1.2688  1.3382 -0.8216
  548TIP3    H223136   5.287   4.430  13.836  0.5234  0.8346  1.0008
  549TIP3   OH223137   0.790   0.120  15.308  0.2672  0.5767 -0.1567
  549TIP3    H123138   0.704   0.136  15.345  0.0910 -0.4127 -0.1240
  549TIP3    H223139   0.849   0.176  15.358  0.0423 -0.7270  1.6404
  550TIP3   OH223140   0.632   2.980   0.170 -0.1536  0.0812 -0.2370
  550TIP3    H123141   0.669   2.985   0.258  0.7811 -1.8186 -0.4683
  550TIP3    H223142   0.538   2.992   0.182  0.2196  2.7631  0.6409
  551TIP3   OH223143   1.699   5.126  12.255  0.2166 -0.0778  0.3168
  551TIP3    H123144   1.773   5.067  12.241 -0.1549 -0.6461  0.7221
  551TIP3    H223145   1.723   5.206  12.208  0.9589 -0.3589  0.2091
  552TIP3   OH223146   0.106   0.336   0.272  0.1614 -0.2795  0.1168
  552TIP3    H123147   0.157   0.267   0.313 -0.5046 -1.1046 -0.4160
  552TIP3    H223148   0.035   0.354   0.334  0.1485 -0.2979  0.1072
  553TIP3   OH223149   4.334   4.921   1.738  0.0889  0.1485  0.7539
  553TIP3    H123150   4.362   4.834   1.711 -2.1803 -0.0647 -1.2150
  553TIP3    H223151   4.252   4.907   1.785 -0.1609  1.1754  0.6600
  554TIP3   OH223152   1.816   0.286   4.818 -0.2162  0.2748 -0.3238
  554TIP3    H123153   1.910   0.268   4.823 -0.6579 -1.8163  1.5996
  554TIP3    H223154   1.774   0.212   4.861 -2.7153  1.7747  0.0418
  555TIP3   OH223155   6.288   6.490  12.591 -0.0317 -0.3790  0.7080
  555TIP3    H123156   6.377   6.524  12.576 -0.5413  0.4256 -0.7109
  555TIP3    H223157   6.287   6.465  12.683  1.9693 -1.3162  0.5214
  556TIP3   OH223158   1.488   0.200  10.892  0.0629 -0.8057  0.0905
  556TIP3    H123159   1.436   0.124  10.920  0.2292 -0.1617  2.3595
  556TIP3    H223160   1.542   0.221  10.968  1.9452 -0.0064 -1.4079
  557TIP3   OH223161   6.398   1.174  12.194 -0.4806 -0.4867 -0.2962
  557TIP3    H123162   6.459   1.100  12.198 -0.6239 -0.5811  0.2897
  557TIP3    H223163   6.409   1.219  12.278 -1.2724 -0.5499 -0.1468
  558TIP3   OH223164   3.654   2.785  12.293 -0.1091  0.1441  0.0251
  558TIP3    H123165   3.647   2.700  12.338  1.0399 -0.1809 -0.3681
  558TIP3    H223166   3.577   2.834  12.322 -0.5227 -0.8435  0.6615
  559TIP3   OH223167   6.604   4.095  17.069 -0.3158  0.4978 -0.0953
  559TIP3    H123168   6.604   4.116  16.976 -0.0436  0.1052 -0.1861
  559TIP3    H223169   6.691   4.057  17.085 -0.2470  0.8446  0.3822
  560TIP3   OH223170   3.927   5.629  13.618 -0.3234 -0.0571  0.2148
  560TIP3    H123171   3.922   5.675  13.534  1.9101  0.6125  0.3866
  560TIP3    H223172   3.932   5.537  13.594 -2.2498 -0.0889 -0.2383
  561TIP3   OH223173   5.394   6.086  15.464  0.1808  0.2618 -0.3181
  561TIP3    H123174   5.373   6.026  15.392 -0.2286 -1.1126  0.9077
  561TIP3    H223175   5.484   6.114  15.447  0.5436 -1.0575 -0.6863
  562TIP3   OH223176   6.621   0.749  12.469  0.1110  0.5451 -1.1140
  562TIP3    H123177   6.538   0.705  12.486  0.3851  0.1509 -0.8018
  562TIP3    H223178   6.622   0.763  12.374 -0.3719  0.6760 -1.1015
  563TIP3   OH223179   0.844   1.802   4.214  0.4988 -0.2510 -0.1413
  563TIP3    H123180   0.846   1.839   4.302 -1.7380 -1.0054  0.2902
  563TIP3    H223181   0.879   1.871   4.157 -3.2454  2.5848  0.6163
  564TIP3   OH223182   6.515   0.507   0.198 -0.4494 -0.0665  0.7877
  564TIP3    H123183   6.546   0.476   0.113 -0.8250 -0.6642  0.8642
  564TIP3    H223184   6.461   0.436   0.231  0.0447 -0.0108  1.7269
  565TIP3   OH223185   4.478   1.733   3.718 -0.4892 -0.5278  0.8308
  565TIP3    H123186   4.545   1.718   3.652  0.5398  2.6830  1.0101
  565TIP3    H223187   4.402   1.685   3.685  0.7932 -1.2676 -1.2645
  566TIP3   OH223188   0.560   6.393   4.544  0.2807  0.3048 -0.3958
  566TIP3    H123189   0.620   6.396   4.618 -0.3235 -0.3127  0.1256
  566TIP3    H223190   0.515   6.477   4.546 -0.0259  0.1291  0.1824
  567TIP3   OH223191   2.656   1.051  10.584  0.1487  0.3192  0.0100
  567TIP3    H123192   2.702   0.970  10.562  1.0065  0.1266  2.1938
  567TIP3    H223193   2.573   1.045  10.538  0.6160 -1.3278 -0.6986
  568TIP3   OH223194   6.681   1.870   4.667  0.1778 -0.1952  0.0467
  568TIP3    H123195   6.673   1.960   4.700 -0.4304  0.1169 -0.9209
  568TIP3    H223196   6.655   1.876   4.575 -2.5659 -1.8072  0.6009
  569TIP3   OH223197   1.465   4.166   0.775 -0.3033 -0.0815 -0.1169
  569TIP3    H123198   1.516   4.242   0.801  0.0023  0.2464 -1.5935
  569TIP3    H223199   1.398   4.200   0.716 -1.5927 -0.6589  0.9416
  570TIP3   OH223200   3.839   1.039  12.883 -0.3788 -0.4038  0.0249
  570TIP3    H123201   3.770   1.105  12.875 -1.5062 -1.4415  0.7097
  570TIP3    H223202   3.826   0.981  12.807 -0.7872 -1.0433  0.5649
  571TIP3   OH223203   5.217   2.297   1.452 -0.8686 -0.0082  0.3866
  571TIP3    H123204   5.291   2.245   1.421 -1.5756  0.0529 -1.5671
  571TIP3    H223205   5.155   2.233   1.487 -0.9008 -0.2890 -0.1850
  572TIP3   OH223206   0.923   6.367   2.117  0.0835 -0.0455  0.4244
  572TIP3    H123207   0.935   6.362   2.212  0.5169 -0.2792  0.3569
  572TIP3    H223208   0.873   6.288   2.095 -0.1573  0.0901  0.4771
  573TIP3   OH223209   1.735   0.349   2.173 -0.1065 -0.0772 -0.1357
  573TIP3    H123210   1.810   0.327   2.228  0.7346  0.7336 -0.9430
  573TIP3    H223211   1.746   0.295   2.094 -0.3439  0.0962 -0.2896
  574TIP3   OH223212   6.115   6.458   1.721 -0.1156 -0.2472  0.2839
  574TIP3    H123213   6.147   6.463   1.811 -0.1934  0.4895  0.2755
  574TIP3    H223214   6.021   6.478   1.728 -0.1404 -0.2774  0.0517
  575TIP3   OH223215   0.846   6.304   5.918  0.3798 -0.5272  0.4883
  575TIP3    H123216   0.798   6.360   5.979  0.2904 -1.1322  0.9797
  575TIP3    H223217   0.795   6.310   5.837  0.0290 -0.3729  0.7131
  576TIP3   OH223218   4.699   3.274  13.213  0.4817 -0.2108  0.4449
  576TIP3    H123219   4.697   3.214  13.138 -2.6076  0.3770 -0.1045
  576TIP3    H223220   4.742   3.353  13.179  1.1817 -0.7634  0.0157
  577TIP3   OH223221   3.889   0.134  14.956 -0.7619  0.5120  0.0691
  577TIP3    H123222   3.913   0.130  15.049 -2.3937 -1.0598  0.4743
  577TIP3    H223223   3.901   0.045  14.924 -0.8563  0.8940 -1.0610
  578TIP3   OH223224   6.277   2.047  14.713 -0.3236 -0.1848  0.1183
  578TIP3    H123225   6.228   2.114  14.666 -0.2272  0.6234  1.1280
  578TIP3    H223226   6.305   1.986  14.646 -1.0713  0.3793 -0.7263
  579TIP3   OH223227   0.744   5.759  15.991 -0.6091  0.3948  0.3946
  579TIP3    H123228   0.691   5.714  15.926 -0.4179 -0.6657  0.9597
  579TIP3    H223229   0.834   5.749  15.961 -0.5178 -0.1137  0.8102
  580TIP3   OH223230   5.534   0.066   6.401  0.4547 -0.1500  0.3300
  580TIP3    H123231   5.459   0.121   6.378  1.4740  0.7797 -0.8983
  580TIP3    H223232   5.589   0.122   6.455  1.5818  0.1697 -1.0695
  581TIP3   OH223233   1.714   4.573   0.473 -0.4290  0.2753 -0.3787
  581TIP3    H123234   1.695   4.647   0.529 -0.9360  0.2562 -0.5263
  581TIP3    H223235   1.629   4.532   0.456 -0.0668 -0.9010  0.4801
  582TIP3   OH223236   0.087   6.775   5.262  0.3383  0.0607 -0.4602
  582TIP3    H123237   0.029   6.782   5.186 -0.4958 -0.3080  0.1334
  582TIP3    H223238   0.077   6.858   5.308 -0.3594 -0.3094  0.0805
  583TIP3   OH223239   0.388   6.014  14.854  0.1838  0.1982 -0.4830
  583TIP3    H123240   0.395   5.990  14.762 -0.1257  0.1590 -0.4999
  583TIP3    H223241   0.444   5.953  14.900  1.0955  0.8252 -0.7381
  584TIP3   OH223242   4.462   3.800   1.964 -0.0762  0.0208  0.2865
  584TIP3    H123243   4.500   3.822   2.049  1.9178  1.1590 -0.8412
  584TIP3    H223244   4.488   3.872   1.907  1.3847 -2.2257 -2.0742
  585TIP3   OH223245   2.369   5.759   6.341  0.2781  0.5417  0.1438
  585TIP3    H123246   2.402   5.848   6.353  2.1980  0.0182 -0.8249
  585TIP3    H223247   2.328   5.737   6.424 -0.9407  2.5843  0.1474
  586TIP3   OH223248   6.585   6.412   2.490  0.1820  0.6658  0.5942
  586TIP3    H123249   6.680   6.408   2.487  0.2765  1.2964 -3.5414
  586TIP3    H223250   6.557   6.347   2.425 -2.2438  0.3505  1.8473
  587TIP3   OH223251   0.693   4.277  10.870 -0.6570  0.6557  0.2764
  587TIP3    H123252   0.756   4.251  10.803 -1.8341 -0.2829 -0.5003
  587TIP3    H223253   0.630   4.332  10.824 -2.4861 -1.4468  0.1527
  588TIP3   OH223254   1.534   1.836   2.152 -0.5341 -0.2587 -0.2647
  588TIP3    H123255   1.556   1.843   2.244 -0.7076  0.9769 -0.3003
  588TIP3    H223256   1.612   1.800   2.110 -0.7582 -1.6466  0.4745
  589TIP3   OH223257   0.522   3.442  11.135 -0.1654 -0.6699  0.4989
  589TIP3    H123258   0.443   3.492  11.155  0.0234 -0.8038  1.6414
  589TIP3    H223259   0.497   3.385  11.063 -1.0553 -0.5619  0.7078
  590TIP3   OH223260   0.142   5.556  15.363  0.2405 -0.5809  0.1035
  590TIP3    H123261   0.095   5.544  15.281  0.9251  3.2359 -1.0624
  590TIP3    H223262   0.073   5.581  15.426  0.0645 -0.4484 -0.1401
  591TIP3   OH223263   2.542   5.573   5.258  0.0444 -0.1507 -0.7765
  591TIP3    H123264   2.497   5.628   5.322  2.5338  0.5325  0.5293
  591TIP3    H223265   2.525   5.483   5.288 -0.0723  0.1102 -0.0225
  592TIP3   OH223266   3.207   1.178  14.192  0.6836 -0.2211 -0.0629
  592TIP3    H123267   3.258   1.104  14.158 -0.4295 -0.9433 -0.1953
  592TIP3    H223268   3.126   1.177  14.142  0.1606  0.3777  0.7397
  593TIP3   OH223269   5.982   1.932   0.392  0.6588  0.5769  0.2772
  593TIP3    H123270   5.895   1.894   0.389  1.1065 -0.4590  0.1921
  593TIP3    H223271   5.991   1.964   0.481  0.2767  0.5000  0.3459
  594TIP3   OH223272   5.593   3.123  12.693  0.3519  0.3002  0.2336
  594TIP3    H123273   5.624   3.050  12.746  0.3176 -0.1182 -0.3126
  594TIP3    H223274   5.562   3.187  12.757  2.9087  1.0408  0.8408
  595TIP3   OH223275   6.805   6.334   0.887  0.4137  0.3790  0.9063
  595TIP3    H123276   6.895   6.317   0.914  1.0559 -0.4052 -1.4460
  595TIP3    H223277   6.812   6.361   0.795 -1.8718 -1.8627 -0.0488
  596TIP3   OH223278   2.953   1.739   4.628  0.4553  0.2775 -0.5103
  596TIP3    H123279   2.928   1.650   4.653  0.5252  0.6008  0.7751
  596TIP3    H223280   2.875   1.774   4.585 -0.0483  0.0547  0.2022
  597TIP3   OH223281   0.972   4.659   6.368 -0.1042 -0.0601 -0.0600
  597TIP3    H123282   0.993   4.657   6.275  1.0880  1.5973  0.1222
  597TIP3    H223283   1.031   4.725   6.405 -1.9525  0.8526  1.5070
  598TIP3   OH223284   2.199   2.310  15.483 -0.3125  0.5855  0.2258
  598TIP3    H123285   2.293   2.297  15.467 -0.1159  0.4588  1.3738
  598TIP3    H223286   2.161   2.222  15.478  0.2076  0.0840  3.0291
  599TIP3   OH223287   5.136   0.678  11.979  0.2464  0.3774  0.1937
  599TIP3    H123288   5.225   0.652  12.001  1.4161  2.7445 -1.2676
  599TIP3    H223289   5.134   0.677  11.883 -1.3324  0.2652  0.2092
  600TIP3   OH223290   6.705   6.315  12.476  0.4280 -0.8733  0.0820
  600TIP3    H123291   6.780   6.256  12.475 -1.3838 -3.5199  2.6234
  600TIP3    H223292   6.691   6.334  12.569 -1.9846 -0.4669 -0.3062
  601TIP3   OH223293   5.536   4.410  14.744  0.2119  0.3969  0.0204
  601TIP3    H123294   5.504   4.469  14.676  0.2307 -0.1155 -0.4435
  601TIP3    H223295   5.630   4.425  14.747  0.2545  0.1956 -0.2895
  602TIP3   OH223296   6.035   5.888   1.054 -0.0399 -0.1257 -0.1712
  602TIP3    H123297   6.077   5.959   1.007 -1.1114  0.7832  0.1963
  602TIP3    H223298   6.039   5.813   0.994  2.7849 -0.3345  0.1707
  603TIP3   OH223299   5.579   5.215   3.183 -0.5570  0.0138  0.6461
  603TIP3    H123300   5.490   5.247   3.197 -0.4089  0.9639 -0.3782
  603TIP3    H223301   5.614   5.273   3.115  0.1809 -1.5716 -0.3833
  604TIP3   OH223302   5.733   2.690  11.302 -0.2177 -0.3420 -0.3561
  604TIP3    H123303   5.735   2.743  11.222 -0.5709 -2.7143 -2.0643
  604TIP3    H223304   5.642   2.661  11.309 -0.1062 -0.4749  0.7204
  605TIP3   OH223305   5.952   6.255   4.766  0.1614  0.4166  0.0722
  605TIP3    H123306   5.959   6.340   4.809 -0.0671  0.0085  0.9353
  605TIP3    H223307   5.858   6.239   4.760  0.1971  0.3872 -0.4206
  606TIP3   OH223308   2.344   1.942   5.174  0.2091 -0.5817 -0.0009
  606TIP3    H123309   2.299   1.859   5.155  0.7591 -1.4493  2.1242
  606TIP3    H223310   2.286   1.986   5.236  1.3602 -0.8409  1.2998
  607TIP3   OH223311   3.847   4.390  14.551 -0.7249 -0.0867 -0.1452
  607TIP3    H123312   3.841   4.346  14.635 -1.5662  2.5972  1.3229
  607TIP3    H223313   3.884   4.325  14.492  0.6233 -1.8283  2.4476
  608TIP3   OH223314   4.603   2.191  11.462  0.3455  0.2993  0.5951
  608TIP3    H123315   4.676   2.182  11.401 -0.2506 -0.6805 -0.0111
  608TIP3    H223316   4.571   2.101  11.474 -2.3488  0.8931 -1.2126
  609TIP3   OH223317   1.466   1.330   1.734 -0.4574  0.3163 -0.3276
  609TIP3    H123318   1.467   1.393   1.662  1.8510  1.1825  0.3991
  609TIP3    H223319   1.490   1.380   1.811 -5.0318 -0.0770  1.6659
  610TIP3   OH223320   6.286   6.291   4.068  0.4512  1.2195  0.0332
  610TIP3    H123321   6.222   6.362   4.069 -1.2592 -0.1878 -1.6657
  610TIP3    H223322   6.264   6.238   4.145 -0.3238  0.8665 -0.4178
  611TIP3   OH223323   6.162   0.355  11.986  0.1256  0.0407  0.1956
  611TIP3    H123324   6.248   0.384  11.955 -0.4117  1.8844  0.3345
  611TIP3    H223325   6.133   0.291  11.921  1.1166  0.2143 -0.4313
  612TIP3   OH223326   4.247   0.568  12.005 -0.9713  0.0228  0.1771
  612TIP3    H123327   4.213   0.498  11.949  0.2671  0.2430 -0.9135
  612TIP3    H223328   4.305   0.522  12.066 -0.9368 -0.0171  0.1153
  613TIP3   OH223329   2.767   6.647   4.562  0.4255 -1.0112 -0.1989
  613TIP3    H123330   2.672   6.640   4.575  0.4019 -0.1743  0.1378
  613TIP3    H223331   2.804   6.631   4.648  0.5335 -0.3753 -0.1210
  614TIP3   OH223332   4.496   4.880   1.017  0.1618  0.1600  0.4009
  614TIP3    H123333   4.576   4.874   0.965  0.3097  0.2846  0.6116
  614TIP3    H223334   4.497   4.803   1.073 -0.1855 -0.1704 -0.0413
  615TIP3   OH223335   4.931   0.183  12.655  0.8011  0.1470  0.1966
  615TIP3    H123336   5.008   0.238  12.663  1.1675  0.0228 -1.9040
  615TIP3    H223337   4.887   0.190  12.740  2.4657  1.1708  1.0185
  616TIP3   OH223338   6.480   5.013  13.460  0.3435 -0.5433  0.0872
  616TIP3    H123339   6.435   5.088  13.423  0.3605 -1.1696 -1.2532
  616TIP3    H223340   6.478   5.028  13.555  1.7454  1.9050 -0.2088
  617TIP3   OH223341   5.033   2.504   3.465 -0.2812  0.0904 -0.6631
  617TIP3    H123342   5.052   2.515   3.558 -0.7873 -0.4675 -0.4866
  617TIP3    H223343   4.941   2.530   3.457 -0.6803 -1.2904 -0.7344
  618TIP3   OH223344   4.049   5.806   3.033 -0.5761 -0.0711 -0.3879
  618TIP3    H123345   4.110   5.735   3.053  0.3972  0.8791  0.0974
  618TIP3    H223346   3.962   5.769   3.053  0.1008 -0.0948  3.1911
  619TIP3   OH223347   0.090   0.692   4.881  0.0423 -0.0603 -0.1411
  619TIP3    H123348   0.184   0.690   4.896 -0.2029 -0.4729  1.5982
  619TIP3    H223349   0.069   0.784   4.864  0.6886  0.1193  0.0293
  620TIP3   OH223350   4.037   2.980  12.414  0.0713  0.1010  0.1379
  620TIP3    H123351   3.954   3.014  12.382 -0.6119 -0.3244  1.3724
  620TIP3    H223352   4.103   3.040  12.380 -0.7589  0.5664 -0.6832
  621TIP3   OH223353   4.283   0.847   3.342  0.3565  0.0156 -0.5727
  621TIP3    H123354   4.331   0.830   3.261  0.1042 -0.6021 -0.5906
  621TIP3    H223355   4.261   0.761   3.377 -1.0579  0.2865 -0.7373
  622TIP3   OH223356   6.248   3.869  15.860 -0.1901 -0.5546 -0.0051
  622TIP3    H123357   6.328   3.867  15.808 -0.5268 -0.2771 -0.5462
  622TIP3    H223358   6.183   3.824  15.805 -0.7132  0.3056 -0.1126
  623TIP3   OH223359   5.116   3.063  13.807  0.4411 -0.2642  0.5201
  623TIP3    H123360   5.102   3.154  13.783 -0.6357 -0.5601 -0.0413
  623TIP3    H223361   5.175   3.067  13.882 -0.4028  0.9543  1.1567
  624TIP3   OH223362   2.416   4.610  13.921 -0.3650 -0.0940 -0.1128
  624TIP3    H123363   2.342   4.580  13.974 -1.1662  1.7930 -0.0830
  624TIP3    H223364   2.476   4.648  13.985 -0.2502  0.0831 -0.3271
  625TIP3   OH223365   5.046   0.677  12.434  0.3031  0.3704 -0.1131
  625TIP3    H123366   5.009   0.659  12.520 -1.4769  0.4979 -0.8139
  625TIP3    H223367   5.033   0.772  12.422 -0.0230  0.2509 -0.7533
  626TIP3   OH223368   3.467   1.721   1.401 -0.1794  0.5909 -0.1456
  626TIP3    H123369   3.423   1.638   1.387  2.2049 -0.6091 -1.2576
  626TIP3    H223370   3.515   1.710   1.484 -0.8691  1.3609  0.3686
  627TIP3   OH223371   5.794   5.491   5.763 -0.4139  0.2220 -0.5570
  627TIP3    H123372   5.701   5.468   5.762 -0.4010 -0.3618  2.2539
  627TIP3    H223373   5.799   5.567   5.822  1.0588 -1.0124  0.9989
  628TIP3   OH223374   2.779   0.076  12.617 -0.0706  0.0124  0.4214
  628TIP3    H123375   2.734  -0.007  12.602  2.2895 -1.0344 -1.4937
  628TIP3    H223376   2.784   0.084  12.712 -0.7359 -1.8276  0.6434
  629TIP3   OH223377   4.962   2.587  13.522  0.0787 -0.1896 -0.5537
  629TIP3    H123378   5.027   2.584  13.452 -0.5780 -1.4901 -1.1414
  629TIP3    H223379   4.882   2.552  13.483 -0.1882 -1.3739  0.9389
  630TIP3   OH223380   6.311   4.544   2.870 -0.8265  0.1453 -0.0498
  630TIP3    H123381   6.336   4.515   2.958 -0.7078 -0.0059 -0.1323
  630TIP3    H223382   6.285   4.464   2.825  1.2699 -0.1626 -0.8693
  631TIP3   OH223383   0.518   0.299  15.580  0.1928  0.6225  0.4523
  631TIP3    H123384   0.462   0.255  15.645  0.2179  0.3237  0.2761
  631TIP3    H223385   0.574   0.357  15.632  1.2343 -0.6812  0.8766
  632TIP3   OH223386   4.575   2.554  13.389  0.4094 -0.4210 -0.2365
  632TIP3    H123387   4.536   2.576  13.304  0.6860  0.1857 -0.2105
  632TIP3    H223388   4.643   2.490  13.368  1.1628  0.4786 -0.6032
  633TIP3   OH223389   4.049   0.999  12.286  0.8869 -0.0201 -0.2352
  633TIP3    H123390   4.140   0.978  12.266  1.1009  1.1130 -0.5174
  633TIP3    H223391   4.002   0.983  12.205  1.1649  1.2228 -0.6512
  634TIP3   OH223392   5.728   6.132  13.692 -0.4673 -0.5785  0.0067
  634TIP3    H123393   5.653   6.188  13.712 -0.2112 -0.0033 -0.6063
  634TIP3    H223394   5.802   6.174  13.736 -0.1079  0.0796 -1.1934
  635TIP3   OH223395   2.694   0.606  14.773  0.5682  0.4388 -0.0695
  635TIP3    H123396   2.681   0.642  14.685 -0.4611 -0.1394 -0.1627
  635TIP3    H223397   2.743   0.525  14.759 -1.0048 -0.4958 -0.2700
  636TIP3   OH223398   1.900   4.051  16.640  0.2493  0.2547  0.2287
  636TIP3    H123399   1.868   3.964  16.619  1.2033  0.3696 -1.9145
  636TIP3    H223400   1.959   4.038  16.715  0.6942 -1.0114 -0.3178
  637TIP3   OH223401   2.276   5.479   1.001 -0.5500 -0.2603  0.2186
  637TIP3    H123402   2.287   5.389   1.032  0.1991 -0.2284  0.0542
  637TIP3    H223403   2.218   5.519   1.066 -1.9002 -1.1979 -0.3699
  638TIP3   OH223404   6.475   1.411   1.428  0.3260 -0.2303 -0.1511
  638TIP3    H123405   6.408   1.342   1.430  1.2347 -1.1355 -0.1030
  638TIP3    H223406   6.536   1.387   1.498  0.8706  0.4163 -0.3932
  639TIP3   OH223407   4.526   3.279  12.472  0.1772 -0.5377 -0.4030
  639TIP3    H123408   4.519   3.271  12.377 -0.9343 -1.6891 -0.2583
  639TIP3    H223409   4.620   3.288  12.489  0.2337  2.6943 -1.7606
  640TIP3   OH223410   4.689   6.086   0.303  0.1336 -0.1083  0.9550
  640TIP3    H123411   4.640   6.075   0.385 -0.9075 -0.0722  0.3449
  640TIP3    H223412   4.697   6.181   0.292  2.1735 -0.0805  2.1011
  641TIP3   OH223413   3.175   3.913   6.855  0.1586  0.6162  0.0526
  641TIP3    H123414   3.266   3.885   6.862 -0.5865 -1.7896  1.0502
  641TIP3    H223415   3.154   3.951   6.940 -0.7780 -2.3245  1.2273
  642TIP3   OH223416   1.054   6.322   1.183 -0.1657 -0.4651 -0.5229
  642TIP3    H123417   0.989   6.253   1.197 -2.1920  1.2868 -0.8631
  642TIP3    H223418   1.102   6.327   1.265 -1.4184 -0.8534  0.2590
  643TIP3   OH223419   0.559   4.237  14.728  0.3139 -0.1336 -0.2405
  643TIP3    H123420   0.528   4.161  14.677 -0.1807  1.2637 -2.1423
  643TIP3    H223421   0.485   4.261  14.782  1.0520 -2.0365  1.7829
  644TIP3   OH223422   1.185   3.480  14.610  0.5574  0.0680  0.4802
  644TIP3    H123423   1.227   3.507  14.692 -1.2882 -0.6054  1.7071
  644TIP3    H223424   1.144   3.396  14.630  0.0686 -0.1094 -1.1387
  645TIP3   OH223425   0.796   5.855  15.313 -0.1167  0.2236 -0.1208
  645TIP3    H123426   0.842   5.924  15.265  1.1825  0.2064  1.0470
  645TIP3    H223427   0.832   5.858  15.401 -0.5864 -1.4491  0.1728
  646TIP3   OH223428   2.562   0.072  15.794 -0.5165 -0.2413 -0.6169
  646TIP3    H123429   2.636   0.016  15.818 -0.8439 -0.3687  0.1218
  646TIP3    H223430   2.502   0.065  15.869 -1.5078 -0.5484 -1.4200
  647TIP3   OH223431   3.953   2.988   5.604  0.6289  0.4276  0.1348
  647TIP3    H123432   4.005   2.989   5.684  1.3888  0.0504 -0.3488
  647TIP3    H223433   4.017   2.998   5.533  0.1517 -0.9366 -0.5127
  648TIP3   OH223434   2.405   4.792   0.633 -0.0860 -0.4548 -0.2236
  648TIP3    H123435   2.473   4.774   0.698  0.4215 -1.2050 -0.9436
  648TIP3    H223436   2.346   4.854   0.676  0.3151 -0.8344  0.9023
  649TIP3   OH223437   0.521   5.841  16.953 -0.3210 -0.0254 -0.3495
  649TIP3    H123438   0.492   5.932  16.952  0.4269  0.2299 -2.5171
  649TIP3    H223439   0.468   5.797  16.887 -0.7896 -1.2441  0.7779
  650TIP3   OH223440   3.611   3.909  12.149 -0.1744 -0.4412 -0.1179
  650TIP3    H123441   3.657   3.949  12.076 -0.3679 -1.0607 -0.5899
  650TIP3    H223442   3.630   3.966  12.224  1.2560 -0.6308 -0.3188
  651TIP3   OH223443   4.378   0.769  16.247  0.6461  0.1220 -0.1860
  651TIP3    H123444   4.300   0.720  16.275  1.3785 -0.6343  0.6290
  651TIP3    H223445   4.435   0.766  16.324  1.2671  1.1034 -0.6032
  652TIP3   OH223446   4.247   2.306  15.482 -0.4523  0.0562  0.7358
  652TIP3    H123447   4.291   2.283  15.400 -0.9285  0.7871  0.2712
  652TIP3    H223448   4.317   2.339  15.538 -0.3691  1.0210  0.0760
  653TIP3   OH223449   2.023   1.012  13.594 -0.6795  0.2249 -0.1168
  653TIP3    H123450   1.968   1.056  13.658 -2.1735 -0.2603 -1.0225
  653TIP3    H223451   2.094   1.074  13.577 -1.3243  1.1708  0.5525
  654TIP3   OH223452   5.274   6.504  12.014  0.2893  0.1677  0.0510
  654TIP3    H123453   5.355   6.469  11.975  1.2033 -0.8261  2.5969
  654TIP3    H223454   5.235   6.428  12.059 -0.6158  1.2303  1.1133
  655TIP3   OH223455   5.668   1.731  11.783 -0.0343  0.1616 -0.1177
  655TIP3    H123456   5.643   1.756  11.872  1.2168  0.6358  0.1248
  655TIP3    H223457   5.621   1.649  11.767 -1.1106  0.6224  0.5694
  656TIP3   OH223458   2.289   6.088  14.953  0.1114 -0.1000  0.5343
  656TIP3    H123459   2.373   6.050  14.977  1.5404  0.8891 -2.4111
  656TIP3    H223460   2.225   6.019  14.970  1.2266 -0.4551  4.0464
  657TIP3   OH223461   1.709   4.581  15.469 -0.2317 -0.1199  0.1653
  657TIP3    H123462   1.674   4.642  15.405 -0.6343 -1.4092 -0.8888
  657TIP3    H223463   1.672   4.610  15.552 -0.2463  1.1733 -0.2697
  658TIP3   OH223464   3.285   3.426  15.243 -0.1023 -0.0745 -0.2080
  658TIP3    H123465   3.352   3.482  15.284  1.9652 -1.5490 -1.3875
  658TIP3    H223466   3.246   3.482  15.176 -0.4037  0.9541  0.7829
  659TIP3   OH223467   4.003   4.955  11.184 -0.1736  0.1951  0.7831
  659TIP3    H123468   4.028   4.863  11.190  0.5103  0.0798 -2.1653
  659TIP3    H223469   3.909   4.953  11.168 -0.4132  0.1298  2.0668
  660TIP3   OH223470   5.717   0.114  13.255  0.3480  0.3004  0.7796
  660TIP3    H123471   5.681   0.047  13.313 -0.0993 -1.8737 -1.8136
  660TIP3    H223472   5.807   0.127  13.287 -0.1739 -0.0523  2.5109
  661TIP3   OH223473   5.289   5.348   4.695  0.0606  0.0198 -0.3465
  661TIP3    H123474   5.196   5.325   4.702 -0.1531  0.8475 -0.3415
  661TIP3    H223475   5.307   5.399   4.774 -0.2687  2.4264 -1.7359
  662TIP3   OH223476   3.444   4.391  15.905  0.0634 -0.2571 -0.2849
  662TIP3    H123477   3.478   4.343  15.829 -0.4119 -0.2065 -0.5322
  662TIP3    H223478   3.451   4.484  15.880 -2.5859 -0.2683 -1.3947
  663TIP3   OH223479   1.347   4.657   4.425 -0.2537 -0.0319 -0.3062
  663TIP3    H123480   1.317   4.732   4.373 -0.0809  0.6082  0.4878
  663TIP3    H223481   1.390   4.697   4.501 -0.3778 -0.9404  0.2543
  664TIP3   OH223482   3.260   6.556  16.312  0.3059 -0.6908  0.2679
  664TIP3    H123483   3.239   6.609  16.235 -0.0480 -0.9694  0.1684
  664TIP3    H223484   3.253   6.616  16.386  0.0093 -0.5764  0.1478
  665TIP3   OH223485   2.549   2.301   1.617 -0.5267 -0.3512 -0.0893
  665TIP3    H123486   2.541   2.243   1.541 -1.6250 -2.0887  1.2730
  665TIP3    H223487   2.493   2.376   1.596 -0.7724 -0.7777 -1.0152
  666TIP3   OH223488   4.048   3.165  16.198  0.2181  0.1421 -0.3864
  666TIP3    H123489   3.963   3.185  16.239  0.6061  0.2144  0.4079
  666TIP3    H223490   4.055   3.069  16.203  1.2662  0.2723  1.8559
  667TIP3   OH223491   2.186   4.215   0.114 -0.3835  0.3115  0.1230
  667TIP3    H123492   2.108   4.241   0.162  0.5578 -0.0474  1.9050
  667TIP3    H223493   2.196   4.122   0.131  0.0735  0.2014 -0.6536
  668TIP3   OH223494   2.028   3.010   3.956 -0.0549 -0.1550  0.2062
  668TIP3    H123495   1.946   3.016   3.907  0.4506 -0.1839 -0.6525
  668TIP3    H223496   2.051   2.917   3.955 -0.0480 -0.1592  0.5186
  669TIP3   OH223497   2.894   0.982  16.965  0.9748 -0.5240 -0.4670
  669TIP3    H123498   2.935   1.061  16.930  0.8641  0.0352  0.6286
  669TIP3    H223499   2.943   0.910  16.924  1.3212  0.1056 -1.1905
  670TIP3   OH223500   0.164   1.018   3.682 -0.1539  0.1074 -0.0245
  670TIP3    H123501   0.215   0.964   3.621 -0.6703 -0.8158  0.3323
  670TIP3    H223502   0.140   1.095   3.631  0.1182 -0.2630 -0.7358
  671TIP3   OH223503   3.193   4.529  12.534 -0.3693 -0.5386  0.2942
  671TIP3    H123504   3.286   4.512  12.520 -0.5390 -1.3227  0.0471
  671TIP3    H223505   3.154   4.520  12.447 -0.3974  1.8771 -0.0136
  672TIP3   OH223506   1.139   4.774  14.046  0.4382  0.1535  0.0989
  672TIP3    H123507   1.117   4.703  13.986  0.6978  0.6622 -0.6175
  672TIP3    H223508   1.186   4.732  14.118 -0.6122 -0.5799  0.3734
  673TIP3   OH223509   5.834   3.766  11.427 -0.0987  0.7853  0.0970
  673TIP3    H123510   5.749   3.723  11.422  0.4867 -0.6537  1.5632
  673TIP3    H223511   5.881   3.736  11.349 -0.4304  0.4250  0.0323
  674TIP3   OH223512   3.710   1.483   1.495  0.0721 -0.1135 -0.2207
  674TIP3    H123513   3.667   1.517   1.573 -0.8058  1.4980 -1.3635
  674TIP3    H223514   3.640   1.441   1.446 -0.0204  1.4832 -1.5241
  675TIP3   OH223515   1.718   4.673   2.965 -0.7363  1.0532 -0.1483
  675TIP3    H123516   1.693   4.720   3.045 -0.3321 -0.3507  0.8370
  675TIP3    H223517   1.641   4.677   2.909 -1.3951  1.1345  0.7520
  676TIP3   OH223518   4.988   1.476  15.000  0.0115 -0.0733 -0.7035
  676TIP3    H123519   4.892   1.476  14.996 -0.0001 -1.2002 -1.0350
  676TIP3    H223520   5.008   1.490  15.092 -0.4393  0.9946 -0.7495
  677TIP3   OH223521   0.250   3.614  11.947 -0.6855  0.0216  0.5238
  677TIP3    H123522   0.280   3.585  12.033  0.8659 -1.0733 -0.3341
  677TIP3    H223523   0.156   3.598  11.948 -0.8690  0.9761  2.3538
  678TIP3   OH223524   2.121   0.983   5.245 -0.2681  0.2079 -0.4673
  678TIP3    H123525   2.160   0.947   5.165 -0.4707 -3.5050  0.8770
  678TIP3    H223526   2.032   1.008   5.218 -0.5156 -1.4717 -1.3816
  679TIP3   OH223527   3.236   0.287   5.694  0.8094 -0.2573  0.2077
  679TIP3    H123528   3.168   0.222   5.674 -1.4018  2.3370 -1.5379
  679TIP3    H223529   3.259   0.325   5.609  3.4006  0.0332  0.9464
  680TIP3   OH223530   2.949   2.549  11.857 -0.4771 -0.1657 -0.9491
  680TIP3    H123531   2.947   2.479  11.922  0.5728 -0.0038 -0.7273
  680TIP3    H223532   3.033   2.537  11.812  0.3011  1.6655 -0.0843
  681TIP3   OH223533   0.306   0.705  10.524  0.3132 -0.1839 -0.2330
  681TIP3    H123534   0.214   0.721  10.504 -0.6017 -1.7385  2.2643
  681TIP3    H223535   0.348   0.790  10.509 -1.9575  1.2244  0.7354
  682TIP3   OH223536   6.169   3.991  13.423  0.0572 -0.0149  0.6046
  682TIP3    H123537   6.095   3.949  13.379 -1.7060  1.3095  2.1619
  682TIP3    H223538   6.209   3.920  13.474  0.4678 -0.9470 -0.9552
  683TIP3   OH223539   3.960   5.347  12.971 -0.5368 -0.5656  0.0225
  683TIP3    H123540   3.999   5.393  12.897  2.8346 -1.5181  0.9969
  683TIP3    H223541   3.872   5.324  12.942 -0.1838  1.1288 -2.7489
  684TIP3   OH223542   5.798   4.112   5.747 -0.3381 -0.0911 -0.0054
  684TIP3    H123543   5.718   4.096   5.798  0.5055 -0.3254  1.3036
  684TIP3    H223544   5.842   4.026   5.744  0.2442  0.2006 -0.0089
  685TIP3   OH223545   5.259   1.387   1.227 -0.6156 -0.3788  0.0529
  685TIP3    H123546   5.338   1.438   1.245 -0.9149 -0.1313  0.6797
  685TIP3    H223547   5.189   1.433   1.274 -1.1161 -0.6555 -0.4093
  686TIP3   OH223548   1.069   5.379  15.105 -0.1160  0.2410 -0.2179
  686TIP3    H123549   0.977   5.398  15.121 -0.0458  0.0056  0.4842
  686TIP3    H223550   1.071   5.342  15.017 -0.5955  0.9282 -0.5261
  687TIP3   OH223551   3.476   1.170  10.201 -0.0936 -0.1614  0.1133
  687TIP3    H123552   3.485   1.168  10.296 -0.4766  1.1366  0.2008
  687TIP3    H223553   3.418   1.097  10.181  0.2475 -0.6412  0.8359
  688TIP3   OH223554   5.866   1.834  10.724  0.4730  0.6730  0.1389
  688TIP3    H123555   5.926   1.834  10.650  0.3981  1.1761  0.0764
  688TIP3    H223556   5.874   1.921  10.763  1.3743  0.0533  1.4334
  689TIP3   OH223557   0.654   6.120   4.088 -0.0765  0.3537 -0.2391
  689TIP3    H123558   0.618   6.168   4.163 -0.9730 -1.4907  0.5931
  689TIP3    H223559   0.582   6.118   4.025 -0.1904 -0.1811 -0.1037
  690TIP3   OH223560   0.984   5.553  17.108 -0.4628  0.7421  0.5160
  690TIP3    H123561   1.020   5.476  17.065 -1.8884 -1.3734  2.8068
  690TIP3    H223562   0.924   5.592  17.044  0.4954  0.1166 -0.7851
  691TIP3   OH223563   3.300   2.875   2.196  0.4284  0.0949  0.6983
  691TIP3    H123564   3.386   2.917   2.201  1.4258 -1.9099  1.7418
  691TIP3    H223565   3.319   2.782   2.192 -1.7140 -0.3785  0.2550
  692TIP3   OH223566   1.040   2.669  14.419 -0.1902 -0.5482  0.1363
  692TIP3    H123567   1.067   2.580  14.394  0.8547 -0.5177  1.0543
  692TIP3    H223568   1.085   2.684  14.502 -0.8716  0.6067  0.3076
  693TIP3   OH223569   2.614   0.678   2.883 -0.6143  0.4351 -0.7427
  693TIP3    H123570   2.689   0.670   2.823 -0.5056  1.7757 -0.8165
  693TIP3    H223571   2.650   0.661   2.970 -0.8355 -1.8594 -1.0394
  694TIP3   OH223572   4.921   2.248   0.738 -0.0506  0.3930 -0.2614
  694TIP3    H123573   5.016   2.254   0.729  0.2083 -1.5722  0.6007
  694TIP3    H223574   4.903   2.288   0.824  0.0713  0.2310 -0.1595
  695TIP3   OH223575   6.149   0.057   0.204  0.4655  0.3851  0.4047
  695TIP3    H123576   6.111   0.126   0.148 -1.2613 -0.6388  0.2304
  695TIP3    H223577   6.141   0.092   0.293  0.0965  0.6427  0.2752
  696TIP3   OH223578   5.963   3.305  16.195 -0.0704 -0.1581  0.5413
  696TIP3    H123579   5.917   3.228  16.161  0.3776 -1.0453  1.8619
  696TIP3    H223580   5.912   3.380  16.165 -1.3276 -1.0368  0.4454
  697TIP3   OH223581   0.909   4.842  14.187 -0.1763 -0.0809  0.0996
  697TIP3    H123582   0.976   4.804  14.131 -2.3321 -1.9974 -1.3595
  697TIP3    H223583   0.908   4.935  14.163 -0.2986 -0.6462 -2.3472
  698TIP3   OH223584   1.020   2.804   1.923  0.2016 -0.0393  0.7577
  698TIP3    H123585   1.090   2.775   1.981 -1.4643 -1.4692  2.1356
  698TIP3    H223586   0.959   2.852   1.980 -1.2374 -1.0693  0.1412
  699TIP3   OH223587   2.655   2.747  11.496 -0.4092 -1.2014  0.3763
  699TIP3    H123588   2.706   2.771  11.573 -0.2966  0.0545 -0.0627
  699TIP3    H223589   2.683   2.658  11.475  0.1211 -1.2682  1.3183
  700TIP3   OH223590   3.827   2.030   0.981  0.5963 -0.4749 -0.1908
  700TIP3    H123591   3.911   1.992   0.954  1.0173  1.5948 -2.1104
  700TIP3    H223592   3.841   2.125   0.977 -1.3978 -0.0787  0.9898
  701TIP3   OH223593   2.580   0.065   6.668  0.0770 -0.5082 -0.7612
  701TIP3    H123594   2.491   0.030   6.669 -0.1830  0.0964  1.1444
  701TIP3    H223595   2.571   0.155   6.700  1.3919 -0.5593 -0.1679
  702TIP3   OH223596   3.694   3.265   5.457  0.3847 -0.9200 -0.2932
  702TIP3    H123597   3.727   3.236   5.371  2.6885  0.0400  0.1846
  702TIP3    H223598   3.748   3.341   5.478 -0.5827 -0.7477  1.7490
  703TIP3   OH223599   5.772   3.488  16.912 -0.3319  0.6492  0.0866
  703TIP3    H123600   5.784   3.440  16.993  2.0044  1.2308  0.1467
  703TIP3    H223601   5.841   3.455  16.854 -1.0184  1.3068 -1.1422
  704TIP3   OH223602   1.334   4.672   0.968  0.6512 -0.2116 -0.2355
  704TIP3    H123603   1.414   4.659   0.917 -0.8568 -0.5746 -2.6641
  704TIP3    H223604   1.316   4.585   1.006  1.5948 -0.0241  0.6867
  705TIP3   OH223605   0.788   1.584   1.576  0.3410 -0.2499  0.3508
  705TIP3    H123606   0.847   1.594   1.651 -0.6269 -0.5032  1.1718
  705TIP3    H223607   0.746   1.670   1.568  1.6717  0.3235 -1.0133
  706TIP3   OH223608   1.606   4.827   3.907 -0.3460 -0.4156 -0.0318
  706TIP3    H123609   1.602   4.795   3.996 -1.6559  0.4281  0.2445
  706TIP3    H223610   1.669   4.770   3.863 -0.0111 -1.1074  1.3078
  707TIP3   OH223611   1.794   4.623  12.039  0.5539  0.2545 -0.1383
  707TIP3    H123612   1.703   4.638  12.065 -0.1358 -0.9226 -1.7351
  707TIP3    H223613   1.827   4.710  12.016 -0.8908  0.4501 -1.6821
  708TIP3   OH223614   5.751   6.037   4.210  0.2470 -0.1657 -0.5081
  708TIP3    H123615   5.694   6.050   4.134 -1.2030 -0.6397  0.4657
  708TIP3    H223616   5.839   6.033   4.173 -0.2827  1.1034 -2.0010
  709TIP3   OH223617   5.434   0.573   1.431  0.1917 -1.0165  0.9818
  709TIP3    H123618   5.401   0.608   1.348  0.5291  0.0234  1.2708
  709TIP3    H223619   5.447   0.480   1.414  1.0976 -0.6649 -0.4044
  710TIP3   OH223620   1.090   2.877   4.479  0.3649  0.4817  0.3051
  710TIP3    H123621   1.052   2.813   4.419  0.2037  1.8143 -1.0727
  710TIP3    H223622   1.015   2.920   4.519  0.4707 -0.4509  1.5783
  711TIP3   OH223623   6.571   6.450  13.927 -0.1853 -0.0979 -0.5598
  711TIP3    H123624   6.583   6.498  13.845 -0.6859 -0.3070 -0.7612
  711TIP3    H223625   6.591   6.359  13.904 -2.2908 -0.4957 -0.9589
  712TIP3   OH223626   4.035   2.052  10.978  0.3735  0.3091 -0.1419
  712TIP3    H123627   4.122   2.020  10.954  0.4866  0.4157  0.1156
  712TIP3    H223628   4.005   2.101  10.901 -0.7835 -2.2954 -1.4503
  713TIP3   OH223629   2.771   0.173  13.517 -0.5287 -0.5328  0.2094
  713TIP3    H123630   2.824   0.240  13.560 -1.2531  0.4361 -0.3903
  713TIP3    H223631   2.828   0.095  13.516  0.0597 -0.1523  1.5324
  714TIP3   OH223632   0.105   4.720   3.902 -0.5975  0.4625  0.0575
  714TIP3    H123633   0.124   4.809   3.931 -1.8719  0.2739  1.6135
  714TIP3    H223634   0.182   4.669   3.928 -0.6391  0.7807  0.8370
  715TIP3   OH223635   1.038   0.280  16.883  0.1949 -0.2006  0.0208
  715TIP3    H123636   1.098   0.218  16.925  0.9529  0.4636 -0.0617
  715TIP3    H223637   1.089   0.360  16.874 -0.1107 -0.1637 -1.6983
  716TIP3   OH223638   6.578   1.900  14.600 -0.2679  0.0840 -0.1091
  716TIP3    H123639   6.558   1.871  14.511 -0.2283 -1.2631  0.2910
  716TIP3    H223640   6.597   1.993  14.591 -0.2143 -0.0333 -1.5182
  717TIP3   OH223641   5.394   5.444   6.602 -0.0401  0.6289 -0.2543
  717TIP3    H123642   5.431   5.361   6.634 -0.0513  0.2345 -1.2364
  717TIP3    H223643   5.430   5.510   6.660  0.4791  0.0027  0.1517
  718TIP3   OH223644   1.943   4.453   3.794 -0.2687  0.5752  0.2352
  718TIP3    H123645   1.949   4.394   3.869 -1.9400  0.2562  0.1497
  718TIP3    H223646   2.011   4.423   3.734  0.6269  0.3984  1.3122
  719TIP3   OH223647   4.166   0.298  15.820  0.3801  0.1836 -0.4752
  719TIP3    H123648   4.073   0.322  15.818  0.6636  1.7025  1.3043
  719TIP3    H223649   4.197   0.314  15.731 -1.0802 -0.4559 -1.1230
  720TIP3   OH223650   3.193   1.942   2.202  0.1604 -0.0302  0.1145
  720TIP3    H123651   3.110   1.959   2.159  0.2321  0.4408  0.1565
  720TIP3    H223652   3.249   1.906   2.133  0.5626  1.5829 -0.4328
  721TIP3   OH223653   3.866   1.281  12.003  0.4333  0.3479  0.2011
  721TIP3    H123654   3.906   1.302  11.919  0.3893 -0.2043  0.0383
  721TIP3    H223655   3.775   1.308  11.993  0.3253 -0.1080 -0.0831
  722TIP3   OH223656   4.592   3.795   2.507 -0.0224 -0.2932 -0.8554
  722TIP3    H123657   4.503   3.813   2.539 -0.6339  0.6389 -2.9185
  722TIP3    H223658   4.649   3.832   2.574 -1.1653 -0.7517  0.4327
  723TIP3   OH223659   3.848   5.958  14.843  0.0732 -0.3814  0.1116
  723TIP3    H123660   3.883   5.886  14.896  0.3872 -0.5295 -0.2948
  723TIP3    H223661   3.768   5.985  14.889  0.3148 -0.5423  0.6310
  724TIP3   OH223662   1.015   2.994  12.642  0.4740  0.3284 -0.7557
  724TIP3    H123663   1.101   3.016  12.609  0.2906  1.6906 -0.3819
  724TIP3    H223664   0.991   3.067  12.699  0.0748 -1.1317  1.0615
  725TIP3   OH223665   6.497   4.705  11.049  0.1943 -0.4065 -0.1551
  725TIP3    H123666   6.415   4.661  11.026 -0.1287 -0.7833  1.6084
  725TIP3    H223667   6.554   4.634  11.078  0.7557 -0.0123 -0.2890
  726TIP3   OH223668   2.847   2.503  16.249  0.1124  0.0660  0.7177
  726TIP3    H123669   2.787   2.437  16.282  0.9476 -1.1146 -0.0220
  726TIP3    H223670   2.932   2.458  16.245  0.6430  1.0882 -0.0969
  727TIP3   OH223671   3.494   5.410   2.326  0.4686  0.3682  0.4984
  727TIP3    H123672   3.451   5.446   2.404  0.3602 -0.2841  0.7490
  727TIP3    H223673   3.434   5.428   2.254 -0.0325 -0.1520  0.7787
  728TIP3   OH223674   2.951   1.474   4.357 -0.2634 -0.2095  0.8703
  728TIP3    H123675   3.026   1.513   4.313 -2.4546  2.3007 -0.9770
  728TIP3    H223676   2.950   1.383   4.328  0.8436  0.2818 -0.8094
  729TIP3   OH223677   3.714   5.102  13.839 -0.1572 -0.5594  0.3355
  729TIP3    H123678   3.662   5.158  13.782  0.8484  0.8880  0.7841
  729TIP3    H223679   3.713   5.146  13.924  0.9476 -1.0365  0.6165
  730TIP3   OH223680   0.445   4.228   6.123 -0.2142 -0.5268  0.2168
  730TIP3    H123681   0.361   4.268   6.099  0.3560 -0.1563 -1.2653
  730TIP3    H223682   0.422   4.139   6.151 -1.1185 -0.3870 -0.0447
  731TIP3   OH223683   6.674   4.910   2.007 -0.2119 -0.7140  0.4357
  731TIP3    H123684   6.653   4.838   2.067 -0.3878 -1.4667 -0.5005
  731TIP3    H223685   6.592   4.958   1.998  0.0051 -0.1442  1.3743
  732TIP3   OH223686   5.000   4.816   4.035 -0.2640 -0.1057  0.0132
  732TIP3    H123687   5.042   4.901   4.046  1.1020 -0.6242 -0.7755
  732TIP3    H223688   4.977   4.788   4.123  0.9006  0.3230  0.4765
  733TIP3   OH223689   6.791   3.809  16.854  0.4309 -0.5042  0.5355
  733TIP3    H123690   6.721   3.810  16.919  0.4982  0.8059  0.6103
  733TIP3    H223691   6.813   3.901  16.840  2.8869 -0.8869  1.3291
  734TIP3   OH223692   0.219   6.106  15.799 -0.0655  0.1779 -0.3331
  734TIP3    H123693   0.305   6.148  15.805  0.1132 -0.1418 -0.6255
  734TIP3    H223694   0.165   6.169  15.751 -0.0126  0.4026 -0.1020
  735TIP3   OH223695   1.679   4.678   3.514  0.4157 -0.2480  0.2728
  735TIP3    H123696   1.735   4.673   3.591 -0.0900  0.6890  0.7213
  735TIP3    H223697   1.613   4.744   3.536  0.0414 -0.2293 -0.8169
  736TIP3   OH223698   1.434   1.581  14.534 -0.5476  0.3056  0.9610
  736TIP3    H123699   1.382   1.653  14.500  2.1177  1.9792  0.1231
  736TIP3    H223700   1.395   1.503  14.494 -2.0622  1.5030 -0.0140
  737TIP3   OH223701   5.678   2.283   5.724  0.1172 -0.6196 -0.1372
  737TIP3    H123702   5.609   2.344   5.748  0.8275 -0.1306  0.7608
  737TIP3    H223703   5.638   2.223   5.661 -1.3676 -0.8907  1.0243
  738TIP3   OH223704   6.757   6.601  12.382  0.8767  0.3451  0.6460
  738TIP3    H123705   6.817   6.664  12.420  3.1673 -0.9414 -0.6310
  738TIP3    H223706   6.798   6.516  12.398 -1.7752 -0.8320  1.7406
  739TIP3   OH223707   1.269   3.614  15.081  0.3505 -0.0884 -0.5495
  739TIP3    H123708   1.219   3.695  15.091  0.0174 -0.4237  0.6991
  739TIP3    H223709   1.354   3.633  15.122  0.6391 -0.0692 -1.1375
  740TIP3   OH223710   4.973   2.495  12.267 -0.1523 -0.2375 -0.2051
  740TIP3    H123711   4.894   2.538  12.234  0.1925  1.0009  0.5090
  740TIP3    H223712   4.941   2.430  12.330 -0.5961  1.4541  1.4244
  741TIP3   OH223713   3.373   4.086   4.315 -0.7589 -0.1653  0.1320
  741TIP3    H123714   3.419   4.161   4.277 -0.3177  0.3409  1.6013
  741TIP3    H223715   3.395   4.089   4.408 -0.7125 -2.1427  0.2268
  742TIP3   OH223716   0.527   1.948  11.990  0.4065 -0.0960  0.2981
  742TIP3    H123717   0.482   1.934  12.074 -0.0346 -0.7766 -0.0410
  742TIP3    H223718   0.571   2.032  12.000 -0.7010  0.4589  0.7600
  743TIP3   OH223719   4.174   2.967   4.086  0.5376 -0.0394  0.1825
  743TIP3    H123720   4.148   2.896   4.145  0.5373  0.6516  1.0395
  743TIP3    H223721   4.186   3.042   4.144  1.2246  0.4825 -0.6283
  744TIP3   OH223722   5.530   0.596  12.343  0.1949 -0.1582 -0.0468
  744TIP3    H123723   5.563   0.626  12.259  0.0447 -0.6353 -0.2863
  744TIP3    H223724   5.606   0.561  12.389  0.1917 -0.3700 -0.2008
  745TIP3   OH223725   6.126   6.655  17.088  0.3645  0.1318  0.0240
  745TIP3    H123726   6.138   6.678  17.180  1.2789 -0.4102  0.0549
  745TIP3    H223727   6.039   6.687  17.066  0.6598  1.4758  0.7052
  746TIP3   OH223728   6.183   5.221   5.463  0.6312  0.6302  0.4099
  746TIP3    H123729   6.103   5.242   5.509  0.4389  1.3539 -0.2252
  746TIP3    H223730   6.168   5.133   5.427 -0.4234  1.2926 -0.8425
  747TIP3   OH223731   2.474   2.910  13.049  0.6209  0.5555 -0.5431
  747TIP3    H123732   2.421   2.892  12.972 -0.3603 -0.4441  0.3178
  747TIP3    H223733   2.410   2.920  13.120  1.5283  0.5618  0.3002
  748TIP3   OH223734   0.237   2.173  13.013  0.0173 -0.7237 -0.4419
  748TIP3    H123735   0.228   2.130  13.098 -2.0536  2.3067  1.0877
  748TIP3    H223736   0.152   2.161  12.970  0.2056 -0.1589 -0.9937
  749TIP3   OH223737   0.030   0.188  15.307  0.4398 -0.0124  0.4232
  749TIP3    H123738   0.090   0.260  15.327  2.3100 -1.8087  1.6883
  749TIP3    H223739  -0.057   0.227  15.315  1.3618  2.0451  1.3163
  750TIP3   OH223740   1.636   6.579  16.625 -0.0050  0.3808 -0.3557
  750TIP3    H123741   1.625   6.658  16.677  1.9523 -0.7560  2.0229
  750TIP3    H223742   1.566   6.521  16.654  0.2068  0.2792 -0.0365
  751TIP3   OH223743   1.914   1.133  16.177 -0.3464  0.0409 -0.2033
  751TIP3    H123744   1.836   1.175  16.214 -0.9876  0.2916 -1.7749
  751TIP3    H223745   1.889   1.110  16.088  2.0260  2.1126 -1.5534
  752TIP3   OH223746   5.460   6.605  12.470 -0.0733  0.6293  0.5424
  752TIP3    H123747   5.513   6.632  12.394  0.0651  1.3746  0.8967
  752TIP3    H223748   5.475   6.511  12.477  1.7417  0.9019  1.0210
  753TIP3   OH223749   0.291   2.145   5.212 -0.7305  0.5129 -0.3237
  753TIP3    H123750   0.282   2.081   5.282 -0.9140 -0.0989 -0.8901
  753TIP3    H223751   0.201   2.162   5.184 -0.7340  1.5895  0.3220
  754TIP3   OH223752   2.646   6.100  12.959  0.4656 -0.1273 -0.1530
  754TIP3    H123753   2.682   6.041  13.026  2.3555  0.2260 -0.8061
  754TIP3    H223754   2.561   6.061  12.936  1.0562 -1.8429  0.3975
  755TIP3   OH223755   0.884   1.185  12.755 -0.5342 -0.0804  0.5362
  755TIP3    H123756   0.853   1.193  12.665 -0.4016 -1.3753  0.3488
  755TIP3    H223757   0.930   1.267  12.772  0.2571 -0.1920 -0.9038
  756TIP3   OH223758   5.176   3.072   5.823  0.4337  0.0055  0.2746
  756TIP3    H123759   5.127   3.011   5.767  0.9493  0.8861 -1.1897
  756TIP3    H223760   5.124   3.078   5.903 -1.8912  0.8474 -1.1855
  757TIP3   OH223761   0.506   5.512   1.445 -0.4474 -0.5581  0.5921
  757TIP3    H123762   0.579   5.547   1.497 -0.6252  1.8328 -0.6510
  757TIP3    H223763   0.433   5.510   1.507  0.0331 -0.5336  1.1794
  758TIP3   OH223764   2.447   6.282   5.024 -0.4278  0.3864  0.2515
  758TIP3    H123765   2.540   6.304   5.022 -0.2496 -0.3548 -0.0597
  758TIP3    H223766   2.442   6.204   5.080 -0.7287 -0.1337 -0.4855
  759TIP3   OH223767   1.589   6.224   5.779 -0.3959 -0.9440 -0.2178
  759TIP3    H123768   1.514   6.283   5.788 -0.8538 -1.4954 -0.3270
  759TIP3    H223769   1.596   6.208   5.685 -0.4742 -1.3087 -0.1640
  760TIP3   OH223770   2.672   0.656  15.863 -0.2097  0.4623  0.1421
  760TIP3    H123771   2.661   0.726  15.799 -0.1475 -0.1487 -0.5439
  760TIP3    H223772   2.590   0.655  15.912  0.5702  2.4860  1.6875
  761TIP3   OH223773   2.113   0.460  12.256  0.3413  0.2136  0.0786
  761TIP3    H123774   2.169   0.409  12.199 -0.1242  0.9147 -1.0440
  761TIP3    H223775   2.113   0.548  12.217 -1.2053  0.3299  0.2635
  762TIP3   OH223776   3.869   2.501   3.537  0.6992 -0.0998  0.3057
  762TIP3    H123777   3.896   2.479   3.448  1.2221 -0.5402  0.5677
  762TIP3    H223778   3.946   2.543   3.576  0.7728 -0.7030  0.8298
  763TIP3   OH223779   4.648   2.670  15.354 -0.4332 -0.1996  0.0283
  763TIP3    H123780   4.723   2.631  15.309  0.6056 -0.1557  1.6504
  763TIP3    H223781   4.572   2.640  15.304  0.6780  0.9738 -2.5838
  764TIP3   OH223782   0.897   4.414  16.683  0.1312  0.4320 -0.2182
  764TIP3    H123783   0.877   4.351  16.753  2.9548 -0.5090 -0.1541
  764TIP3    H223784   0.836   4.487  16.699 -1.6432 -1.2308  1.1035
  765TIP3   OH223785   4.740   2.071  10.805 -0.2742 -0.5970  0.0815
  765TIP3    H123786   4.740   2.002  10.738  0.2286  0.0555 -0.6163
  765TIP3    H223787   4.651   2.069  10.841 -0.6778 -0.7262 -0.8768
  766TIP3   OH223788   5.869   2.993   1.219 -0.5466 -0.1146 -0.0658
  766TIP3    H123789   5.942   2.995   1.157  0.2135  1.8165  0.8156
  766TIP3    H223790   5.842   2.901   1.222  1.8424 -0.8916 -0.4434
  767TIP3   OH223791   6.816   6.297  11.358 -0.4025 -0.6082  0.5737
  767TIP3    H123792   6.774   6.362  11.301  0.9818 -0.9567 -0.9259
  767TIP3    H223793   6.888   6.344  11.400 -0.9508 -0.5507  1.4669
  768TIP3   OH223794   4.185   6.547   2.943  0.0012 -0.4526  0.0971
  768TIP3    H123795   4.158   6.637   2.925  0.7332 -0.1667  0.4000
  768TIP3    H223796   4.103   6.498   2.951 -0.3978  0.1169 -0.3994
  769TIP3   OH223797   2.548   1.347   1.577 -0.2518  1.0460 -0.7605
  769TIP3    H123798   2.574   1.409   1.509  2.1980  0.1994 -0.6975
  769TIP3    H223799   2.562   1.261   1.537 -0.2892  0.5380  0.2838
  770TIP3   OH223800   5.529   3.477   1.816 -0.1373  0.5924 -0.2565
  770TIP3    H123801   5.456   3.503   1.760  0.1251 -0.5623 -1.2034
  770TIP3    H223802   5.503   3.392   1.852  0.4789  0.4527 -0.1248
  771TIP3   OH223803   2.156   1.357   4.583 -0.1693  0.0547  0.0362
  771TIP3    H123804   2.164   1.334   4.676  0.0856 -1.0214 -0.2413
  771TIP3    H223805   2.104   1.286   4.545  1.5728 -0.6720 -1.0767
  772TIP3   OH223806   3.545   1.999  15.264 -0.3014 -0.3115 -0.3236
  772TIP3    H123807   3.543   1.942  15.342  0.2950 -0.6458 -0.5458
  772TIP3    H223808   3.633   1.986  15.227 -0.4765  0.0729 -0.8857
  773TIP3   OH223809   4.155   5.502  11.482 -0.8413  0.2841  0.0605
  773TIP3    H123810   4.160   5.414  11.519  0.9515  0.4915  0.3722
  773TIP3    H223811   4.114   5.490  11.397  1.9473 -1.3199 -1.1910
  774TIP3   OH223812   3.409   2.165  13.277 -0.1382  0.1536  0.1340
  774TIP3    H123813   3.380   2.099  13.339  0.3108  1.2643  1.5807
  774TIP3    H223814   3.347   2.237  13.287 -0.4787  0.0791 -1.2392
  775TIP3   OH223815   3.221   6.335   1.287 -0.1552 -0.2802 -0.0502
  775TIP3    H123816   3.296   6.338   1.228 -0.5965 -1.1570 -0.6754
  775TIP3    H223817   3.176   6.254   1.264 -0.2833 -0.6910  1.5674
  776TIP3   OH223818   4.452   3.438  16.526  0.4368  0.0278 -0.1115
  776TIP3    H123819   4.448   3.343  16.536 -1.7837  0.0655 -0.1465
  776TIP3    H223820   4.526   3.465  16.580  0.6109 -1.6457  0.5325
  777TIP3   OH223821   1.779   0.473  16.767  0.0047 -0.0956  0.0301
  777TIP3    H123822   1.768   0.450  16.674 -0.4948  0.4539 -0.0558
  777TIP3    H223823   1.702   0.436  16.810  0.4051 -0.6380  0.2840
  778TIP3   OH223824   5.646   1.675  13.508 -0.5636  0.4033  0.0933
  778TIP3    H123825   5.666   1.597  13.560 -0.1709  0.2820 -0.2297
  778TIP3    H223826   5.587   1.726  13.563 -1.4449 -0.4803 -0.0037
  779TIP3   OH223827   4.405   5.728   2.820  0.0284  0.3772 -0.3480
  779TIP3    H123828   4.439   5.810   2.784  2.9146  0.4000  2.0285
  779TIP3    H223829   4.368   5.753   2.905 -1.8889 -0.3852 -0.9203
  780TIP3   OH223830   2.123   1.944   4.821  0.1326 -0.8720 -0.3159
  780TIP3    H123831   2.133   2.038   4.805  0.8595 -0.8804  0.0407
  780TIP3    H223832   2.100   1.938   4.914 -1.2211 -0.9850 -0.6307
  781TIP3   OH223833   2.414   4.568   4.906 -0.4422 -0.1161  0.5390
  781TIP3    H123834   2.498   4.527   4.882 -1.2030 -1.8209  0.5906
  781TIP3    H223835   2.436   4.629   4.975  0.7737 -0.5628  0.5723
  782TIP3   OH223836   2.746   4.811  15.715 -0.6937  0.0755  0.3975
  782TIP3    H123837   2.814   4.791  15.779  0.4921  1.8421 -0.2595
  782TIP3    H223838   2.678   4.856  15.765 -1.3167 -1.4706  1.0039
  783TIP3   OH223839   3.181   5.287   1.082 -0.1172  0.0096  0.1856
  783TIP3    H123840   3.205   5.285   1.174  1.2394 -0.7136 -0.1565
  783TIP3    H223841   3.244   5.347   1.042 -2.9709  3.4372  0.2653
  784TIP3   OH223842   4.998   0.284  12.217  0.3381  0.0805  0.3558
  784TIP3    H123843   5.085   0.244  12.219 -0.2392 -1.2599 -0.6665
  784TIP3    H223844   5.001   0.344  12.142  0.2147 -0.3352  0.0202
  785TIP3   OH223845   5.541   5.367   0.359  0.1556 -0.2774  0.1443
  785TIP3    H123846   5.533   5.399   0.269  1.0127  0.7362  0.3951
  785TIP3    H223847   5.618   5.414   0.394 -0.1159 -0.7046  1.3730
  786TIP3   OH223848   3.246   6.015  15.948  0.3460 -0.3681 -0.6245
  786TIP3    H123849   3.181   6.076  15.985 -1.5584 -3.0964  0.8936
  786TIP3    H223850   3.330   6.057  15.966 -0.7918  1.2325  1.5765
  787TIP3   OH223851   1.099   3.927   1.379  0.5328 -0.1679  0.8343
  787TIP3    H123852   1.018   3.972   1.354  1.0377  0.2005 -0.1670
  787TIP3    H223853   1.163   3.955   1.315  1.7649  0.4570  2.2785
  788TIP3   OH223854   3.327   0.300   0.955  0.0627  0.3797 -0.4069
  788TIP3    H123855   3.408   0.250   0.959  0.8622  1.6259 -0.3883
  788TIP3    H223856   3.336   0.367   1.023 -0.4364  1.3026 -1.2060
  789TIP3   OH223857   3.478   2.428   5.936  0.0628  0.0967 -0.1952
  789TIP3    H123858   3.406   2.490   5.925 -0.9935 -0.6131  1.9639
  789TIP3    H223859   3.462   2.360   5.871 -1.5738 -0.3120  0.5767
  790TIP3   OH223860   6.374   1.305   4.676 -0.6571  0.4538  0.2409
  790TIP3    H123861   6.290   1.349   4.661 -1.1904 -0.1331  1.3981
  790TIP3    H223862   6.378   1.293   4.771  1.4288  1.8252  0.4042
  791TIP3   OH223863   4.124   3.474   3.648  0.2255 -0.1530 -0.7466
  791TIP3    H123864   4.186   3.498   3.579  1.4679 -1.8086 -0.2865
  791TIP3    H223865   4.178   3.467   3.727 -0.6727 -0.8948 -0.1726
  792TIP3   OH223866   2.529   4.117   3.909 -0.4671  0.0189 -0.1298
  792TIP3    H123867   2.530   4.097   3.815  0.8331 -4.0844  0.5873
  792TIP3    H223868   2.446   4.080   3.941  1.2574 -3.2377  0.9908
  793TIP3   OH223869   6.343   4.434   3.145  0.6393  0.2527 -0.4448
  793TIP3    H123870   6.337   4.399   3.234  2.4639 -0.9654 -0.7595
  793TIP3    H223871   6.253   4.430   3.112  0.1975 -0.7434  0.8004
  794TIP3   OH223872   0.178   6.189  17.138 -0.2778 -0.1094  0.1554
  794TIP3    H123873   0.142   6.177  17.226 -2.8630  0.8946 -0.6677
  794TIP3    H223874   0.136   6.121  17.086 -0.0652  0.3595 -0.6348
  795TIP3   OH223875   2.964   5.572  16.870 -0.0818 -0.5433  0.1596
  795TIP3    H123876   3.007   5.597  16.951 -0.1904 -2.5948  0.8973
  795TIP3    H223877   3.035   5.556  16.808  0.1015 -1.0431  0.4960
  796TIP3   OH223878   4.268   5.320   2.526  0.1071  0.0146 -0.8608
  796TIP3    H123879   4.220   5.260   2.584 -0.5047  0.4694 -0.8858
  796TIP3    H223880   4.348   5.339   2.574 -0.5060  0.5888 -0.0288
  797TIP3   OH223881   0.061   5.395   2.201 -0.2573  0.1214  0.2929
  797TIP3    H123882  -0.001   5.436   2.261 -0.7379  0.9485 -0.7368
  797TIP3    H223883   0.023   5.308   2.184 -0.8571  0.4123  0.0976
  798TIP3   OH223884   0.644   6.818  13.893 -0.3109  0.2032  0.1874
  798TIP3    H123885   0.568   6.875  13.883 -2.2290 -1.9060  1.4718
  798TIP3    H223886   0.652   6.806  13.988  0.8141 -0.6175  0.0049
  799TIP3   OH223887   3.807   2.998  16.981 -0.0241 -0.4908  0.4504
  799TIP3    H123888   3.728   2.969  17.027  0.1268 -0.5767  0.6569
  799TIP3    H223889   3.781   3.001  16.889 -0.4275  0.0070  0.5748
  800TIP3   OH223890   4.537   5.876  12.543  0.5653 -0.2656 -0.1815
  800TIP3    H123891   4.529   5.971  12.549  0.7737 -0.2591  0.0145
  800TIP3    H223892   4.608   5.862  12.481  2.5286 -0.2370  1.9265
  801TIP3   OH223893   6.436   4.724   4.823  0.2338 -0.5392  0.0859
  801TIP3    H123894   6.481   4.648   4.860 -0.5762 -2.4594 -2.4719
  801TIP3    H223895   6.343   4.698   4.822 -0.2750  1.1407  0.5156
  802TIP3   OH223896   6.599   3.893   2.962 -0.1047 -0.9763  0.0052
  802TIP3    H123897   6.673   3.948   2.937  0.7156 -3.2025 -3.0516
  802TIP3    H223898   6.523   3.951   2.953  0.7439 -0.1133 -2.6410
  803TIP3   OH223899   3.003   4.430   5.756  0.3993  0.8518  0.5450
  803TIP3    H123900   2.930   4.387   5.801  1.6351 -0.1824  1.6374
  803TIP3    H223901   2.971   4.518   5.739 -0.8007  0.6909  1.7561
  804TIP3   OH223902   4.079   6.364  15.394  0.0398 -0.0030  0.0646
  804TIP3    H123903   4.045   6.437  15.444  0.4201  1.0490 -1.1664
  804TIP3    H223904   4.022   6.290  15.416 -2.2323  1.3635 -0.9394
  805TIP3   OH223905   1.888   2.822   0.130 -0.0698 -0.4320 -0.1114
  805TIP3    H123906   1.794   2.812   0.148  0.0725  0.8256  1.5216
  805TIP3    H223907   1.927   2.742   0.165 -0.4993 -0.9385 -0.7480
  806TIP3   OH223908   2.963   5.041  14.940  0.0006 -0.4480  0.3009
  806TIP3    H123909   2.987   5.124  14.983 -1.1448  0.2286 -0.3084
  806TIP3    H223910   3.046   4.995  14.927  0.7383  0.9113  0.0392
  807TIP3   OH223911   0.227   1.296  15.031  0.0805  0.4053 -0.4465
  807TIP3    H123912   0.164   1.315  15.100  1.5611  0.4323  0.9508
  807TIP3    H223913   0.313   1.300  15.074  0.9082 -3.5133 -1.3255
  808TIP3   OH223914   1.241   4.247  14.503 -0.2215 -0.4033  0.3005
  808TIP3    H123915   1.330   4.274  14.525  0.4830 -2.5426  0.2352
  808TIP3    H223916   1.244   4.225  14.410 -0.6148 -1.2293  0.4732
  809TIP3   OH223917   3.834   1.830  13.061 -0.2097 -0.2745  0.1824
  809TIP3    H123918   3.913   1.856  13.014  0.1728  0.0372  0.9713
  809TIP3    H223919   3.858   1.839  13.153 -1.0956 -0.4095  0.4305
  810TIP3   OH223920   5.135   0.775  14.617  0.2425  0.4353  0.4080
  810TIP3    H123921   5.185   0.722  14.555 -0.5709  0.0296  0.0919
  810TIP3    H223922   5.167   0.746  14.703  0.3766  0.0132  0.2183
  811TIP3   OH223923   3.395   5.742   4.458 -0.2668  0.1865  0.2358
  811TIP3    H123924   3.436   5.655   4.452  1.3052  0.9324 -0.5697
  811TIP3    H223925   3.454   5.792   4.514 -0.6539  1.0012 -0.0776
  812TIP3   OH223926   2.833   0.086   1.578 -0.2435  0.6078  0.0703
  812TIP3    H123927   2.780   0.068   1.499 -0.0382  0.2911  0.0024
  812TIP3    H223928   2.918   0.046   1.559 -0.6494 -0.7699  1.0493
  813TIP3   OH223929   2.046   5.675  11.074 -0.3268  0.4560 -0.5876
  813TIP3    H123930   2.084   5.691  10.988 -0.0533 -1.2103 -0.8247
  813TIP3    H223931   1.973   5.614  11.056 -1.5558  1.6576  0.1391
  814TIP3   OH223932   5.837   0.472  16.138  0.6895  0.1045 -0.2132
  814TIP3    H123933   5.771   0.483  16.206 -0.7386 -0.2813 -1.4765
  814TIP3    H223934   5.841   0.378  16.123  1.8046  0.0889  0.0753
  815TIP3   OH223935   1.423   3.394  11.898 -0.0215 -0.0518 -0.3530
  815TIP3    H123936   1.387   3.314  11.936 -0.8633  0.2567 -0.4874
  815TIP3    H223937   1.454   3.444  11.974  1.3225 -0.8704 -0.3251
  816TIP3   OH223938   6.082   2.270  16.355 -0.1678 -0.4285 -0.5388
  816TIP3    H123939   6.022   2.281  16.428 -2.4404 -0.1417 -2.3356
  816TIP3    H223940   6.066   2.181  16.324  1.1153 -0.7148 -0.4342
  817TIP3   OH223941   4.690   0.576  12.414 -0.1314  0.2953 -0.7168
  817TIP3    H123942   4.735   0.660  12.407  2.0734 -0.9389 -2.8729
  817TIP3    H223943   4.760   0.513  12.432 -1.8109 -1.0746  1.5849
  818TIP3   OH223944   6.738   4.459   4.431  0.4589 -0.3729 -0.0663
  818TIP3    H123945   6.801   4.502   4.372  1.0747  0.3691  1.1102
  818TIP3    H223946   6.769   4.480   4.519 -0.1170 -1.9410  0.5494
  819TIP3   OH223947   3.861   6.007   1.897 -0.0528 -0.1791 -0.4491
  819TIP3    H123948   3.829   6.026   1.985  0.6018 -0.5139 -0.1289
  819TIP3    H223949   3.926   6.075   1.879 -0.0898 -0.1874 -0.6235
  820TIP3   OH223950   5.016   6.690   5.008  0.1821 -0.3860 -0.4289
  820TIP3    H123951   5.017   6.782   4.981 -1.4820 -0.4961 -0.9771
  820TIP3    H223952   4.928   6.676   5.043  0.6747 -1.5714  0.4070
  821TIP3   OH223953   4.238   2.345   1.762 -0.1500  0.0813  0.0815
  821TIP3    H123954   4.201   2.263   1.795  0.4827  0.3689  1.6325
  821TIP3    H223955   4.264   2.325   1.672  0.0579 -1.4446  0.4456
  822TIP3   OH223956   1.530   3.951  12.220 -0.3461  0.2794  0.2165
  822TIP3    H123957   1.625   3.941  12.232  0.0332 -0.4780 -2.7282
  822TIP3    H223958   1.494   3.868  12.250 -0.2260  0.8312  2.0352
  823TIP3   OH223959   1.633   2.694  13.368  0.0753  0.1550  0.0383
  823TIP3    H123960   1.705   2.633  13.350 -0.8385 -0.3035 -2.4596
  823TIP3    H223961   1.677   2.777  13.387  1.2674 -0.4758  0.1590
  824TIP3   OH223962   4.082   2.203  14.606  0.6691  0.0446  0.1845
  824TIP3    H123963   4.038   2.288  14.602  0.3287 -0.1375 -0.0527
  824TIP3    H223964   4.160   2.218  14.659 -1.0678 -0.2431  2.9995
  825TIP3   OH223965   2.958   1.387   0.580 -0.2798  0.2569  0.0295
  825TIP3    H123966   2.948   1.326   0.507  0.5583  0.9751 -0.7126
  825TIP3    H223967   2.884   1.368   0.637 -1.5086  0.3215 -1.4846
  826TIP3   OH223968   0.743   4.275   2.585 -0.2042  0.1292 -0.0963
  826TIP3    H123969   0.659   4.286   2.539  0.2492  2.1020 -0.5228
  826TIP3    H223970   0.734   4.328   2.664 -0.4962 -2.2285  1.5679
  827TIP3   OH223971   1.810   4.295  15.602 -0.7129 -0.4004  0.1234
  827TIP3    H123972   1.743   4.329  15.662  0.1022  0.3805  0.6222
  827TIP3    H223973   1.893   4.327  15.638  0.1377 -2.9585  0.6269
  828TIP3   OH223974   0.159   3.726  14.655 -0.0923  0.1120 -0.2366
  828TIP3    H123975   0.159   3.665  14.729 -0.3568 -0.5190 -0.7470
  828TIP3    H223976   0.086   3.785  14.673 -1.2242 -1.0622 -0.7984
  829TIP3   OH223977   2.113   4.210   3.645 -0.4339  0.0798  0.2904
  829TIP3    H123978   2.122   4.140   3.710  1.7846 -0.8003 -0.8489
  829TIP3    H223979   2.098   4.164   3.563 -0.3003  1.0281 -0.2718
  830TIP3   OH223980   4.237   2.423   1.123  0.3992 -0.7220 -0.0017
  830TIP3    H123981   4.161   2.375   1.154 -0.0093  0.8284  1.5880
  830TIP3    H223982   4.204   2.475   1.050  0.2322 -0.9664 -0.1026
  831TIP3   OH223983   0.154   5.391  13.480 -0.6431  0.0741  0.0378
  831TIP3    H123984   0.175   5.393  13.573 -2.5404  0.2231  0.5106
  831TIP3    H223985   0.073   5.440  13.472  0.1500  1.2067 -1.9176
  832TIP3   OH223986   6.204   6.128   3.873 -0.0460  0.3456  0.0593
  832TIP3    H123987   6.162   6.188   3.811 -0.3959  0.5236  0.4666
  832TIP3    H223988   6.228   6.183   3.947 -2.6811 -0.4071  1.5981
  833TIP3   OH223989   0.428   3.833  14.335  0.0104 -1.1090  0.2618
  833TIP3    H123990   0.431   3.780  14.255  0.1885 -0.8430  0.0886
  833TIP3    H223991   0.517   3.827  14.370  0.0333 -0.9202  0.2366
  834TIP3   OH223992   6.413   0.254  14.100  0.2918 -0.2530  0.1689
  834TIP3    H123993   6.339   0.308  14.126  0.1025 -0.9205  1.0897
  834TIP3    H223994   6.479   0.268  14.169  1.0199  0.3145 -0.6243
  835TIP3   OH223995   5.953   6.681  15.102  0.2666 -0.7358 -0.1149
  835TIP3    H123996   5.868   6.642  15.122  0.0650 -2.5395 -3.7290
  835TIP3    H223997   6.012   6.644  15.168 -1.3977 -0.6152  1.5346
  836TIP3   OH223998   3.743   3.759  12.697  0.7904  0.3043  0.4508
  836TIP3    H123999   3.665   3.747  12.751  0.2018 -1.3089 -0.6592
  836TIP3    H224000   3.709   3.769  12.608  1.8102  0.9389  0.1142
  837TIP3   OH224001   2.644   2.045   3.060  0.0819 -0.0007  0.9684
  837TIP3    H124002   2.709   2.052   3.130 -0.2063  0.5867  1.1858
  837TIP3    H224003   2.682   2.094   2.987  0.2637 -0.3849  0.8064
  838TIP3   OH224004   0.910   2.169   1.513  0.0553 -0.0473 -0.0832
  838TIP3    H124005   0.929   2.123   1.432  0.5462  1.0260 -0.6023
  838TIP3    H224006   0.864   2.248   1.486  0.7080  0.5891  0.6260
  839TIP3   OH224007   6.478   4.209   6.008 -0.6058  0.1561  0.2587
  839TIP3    H124008   6.466   4.293   6.052  1.6621  1.3388 -1.1451
  839TIP3    H224009   6.491   4.146   6.079  0.7699  1.6021  1.3630
  840TIP3   OH224010   6.237   6.190  12.537 -0.2401 -0.0981  0.2340
  840TIP3    H124011   6.325   6.167  12.506 -0.1024  1.8745 -1.0343
  840TIP3    H224012   6.252   6.236  12.620 -0.0053  0.7028 -0.2424
  841TIP3   OH224013   0.419   4.283  14.980  0.3435 -0.0931  0.0477
  841TIP3    H124014   0.324   4.299  14.978  0.3799  0.0861 -0.9605
  841TIP3    H224015   0.457   4.371  14.983  0.4973 -0.0461 -2.0360
  842TIP3   OH224016   1.811   0.827  13.547  0.4685 -0.6994  0.1940
  842TIP3    H124017   1.763   0.855  13.469 -2.8360  0.5325  2.4533
  842TIP3    H224018   1.875   0.897  13.563  2.0460 -1.5395 -1.9174
  843TIP3   OH224019   1.898   6.380   0.295 -0.1806 -0.3836  0.1552
  843TIP3    H124020   1.901   6.308   0.358 -2.8221 -0.9855 -0.3081
  843TIP3    H224021   1.881   6.458   0.348 -0.0216 -0.5126  0.3980
  844TIP3   OH224022   4.321   0.412  12.512 -0.0051  0.1124  0.1909
  844TIP3    H124023   4.341   0.506  12.508 -1.8342  0.4894 -1.3817
  844TIP3    H224024   4.400   0.370  12.477  0.6399  1.0877  0.4291
  845TIP3   OH224025   5.436   1.162   1.255 -0.2695  0.2451 -0.2652
  845TIP3    H124026   5.471   1.170   1.167  0.0877 -0.0026 -0.1451
  845TIP3    H224027   5.374   1.235   1.262 -1.7043 -0.8123 -1.3578
  846TIP3   OH224028   2.184   6.491  14.432 -0.1403 -0.6871  0.0879
  846TIP3    H124029   2.273   6.462  14.454  0.6697  1.3027 -0.3189
  846TIP3    H224030   2.155   6.540  14.509 -0.1197  0.2370 -0.4706
  847TIP3   OH224031   3.406   0.796   5.939 -0.4821  0.0266 -0.3300
  847TIP3    H124032   3.393   0.831   6.027 -1.1188  0.3698 -0.5502
  847TIP3    H224033   3.317   0.792   5.902 -0.4290 -1.8345 -0.3181
  848TIP3   OH224034   4.759   5.307   0.530  0.4087 -0.2371 -0.2170
  848TIP3    H124035   4.796   5.221   0.511  3.0261  0.6077  0.6036
  848TIP3    H224036   4.831   5.355   0.570 -1.6213  1.6248  1.4306
  849TIP3   OH224037   4.707   2.938  16.262 -0.2385 -0.2650  0.0491
  849TIP3    H124038   4.727   2.848  16.288 -1.7883 -0.6516 -0.0001
  849TIP3    H224039   4.679   2.930  16.171 -1.0771  0.1482  0.2592
  850TIP3   OH224040   3.776   4.344  14.899  0.5691 -0.3091  0.1068
  850TIP3    H124041   3.835   4.281  14.858  0.2953 -2.2164  2.4373
  850TIP3    H224042   3.833   4.412  14.933  0.9376  0.3645 -1.7326
  851TIP3   OH224043   4.660   2.515  15.785 -0.0828  0.0013 -0.2318
  851TIP3    H124044   4.647   2.592  15.729  1.3330  0.9604  0.6615
  851TIP3    H224045   4.606   2.532  15.862  0.4973  0.3007  0.1204
  852TIP3   OH224046   0.530   3.271   0.383  0.1618  0.2620  0.1801
  852TIP3    H124047   0.519   3.201   0.319  0.9288  0.7058 -0.4481
  852TIP3    H224048   0.446   3.275   0.428 -0.3797 -0.0716 -0.7745
  853TIP3   OH224049   0.949   3.344   1.913  0.2340  0.0733 -0.0045
  853TIP3    H124050   0.995   3.263   1.891  1.3929  0.9394 -0.9221
  853TIP3    H224051   0.889   3.359   1.840 -1.6762 -1.1237  1.2561
  854TIP3   OH224052   0.028   3.758   3.538  0.3373 -0.2382 -0.6973
  854TIP3    H124053   0.031   3.667   3.510 -0.4034 -1.0364  1.6553
  854TIP3    H224054  -0.026   3.801   3.471  0.4087 -1.5768 -1.6517
  855TIP3   OH224055   3.326   5.515   2.570  0.0349  0.0958  0.0217
  855TIP3    H124056   3.330   5.610   2.557  0.6273  0.1173  0.2901
  855TIP3    H224057   3.400   5.497   2.629 -1.4984 -0.2093  1.9618
  856TIP3   OH224058   4.480   0.234  13.375  0.2934  0.5142  0.7104
  856TIP3    H124059   4.454   0.169  13.440 -0.2911  0.0127 -0.0038
  856TIP3    H224060   4.458   0.319  13.415  0.8507  0.2731  1.5550
  857TIP3   OH224061   1.225   6.210   2.082  0.4171  0.3294  0.5620
  857TIP3    H124062   1.257   6.250   2.163  0.1031  0.7053  0.5047
  857TIP3    H224063   1.142   6.254   2.065  1.3841  1.7046 -1.0092
  858TIP3   OH224064   5.351   1.290   4.446 -0.4255 -0.3279  0.4021
  858TIP3    H124065   5.421   1.335   4.492  0.0602 -1.0295  0.3637
  858TIP3    H224066   5.304   1.242   4.514 -0.3129 -0.5818  0.2996
  859TIP3   OH224067   5.703   2.021  13.137 -0.4057 -0.1285 -0.1783
  859TIP3    H124068   5.694   1.939  13.185  0.0321  0.3776  0.7953
  859TIP3    H224069   5.615   2.039  13.104 -0.8711 -0.1517  1.0150
  860TIP3   OH224070   3.124   1.559   5.231 -0.0140  0.0505 -0.5339
  860TIP3    H124071   3.105   1.642   5.275  1.0718 -0.4552  0.9875
  860TIP3    H224072   3.203   1.527   5.274  1.7141 -0.0571 -3.5854
  861TIP3   OH224073   4.169   1.103  15.391 -0.2298  1.2935 -0.4600
  861TIP3    H124074   4.176   1.167  15.461  1.3373 -0.7659  1.4443
  861TIP3    H224075   4.105   1.039  15.423  1.7108 -0.5579 -0.0105
  862TIP3   OH224076   1.753   1.133   1.599  0.5990 -0.6365  0.3693
  862TIP3    H124077   1.726   1.118   1.690 -0.5810  0.1318  0.1659
  862TIP3    H224078   1.710   1.215   1.575  0.3925 -1.1552 -1.0978
  863TIP3   OH224079   2.406   3.244  16.529 -0.3724 -0.3260  0.1164
  863TIP3    H124080   2.346   3.250  16.603 -0.2790 -1.2374  0.2819
  863TIP3    H224081   2.424   3.150  16.521 -1.2428 -0.3791 -1.7441
  864TIP3   OH224082   3.050   3.533  13.937 -0.1989  0.4793 -0.2232
  864TIP3    H124083   3.129   3.489  13.907 -1.2141 -0.5472 -1.5256
  864TIP3    H224084   3.015   3.476  14.006  0.3192  1.0803  0.5573
  865TIP3   OH224085   5.810   3.193  13.636 -0.3114  0.2465 -0.2795
  865TIP3    H124086   5.845   3.228  13.554 -0.5424  0.0673 -0.4536
  865TIP3    H224087   5.778   3.106  13.614  0.9455 -0.3929  0.3223
  866TIP3   OH224088   3.067   0.995   3.441  0.0746  0.6330  0.2182
  866TIP3    H124089   3.023   1.024   3.521 -0.6996  0.0652 -0.0012
  866TIP3    H224090   3.105   0.910   3.464  2.6840  1.8683  0.9836
  867TIP3   OH224091   0.119   4.072  16.835 -0.1131 -0.1412  0.3711
  867TIP3    H124092   0.100   4.154  16.789 -0.1792  0.4131  1.3377
  867TIP3    H224093   0.205   4.045  16.802 -0.9902 -0.8180 -1.4870
  868TIP3   OH224094   5.832   1.653  15.512  0.0454 -0.5689  0.0745
  868TIP3    H124095   5.877   1.568  15.512  0.7339 -0.2134  0.0987
  868TIP3    H224096   5.744   1.634  15.481  0.0990 -1.3430  0.3730
  869TIP3   OH224097   5.949   0.504  12.047 -0.3599 -0.2592  0.2487
  869TIP3    H124098   5.908   0.506  11.960 -1.5701 -0.0531  0.8131
  869TIP3    H224099   6.024   0.446  12.035 -1.4360 -1.5721 -0.5661
  870TIP3   OH224100   3.141   6.450  13.014  0.5819  0.4296  0.5005
  870TIP3    H124101   3.171   6.534  13.050  0.7954 -0.8639  3.6629
  870TIP3    H224102   3.197   6.385  13.056 -1.2363 -1.4678  0.1250
  871TIP3   OH224103   1.476   1.455   4.942  0.3652 -0.0244 -0.5259
  871TIP3    H124104   1.505   1.547   4.938  1.1051 -0.0373  2.1689
  871TIP3    H224105   1.383   1.461   4.962  0.6005  0.2094  0.6046
  872TIP3   OH224106   4.974   3.082  16.430  1.0398  0.1156  0.3130
  872TIP3    H124107   4.981   3.068  16.524 -0.6169 -0.5159  0.3891
  872TIP3    H224108   4.922   3.007  16.399 -2.2400  2.4209 -0.3727
  873TIP3   OH224109   1.331   1.142   6.487 -0.3617 -0.4917  0.0108
  873TIP3    H124110   1.408   1.188   6.454 -0.6512 -0.2034 -0.2623
  873TIP3    H224111   1.284   1.208   6.538  0.8392 -1.2798  2.3128
  874TIP3   OH224112   0.428   4.418  11.033  0.0051  0.0412  0.5036
  874TIP3    H124113   0.421   4.337  11.084 -1.0205 -0.1456  0.0804
  874TIP3    H224114   0.429   4.388  10.942  0.7311  0.4456  0.3674
  875TIP3   OH224115   6.001   4.446   0.116 -0.0642  0.1586 -0.9449
  875TIP3    H124116   5.916   4.477   0.145  0.1035  0.1804 -0.4737
  875TIP3    H224117   5.981   4.385   0.045 -0.7380 -2.5894  1.4190
  876TIP3   OH224118   2.962   5.198  14.508 -0.2458 -0.2183 -0.4435
  876TIP3    H124119   2.910   5.128  14.547 -0.0969 -0.3577 -0.4919
  876TIP3    H224120   2.972   5.263  14.577  0.7032 -0.8320  0.0238
  877TIP3   OH224121   2.550   1.534   5.658  0.4612  0.0271 -0.2086
  877TIP3    H124122   2.535   1.500   5.746 -1.0549  0.5370 -0.2361
  877TIP3    H224123   2.556   1.457   5.603 -4.3273 -0.4623 -0.5003
  878TIP3   OH224124   6.586   0.388  14.279 -0.2354  0.1592  0.1438
  878TIP3    H124125   6.630   0.454  14.224 -1.7715  1.4129  0.3439
  878TIP3    H224126   6.657   0.344  14.325  0.9822  0.3022 -1.4916
  879TIP3   OH224127   4.288   3.914   0.158  0.3801 -0.1684 -0.2976
  879TIP3    H124128   4.237   3.865   0.222  0.1687  1.0296  0.4753
  879TIP3    H224129   4.322   3.990   0.206  2.2018 -0.4832 -1.0058
  880TIP3   OH224130   1.032   0.783  12.235  0.1354  0.4784 -0.1674
  880TIP3    H124131   1.072   0.815  12.153  2.1881 -0.7693  0.2720
  880TIP3    H224132   1.098   0.800  12.302  0.0733 -1.8790  0.5854
  881TIP3   OH224133   1.617   1.142   2.932  0.2721 -0.4529  0.2806
  881TIP3    H124134   1.704   1.145   2.894  0.4563 -2.2809  0.4534
  881TIP3    H224135   1.632   1.137   3.027  0.0570 -1.7181  0.2723
  882TIP3   OH224136   5.610   3.795  15.520 -0.2822  0.1733 -0.1842
  882TIP3    H124137   5.676   3.861  15.500 -0.4075  1.2533  2.5938
  882TIP3    H224138   5.542   3.809  15.454  0.2296  2.0425 -0.3729
  883TIP3   OH224139   4.005   5.114  10.442  0.5848 -0.0200  0.1048
  883TIP3    H124140   4.098   5.112  10.465  1.0135  0.1014 -1.5183
  883TIP3    H224141   3.990   5.205  10.414  0.6669 -0.6369 -2.1547
  884TIP3   OH224142   0.447   0.119  12.007  1.0265 -0.2804  0.5117
  884TIP3    H124143   0.378   0.101  12.070 -0.5838  0.0256 -1.0968
  884TIP3    H224144   0.473   0.209  12.025 -0.5142  0.3465 -0.1891
  885TIP3   OH224145   6.093   6.790   3.982  0.3890 -0.4078  0.5151
  885TIP3    H124146   6.039   6.748   3.915 -1.4907  0.4077  1.4460
  885TIP3    H224147   6.055   6.876   3.993  0.7774 -0.4501  2.4874
  886TIP3   OH224148   0.070   3.004  13.874 -0.1547 -0.0177  0.6332
  886TIP3    H124149   0.022   3.065  13.819  1.5170 -0.7179 -1.7274
  886TIP3    H224150   0.037   3.020  13.963 -3.0453  1.0594 -0.5410
  887TIP3   OH224151   2.383   0.057  13.225 -0.1445  0.2113 -0.3614
  887TIP3    H124152   2.308   0.051  13.166 -1.2277 -1.8832  1.0846
  887TIP3    H224153   2.345   0.075  13.311  1.1456  0.4945  0.1799
  888TIP3   OH224154   2.044   6.322  16.349  0.2815  0.5364 -0.4035
  888TIP3    H124155   1.960   6.313  16.395 -1.0308 -0.9669 -2.8598
  888TIP3    H224156   2.062   6.234  16.316  1.7637  1.2847 -1.6951
  889TIP3   OH224157   1.148   1.766   6.312  0.2676 -0.7917  0.5635
  889TIP3    H124158   1.171   1.752   6.403  2.4868 -3.8018 -0.3121
  889TIP3    H224159   1.133   1.678   6.277 -4.9509  0.3902 -1.0676
  890TIP3   OH224160   5.319   2.062  10.995  0.5830 -0.4379 -0.1305
  890TIP3    H124161   5.300   2.025  10.909  0.6399  1.1131 -0.8406
  890TIP3    H224162   5.237   2.053  11.044  0.8775 -2.3616  0.0798
  891TIP3   OH224163   5.406   6.826   5.197 -0.4310 -0.0149 -0.1181
  891TIP3    H124164   5.376   6.830   5.106  0.6355 -2.6173 -0.6748
  891TIP3    H224165   5.386   6.912   5.233 -1.3565  0.9144 -2.6629
  892TIP3   OH224166   5.257   1.284  12.773 -0.4346 -0.3167  0.7071
  892TIP3    H124167   5.210   1.349  12.721 -0.3356 -0.4221  0.4813
  892TIP3    H224168   5.197   1.261  12.844 -0.9092 -0.7861  0.1640
  893TIP3   OH224169   1.300   0.008  14.343 -0.2843 -0.2460 -0.2865
  893TIP3    H124170   1.278   0.053  14.261  2.1397  0.1808 -0.7738
  893TIP3    H224171   1.386  -0.030  14.327  1.6808  2.3166  2.9667
  894TIP3   OH224172   0.350   6.385  14.650 -0.0006 -0.0511  0.6499
  894TIP3    H124173   0.400   6.328  14.708  0.4541  0.1506  0.4565
  894TIP3    H224174   0.262   6.387  14.688  0.5357  0.8816  1.8940
  895TIP3   OH224175   3.220   4.177  14.666 -0.4862 -0.7411  0.0272
  895TIP3    H124176   3.214   4.197  14.573 -0.9699 -0.9618  0.0075
  895TIP3    H224177   3.206   4.261  14.709  0.8597 -0.4208 -0.1084
  896TIP3   OH224178   1.859   5.767   2.087 -0.1434  0.3778 -0.2357
  896TIP3    H124179   1.858   5.698   2.021 -0.5093 -1.0010  1.1610
  896TIP3    H224180   1.850   5.848   2.036 -1.1266 -0.6646 -1.8336
  897TIP3   OH224181   6.606   0.974   2.101  0.2595  0.4313  0.0310
  897TIP3    H124182   6.667   0.923   2.155 -0.9826 -1.0298  0.1179
  897TIP3    H224183   6.660   1.006   2.029  1.6359  1.2111  1.3396
  898TIP3   OH224184   5.078   1.238   1.050  0.1395 -0.2471 -0.3012
  898TIP3    H124185   5.133   1.301   1.097 -0.1767 -0.4386  0.3337
  898TIP3    H224186   5.079   1.160   1.105 -0.6837 -0.2852 -0.3353
  899TIP3   OH224187   1.624   3.373  14.464  0.0301 -0.6123 -0.0883
  899TIP3    H124188   1.597   3.457  14.427 -0.7213 -0.4712  0.7463
  899TIP3    H224189   1.650   3.393  14.554  0.3556 -1.1887 -0.0477
  900TIP3   OH224190   5.563   1.239   0.781  0.1789  0.0730 -0.5902
  900TIP3    H124191   5.499   1.294   0.736  0.9945  0.5511 -1.1976
  900TIP3    H224192   5.625   1.214   0.713  1.1894  0.4245  0.1746
  901TIP3   OH224193   3.693   2.036   6.249  0.4288  0.1156  0.0353
  901TIP3    H124194   3.648   1.982   6.185  0.7688  0.6603 -0.6830
  901TIP3    H224195   3.660   2.006   6.334 -0.3947 -0.2834 -0.4138
  902TIP3   OH224196   4.937   2.479   5.306  0.0085 -0.0972 -0.1425
  902TIP3    H124197   4.869   2.426   5.346 -0.3610  0.1111 -0.4811
  902TIP3    H224198   4.893   2.525   5.234 -0.2119  2.2913  1.4201
  903TIP3   OH224199   5.730   4.809   3.966 -0.0520  0.6649  0.5452
  903TIP3    H124200   5.703   4.847   3.883  1.2752  1.4577  0.4513
  903TIP3    H224201   5.788   4.737   3.942 -2.4919 -1.5133  0.7223
  904TIP3   OH224202   1.198   4.672   4.706 -0.2126 -0.1951 -0.4148
  904TIP3    H124203   1.219   4.579   4.702 -1.7926 -0.7371  1.8202
  904TIP3    H224204   1.254   4.706   4.775 -1.6811 -0.1697  0.8054
  905TIP3   OH224205   3.926   4.328   0.837  0.2196 -0.1646  0.2930
  905TIP3    H124206   3.973   4.338   0.754  2.3414 -1.6899  1.2371
  905TIP3    H224207   3.837   4.359   0.818  1.3257  1.9991 -1.8178
  906TIP3   OH224208   3.360   1.163   5.885 -0.2639 -0.1961  0.2907
  906TIP3    H124209   3.314   1.133   5.807 -0.8775 -1.1227  0.9774
  906TIP3    H224210   3.294   1.209   5.936  0.1093  0.3342  0.3029
  907TIP3   OH224211   5.202   4.032   2.088 -0.0484 -0.1006  0.3764
  907TIP3    H124212   5.234   4.103   2.032  0.2592 -1.4566 -1.2545
  907TIP3    H224213   5.271   4.020   2.153  0.1767  0.6745  0.2932
  908TIP3   OH224214   6.811   0.303  11.493 -0.3107  0.2302  0.7612
  908TIP3    H124215   6.854   0.218  11.501  1.7862  0.7610 -2.7870
  908TIP3    H224216   6.878   0.367  11.517 -0.7435  0.9759  0.0299
  909TIP3   OH224217   4.219   6.123  15.536 -0.6175 -0.0219  0.0702
  909TIP3    H124218   4.173   6.177  15.472  1.2125  0.4033 -0.9783
  909TIP3    H224219   4.199   6.033  15.510  1.7096  0.0689 -2.5451
  910TIP3   OH224220   3.238   1.001  17.178 -0.1471 -0.6888 -0.4321
  910TIP3    H124221   3.181   1.077  17.167 -0.8182 -0.9264  1.2097
  910TIP3    H224222   3.291   1.000  17.098  0.5460  2.0345 -0.1227
  911TIP3   OH224223   2.396   1.876   1.461 -0.4914 -0.5843 -0.0414
  911TIP3    H124224   2.432   1.963   1.445 -0.3122 -0.7999 -0.8609
  911TIP3    H224225   2.453   1.839   1.529 -0.5067 -0.1078  0.2360
  912TIP3   OH224226   0.210   6.080   0.160  0.3685  0.5685 -0.6534
  912TIP3    H124227   0.279   6.017   0.141 -0.0556  0.1384 -0.7956
  912TIP3    H224228   0.205   6.083   0.255 -1.2811 -1.5041 -0.6185
  913TIP3   OH224229   1.916   3.394   0.516 -0.1161  0.1720  0.6371
  913TIP3    H124230   1.992   3.385   0.459 -1.9171  1.9166 -2.2875
  913TIP3    H224231   1.896   3.305   0.544  2.2794 -0.4530  0.5954
  914TIP3   OH224232   5.776   2.158   1.470  0.6493 -1.1152 -0.2059
  914TIP3    H124233   5.726   2.152   1.389  0.8490  0.3518 -0.4722
  914TIP3    H224234   5.859   2.198   1.444 -0.6973  3.1060  1.1532
  915TIP3   OH224235   5.994   2.385   0.249 -0.0151  0.1040  0.6583
  915TIP3    H124236   5.918   2.435   0.278  1.1711  1.8429  0.9205
  915TIP3    H224237   6.005   2.317   0.316 -0.7919  0.3987  1.0953
  916TIP3   OH224238   4.637   4.436   2.376  0.3406 -0.1252 -0.2775
  916TIP3    H124239   4.721   4.405   2.410  0.4558 -1.0571 -1.3738
  916TIP3    H224240   4.653   4.528   2.354  1.3574 -0.5356 -1.3402
  917TIP3   OH224241   3.587   5.896  10.637  0.3263 -0.0548 -0.3112
  917TIP3    H124242   3.607   5.976  10.686 -1.6728  0.4572 -0.2490
  917TIP3    H224243   3.630   5.827  10.687 -2.0827  0.3721  2.5916
  918TIP3   OH224244   6.260   3.180   5.341 -0.0999 -0.2570  0.3107
  918TIP3    H124245   6.193   3.170   5.274  1.2464  0.1243 -1.1765
  918TIP3    H224246   6.305   3.096   5.343 -0.1150 -0.2553  0.7159
  919TIP3   OH224247   1.126   4.596   0.671  0.3957  0.2843  0.0117
  919TIP3    H124248   1.135   4.544   0.751 -1.4292  0.3304  0.3012
  919TIP3    H224249   1.174   4.547   0.604  1.1990 -0.2141  0.9476
  920TIP3   OH224250   5.819   4.756   1.634  0.5389  1.0281  0.5463
  920TIP3    H124251   5.750   4.808   1.593  0.4475  0.2328 -0.3465
  920TIP3    H224252   5.785   4.667   1.634  0.9003  0.8799  1.6022
  921TIP3   OH224253   5.789   6.644  14.868  0.5124  0.0042 -0.2920
  921TIP3    H124254   5.833   6.676  14.947 -0.8939  1.3541 -0.0211
  921TIP3    H224255   5.798   6.715  14.804  0.5096 -0.5531 -0.9258
  922TIP3   OH224256   2.022   6.495  13.149  0.3281  0.0621  0.2547
  922TIP3    H124257   2.000   6.403  13.167  1.2013 -0.0263  0.9159
  922TIP3    H224258   1.945   6.529  13.103  0.1521 -1.1062 -0.3592
  923TIP3   OH224259   4.596   3.072   1.299  0.1800 -0.5713  0.1743
  923TIP3    H124260   4.687   3.048   1.316  0.0867 -0.5697  0.7061
  923TIP3    H224261   4.553   3.064   1.385  0.2935  2.2088  0.5985
  924TIP3   OH224262   1.979   4.434   5.633  0.4866  0.2083 -0.7067
  924TIP3    H124263   1.885   4.434   5.615  0.7458 -1.2693 -2.3216
  924TIP3    H224264   1.988   4.485   5.714 -1.7063  0.2305 -0.4193
  925TIP3   OH224265   3.421   4.489   5.962 -0.1486 -0.1999 -0.3392
  925TIP3    H124266   3.498   4.518   6.010  1.1219 -1.2871 -1.6571
  925TIP3    H224267   3.387   4.416   6.013 -0.6417  0.5795  0.4977
  926TIP3   OH224268   4.433   2.899   3.180  0.5915  0.0007 -0.9210
  926TIP3    H124269   4.397   2.903   3.269  0.7760  1.3505 -0.8835
  926TIP3    H224270   4.394   2.974   3.135  2.5936  0.9797 -1.1516
  927TIP3   OH224271   3.493   4.875  11.346 -0.1877  0.3657 -0.8276
  927TIP3    H124272   3.554   4.868  11.420  1.4342 -0.6170 -2.1883
  927TIP3    H224273   3.500   4.966  11.317  2.1081 -0.1353 -2.0903
  928TIP3   OH224274   0.929   2.151  11.266 -0.1048 -0.3304  0.0308
  928TIP3    H124275   0.905   2.158  11.359 -0.2599 -0.3475 -0.0074
  928TIP3    H224276   1.008   2.097  11.266 -1.5406 -2.5698 -0.0400
  929TIP3   OH224277   0.000   3.926   0.187  0.3671  0.3823  0.2376
  929TIP3    H124278  -0.008   3.976   0.106 -0.7523 -0.7933 -0.4205
  929TIP3    H224279  -0.080   3.946   0.236 -0.9857 -2.0368 -0.8329
  930TIP3   OH224280   5.722   2.575   3.604 -0.1041  0.2015 -0.0266
  930TIP3    H124281   5.766   2.539   3.681 -0.5172 -0.7403 -0.2185
  930TIP3    H224282   5.691   2.498   3.556 -1.1907  0.8170 -0.3460
  931TIP3   OH224283   1.885   5.347  16.172  0.3746  0.3794 -0.5628
  931TIP3    H124284   1.860   5.397  16.094  1.9655  1.6858 -0.2897
  931TIP3    H224285   1.931   5.410  16.228 -0.0057 -0.7299  1.0748
  932TIP3   OH224286   2.110   3.780   2.867  0.1954  0.0741  0.4893
  932TIP3    H124287   2.049   3.844   2.830 -0.8777 -0.7689  0.7582
  932TIP3    H224288   2.169   3.832   2.921  0.6081  1.0873 -0.8744
  933TIP3   OH224289   2.325   5.287  16.954  0.0777  0.0168 -0.3257
  933TIP3    H124290   2.404   5.292  16.899  0.3672  0.2275  0.1051
  933TIP3    H224291   2.358   5.276  17.043 -0.3465  0.9712 -0.0294
  934TIP3   OH224292   3.717   5.827   3.062 -0.1203 -0.7344  0.2079
  934TIP3    H124293   3.711   5.747   3.114 -0.4194 -2.7074 -2.6517
  934TIP3    H224294   3.636   5.875   3.080 -0.3647 -1.5303  1.2638
  935TIP3   OH224295   2.306   5.253  15.801 -0.5336  0.5166 -0.0142
  935TIP3    H124296   2.293   5.193  15.728 -1.9537 -0.0265  0.6552
  935TIP3    H224297   2.275   5.205  15.878  0.3219  1.3161  0.8536
  936TIP3   OH224298   0.663   6.575  11.312  0.0924  0.0582 -0.0684
  936TIP3    H124299   0.661   6.626  11.231 -0.5047  0.5668  0.2529
  936TIP3    H224300   0.655   6.641  11.381 -4.1982 -0.6037  0.3022
  937TIP3   OH224301   5.432   3.497   5.588 -0.1134  0.4078 -0.0532
  937TIP3    H124302   5.414   3.403   5.584  0.8694  0.2198 -0.4436
  937TIP3    H224303   5.527   3.502   5.598 -0.2278  1.3535  0.6331
  938TIP3   OH224304   6.235   4.351   0.219  0.2089  0.0712 -0.6007
  938TIP3    H124305   6.165   4.394   0.171  0.0690  0.4536 -0.0676
  938TIP3    H224306   6.230   4.259   0.194  0.8851  0.4373 -2.2242
  939TIP3   OH224307   3.989   0.739  16.241 -0.2203  0.1480 -0.4511
  939TIP3    H124308   4.066   0.706  16.287  0.0530  1.1229 -0.1833
  939TIP3    H224309   4.002   0.712  16.150 -0.7422 -1.7583  0.0048
  940TIP3   OH224310   5.059   1.076  11.789  0.3713 -0.2137 -0.6800
  940TIP3    H124311   5.056   1.017  11.864  2.9096 -0.5539 -0.7360
  940TIP3    H224312   5.046   1.018  11.713 -0.3002 -0.1812 -0.5903
  941TIP3   OH224313   0.876   5.147   2.164 -0.0484 -0.1695 -0.1676
  941TIP3    H124314   0.855   5.064   2.207 -0.9308 -0.8496 -1.8067
  941TIP3    H224315   0.806   5.158   2.099  1.6184  0.3928 -1.9606
  942TIP3   OH224316   6.330   3.020  11.794 -0.7287  0.3355  0.0400
  942TIP3    H124317   6.241   3.036  11.828 -0.8486  0.7005 -0.4375
  942TIP3    H224318   6.345   2.927  11.812 -1.4977  0.0839 -0.5183
  943TIP3   OH224319   4.064   1.249  17.080  0.0037  0.2180 -0.1549
  943TIP3    H124320   3.977   1.232  17.044 -0.6571  2.1461  0.3594
  943TIP3    H224321   4.048   1.273  17.171  1.1175  0.1574  0.0722
  944TIP3   OH224322   1.634   2.895  13.812 -0.2551 -0.4136  0.1654
  944TIP3    H124323   1.688   2.862  13.883  3.2450  0.5441 -1.8142
  944TIP3    H224324   1.603   2.816  13.767  0.2823 -1.0026  0.8059
  945TIP3   OH224325   0.008   3.382   0.804 -0.1684 -0.0449 -0.0559
  945TIP3    H124326  -0.054   3.311   0.788 -0.1087 -0.4160  1.2282
  945TIP3    H224327  -0.039   3.443   0.861 -0.8748  1.9483 -2.6220
  946TIP3   OH224328   5.622   4.427  16.388 -0.1122 -0.1247 -0.4351
  946TIP3    H124329   5.631   4.518  16.361  2.2184  0.3737  1.6437
  946TIP3    H224330   5.587   4.432  16.477  0.8496 -1.1899  0.0316
  947TIP3   OH224331   5.627   2.822   2.267 -0.0649  0.7450 -0.0258
  947TIP3    H124332   5.696   2.875   2.227  0.3362  0.0312 -0.3004
  947TIP3    H224333   5.664   2.733   2.271 -0.4637  0.6030  1.0302
  948TIP3   OH224334   5.764   5.696  12.433 -0.2704  0.6218  0.3291
  948TIP3    H124335   5.835   5.723  12.375 -1.2058 -1.7737 -2.1342
  948TIP3    H224336   5.803   5.627  12.487 -0.0764  1.0563  0.7476
  949TIP3   OH224337   5.437   0.634   4.316  0.1242  0.2108  0.2659
  949TIP3    H124338   5.532   0.630   4.305  0.1878 -0.9572  1.0255
  949TIP3    H224339   5.425   0.664   4.406 -0.1191 -2.8216  1.3641
  950TIP3   OH224340   4.019   6.132  14.749 -0.5519  0.0460  0.3289
  950TIP3    H124341   3.984   6.052  14.787  1.7947 -1.3467 -0.2356
  950TIP3    H224342   4.002   6.124  14.655  0.4762 -0.2487  0.1574
  951TIP3   OH224343   0.691   2.760   1.251 -0.0156  1.0483  0.3324
  951TIP3    H124344   0.737   2.816   1.315  1.4709  0.0679  0.1757
  951TIP3    H224345   0.605   2.744   1.290  0.7105  0.8119  1.9186
  952TIP3   OH224346   6.364   4.238  15.684  0.1448  0.4447 -0.0980
  952TIP3    H124347   6.389   4.162  15.631  1.2288  1.8448 -1.7042
  952TIP3    H224348   6.332   4.200  15.766 -0.7425 -1.7897 -1.3836
  953TIP3   OH224349   5.203   4.865  13.818  0.3454  0.5435 -0.5041
  953TIP3    H124350   5.255   4.870  13.738  1.2379  1.6162  0.1258
  953TIP3    H224351   5.256   4.908  13.885 -0.9679  0.8984  0.3600
  954TIP3   OH224352   2.679   5.984   1.905  0.6329 -0.0733 -0.0913
  954TIP3    H124353   2.717   5.899   1.882  1.6345  0.3226  0.0525
  954TIP3    H224354   2.699   6.040   1.830 -0.7252 -0.1549 -0.5406
  955TIP3   OH224355   3.265   6.524   4.613 -0.6968 -0.3304  0.0176
  955TIP3    H124356   3.253   6.580   4.689 -0.4333 -0.1871 -0.0417
  955TIP3    H224357   3.334   6.462   4.639  0.1085  0.3485 -0.4331
  956TIP3   OH224358   5.675   3.707   1.543  0.4697 -0.3941 -0.1048
  956TIP3    H124359   5.636   3.793   1.553  0.6993 -0.2784 -0.1725
  956TIP3    H224360   5.618   3.661   1.481  0.2888 -0.3270  0.0150
  957TIP3   OH224361   6.395   2.437  11.870  0.0997 -0.3560 -0.4866
  957TIP3    H124362   6.354   2.371  11.925  0.4585  1.6672  2.4282
  957TIP3    H224363   6.462   2.477  11.926 -0.1823  2.5395 -2.0295
  958TIP3   OH224364   1.341   2.254   2.620 -0.4048  0.6081 -0.4107
  958TIP3    H124365   1.388   2.224   2.541 -0.9767 -0.2779 -0.4271
  958TIP3    H224366   1.391   2.217   2.693 -0.7656  0.1021 -0.4133
  959TIP3   OH224367   5.404   4.778  14.915  0.3007 -0.2510 -0.1823
  959TIP3    H124368   5.320   4.809  14.946  0.4370 -0.3958  0.3341
  959TIP3    H224369   5.465   4.849  14.933  0.3217 -0.2069 -0.4169
  960TIP3   OH224370   0.732   0.021  11.233 -0.4203  0.1829 -0.3954
  960TIP3    H124371   0.716   0.019  11.327  3.9892 -0.6344  0.5417
  960TIP3    H224372   0.762   0.111  11.216  1.2580 -0.3585 -0.4349
  961TIP3   OH224373   1.398   1.772   1.453 -0.0798 -0.0738  0.3462
  961TIP3    H124374   1.440   1.829   1.389  0.6979  2.0540  2.5943
  961TIP3    H224375   1.335   1.828   1.497 -1.2071 -1.7056  0.8977
  962TIP3   OH224376   4.725   5.494  11.484  0.3791 -0.0336  0.8763
  962TIP3    H124377   4.800   5.480  11.426  0.3554  1.6766  0.3846
  962TIP3    H224378   4.764   5.524  11.566  0.3113 -0.7644  1.1826
  963TIP3   OH224379   4.119   2.161   1.574  0.4567  0.1860  0.0228
  963TIP3    H124380   4.035   2.204   1.590  0.5252  0.3456 -0.0446
  963TIP3    H224381   4.121   2.088   1.635 -0.1158 -0.3440 -0.5805
  964TIP3   OH224382   3.981   1.332   0.548 -0.1815 -0.2181 -0.3702
  964TIP3    H124383   4.034   1.411   0.535  1.4344 -1.3110 -0.6582
  964TIP3    H224384   4.032   1.277   0.607 -0.0770 -2.1125 -2.1103
  965TIP3   OH224385   6.526   5.662  11.149 -0.4567  0.4648  0.3256
  965TIP3    H124386   6.475   5.653  11.069 -0.5604 -1.2921  0.5481
  965TIP3    H224387   6.465   5.701  11.212 -0.4519  1.6108 -0.3537
  966TIP3   OH224388   1.792   3.958  14.422 -0.0348  0.4320  0.5864
  966TIP3    H124389   1.807   4.020  14.352  1.7385 -1.5640 -0.9116
  966TIP3    H224390   1.819   4.004  14.502 -0.9692  2.3208 -0.1358
  967TIP3   OH224391   6.675   4.162  11.991 -0.0571 -0.2475 -0.1164
  967TIP3    H124392   6.665   4.141  11.898 -1.7830  0.2697 -0.0688
  967TIP3    H224393   6.592   4.138  12.031  0.7508 -0.7388  1.3847
  968TIP3   OH224394   3.679   4.954  15.885  0.5872  0.4567  0.0192
  968TIP3    H124395   3.683   4.869  15.842  1.9216  1.0214 -1.0645
  968TIP3    H224396   3.722   4.941  15.970  1.3387  0.1785 -0.3944
  969TIP3   OH224397   2.296   0.277  14.633 -0.4286  0.2765  0.5464
  969TIP3    H124398   2.233   0.350  14.629 -2.2042 -1.2103 -2.4433
  969TIP3    H224399   2.304   0.257  14.726 -3.7227  1.1761  1.1544
  970TIP3   OH224400   6.823   2.884  14.732 -0.2298  0.2964 -0.3702
  970TIP3    H124401   6.877   2.962  14.749 -0.6678  0.2141  1.6931
  970TIP3    H224402   6.883   2.821  14.692  1.1706  0.3214  1.5626
  971TIP3   OH224403   4.620   3.387  14.997  0.7165  0.6752 -0.5078
  971TIP3    H124404   4.534   3.379  15.038  1.0405  0.0906  0.0635
  971TIP3    H224405   4.655   3.298  14.995  1.7623  1.0409  0.2555
  972TIP3   OH224406   0.973   4.291  13.306  0.4803  0.0169  0.5219
  972TIP3    H124407   1.032   4.229  13.265 -0.1931 -0.8466  0.8322
  972TIP3    H224408   0.960   4.359  13.240 -0.1055 -1.0368 -0.4756
  973TIP3   OH224409   4.824   3.157   4.387  0.3335  0.3713  0.5970
  973TIP3    H124410   4.899   3.118   4.433  0.1538  0.7168  1.1997
  973TIP3    H224411   4.847   3.249   4.376 -0.0998  0.5334  1.0035
  974TIP3   OH224412   2.712   6.348   5.649  0.0718 -0.2444  0.0762
  974TIP3    H124413   2.736   6.288   5.579 -0.0096 -1.3572  0.9553
  974TIP3    H224414   2.617   6.338   5.657 -0.1138  0.8799 -0.5197
  975TIP3   OH224415   4.806   1.901   4.491  0.4226 -0.4021 -0.2409
  975TIP3    H124416   4.732   1.918   4.550  0.6014 -0.5668  0.0313
  975TIP3    H224417   4.809   1.978   4.434  0.4251 -0.1110  0.1488
  976TIP3   OH224418   1.517   5.970  13.663  0.4598 -0.1213  0.4159
  976TIP3    H124419   1.559   6.037  13.609 -0.6671  0.0222 -0.3144
  976TIP3    H224420   1.439   6.014  13.699 -0.8549 -1.2990 -0.8763
  977TIP3   OH224421   2.517   3.908  13.858 -0.2862  0.1213 -0.4998
  977TIP3    H124422   2.427   3.889  13.883 -0.1685  0.1262 -0.0531
  977TIP3    H224423   2.511   3.950  13.772 -0.8098  1.3022  0.0983
  978TIP3   OH224424   2.311   3.562  16.522 -0.2390  0.5329 -0.6111
  978TIP3    H124425   2.368   3.525  16.455 -1.2954 -2.0457 -0.1781
  978TIP3    H224426   2.241   3.605  16.472  1.7163  3.4141 -1.1352
  979TIP3   OH224427   3.674   6.776   5.468  0.0497  0.5150 -0.0343
  979TIP3    H124428   3.597   6.830   5.451 -0.4823 -0.3478 -0.4325
  979TIP3    H224429   3.676   6.768   5.564 -0.0596  0.9589  0.0070
  980TIP3   OH224430   0.309   4.788   0.955 -0.4995  0.3392  0.2740
  980TIP3    H124431   0.346   4.750   0.875 -0.6665 -0.0998  0.4017
  980TIP3    H224432   0.375   4.852   0.984  0.0125 -0.2024  0.3190
  981TIP3   OH224433   4.154   3.792   6.182  0.2495 -0.0781  0.3463
  981TIP3    H124434   4.228   3.824   6.132 -0.0609  0.9871  0.5462
  981TIP3    H224435   4.188   3.781   6.271 -0.1359  1.6504  0.7308
  982TIP3   OH224436   2.397   2.604  13.530 -0.9004  0.1641 -0.2058
  982TIP3    H124437   2.467   2.666  13.511 -0.2556 -0.5006 -0.0712
  982TIP3    H224438   2.413   2.577  13.621 -1.6353  0.3889 -0.0044
  983TIP3   OH224439   0.974   4.920  14.543  0.3661 -0.0398 -0.0212
  983TIP3    H124440   1.040   4.859  14.575  0.3193  0.1895  0.5229
  983TIP3    H224441   0.913   4.866  14.493  0.1889 -0.4866  0.6603
  984TIP3   OH224442   4.992   1.460   3.391 -0.0414 -0.4443 -0.0144
  984TIP3    H124443   5.011   1.535   3.334 -0.5212  0.3867  0.8814
  984TIP3    H224444   5.002   1.495   3.480 -2.9255 -0.6967  0.4923
  985TIP3   OH224445   3.553   5.247  11.501  0.2970 -0.2371 -0.4343
  985TIP3    H124446   3.553   5.230  11.407  2.3990  2.5494 -1.0663
  985TIP3    H224447   3.523   5.338  11.509  1.1910 -0.0661  1.4844
  986TIP3   OH224448   4.506   0.439  12.042 -1.0477  0.0869 -0.3289
  986TIP3    H124449   4.533   0.354  12.076 -1.0224  0.1833 -0.1027
  986TIP3    H224450   4.464   0.420  11.958 -1.6892 -0.2215  0.0520
  987TIP3   OH224451   6.078   2.360   3.478 -0.0543  0.0863 -0.6944
  987TIP3    H124452   5.990   2.356   3.515 -0.0992  0.3978 -0.7674
  987TIP3    H224453   6.066   2.348   3.384  0.0767 -0.8928 -0.6028
  988TIP3   OH224454   3.734   2.613   1.684 -0.1817 -0.0725 -0.7787
  988TIP3    H124455   3.682   2.660   1.619  0.3269 -1.6748 -2.4551
  988TIP3    H224456   3.675   2.546   1.719  0.2683 -0.9384 -1.6067
  989TIP3   OH224457   1.793   3.636   6.040  0.2820  0.4653  0.0264
  989TIP3    H124458   1.716   3.692   6.052  0.8126  1.4792 -0.9888
  989TIP3    H224459   1.815   3.604   6.128 -1.8245 -0.6106  0.2114
  990TIP3   OH224460   1.044   0.914   1.614 -0.3167 -0.2863  0.5069
  990TIP3    H124461   1.110   0.901   1.682  0.2245  0.3125  0.1036
  990TIP3    H224462   1.041   1.009   1.600  0.3646 -0.4766 -1.0643
  991TIP3   OH224463   1.821   3.321  15.327 -0.5099  0.1629  0.1141
  991TIP3    H124464   1.750   3.351  15.270 -0.7886  2.0502  1.3478
  991TIP3    H224465   1.901   3.352  15.283 -0.3625 -1.9222 -1.2504
  992TIP3   OH224466   5.238   0.107   2.890  0.5846  0.2049  0.2046
  992TIP3    H124467   5.268   0.194   2.917  0.3518  0.0720  0.9105
  992TIP3    H224468   5.239   0.110   2.794 -1.0321  1.5472  0.1836
  993TIP3   OH224469   3.585   2.708   1.435  0.4056  0.0244 -0.2631
  993TIP3    H124470   3.490   2.691   1.432  0.6388 -2.0663  1.3654
  993TIP3    H224471   3.592   2.801   1.456 -1.2074  0.7733 -2.5632
  994TIP3   OH224472   4.950   6.033   0.788 -0.4674  0.0028 -0.2963
  994TIP3    H124473   5.036   6.070   0.769  0.6622 -2.0518  0.4545
  994TIP3    H224474   4.926   6.071   0.872  0.9259 -1.2776  0.7399
  995TIP3   OH224475   0.407   1.086  13.409  0.2602 -0.4055  0.4889
  995TIP3    H124476   0.404   1.021  13.480  3.5099  0.7869  1.9281
  995TIP3    H224477   0.388   1.035  13.330 -2.0436 -2.0833  1.9690
  996TIP3   OH224478   1.262   6.765   6.103 -0.5111 -0.0935  0.2457
  996TIP3    H124479   1.234   6.855   6.122  1.9399  0.4395  1.8684
  996TIP3    H224480   1.298   6.769   6.015 -1.3801  0.2345 -0.1089
  997TIP3   OH224481   3.226   0.289   3.520  0.0515 -0.2921 -0.0246
  997TIP3    H124482   3.280   0.344   3.577 -0.9242 -1.1586  1.8245
  997TIP3    H224483   3.289   0.234   3.473  0.9536 -3.0177  3.8450
  998TIP3   OH224484   3.892   2.172   4.402 -0.2404 -0.1769 -0.2023
  998TIP3    H124485   3.828   2.110   4.435 -0.8373  0.5313 -0.0119
  998TIP3    H224486   3.868   2.184   4.310  1.3931 -2.1147 -0.9541
  999TIP3   OH224487   0.180   3.705   5.466  0.4866  0.1782  0.1436
  999TIP3    H124488   0.228   3.635   5.511 -0.1008 -0.0891  0.3650
  999TIP3    H224489   0.205   3.785   5.513 -1.0832 -0.2381  1.8170
 1000TIP3   OH224490   5.954   3.903  16.578 -0.1965  0.0545  0.2499
 1000TIP3    H124491   5.907   3.962  16.636 -0.0062  1.0913 -0.6198
 1000TIP3    H224492   5.934   3.935  16.490  1.7505  0.2601 -0.1691
 1001TIP3   OH224493   5.623   0.659  12.652  0.3388  0.1668 -0.2567
 1001TIP3    H124494   5.558   0.704  12.598 -1.4962 -0.4857  1.2851
 1001TIP3    H224495   5.683   0.729  12.680 -0.0757  0.9157 -1.1880
 1002TIP3   OH224496   5.825   0.642   2.891  0.6055  0.2966  0.1181
 1002TIP3    H124497   5.769   0.599   2.827  0.3321  0.3976  0.2893
 1002TIP3    H224498   5.803   0.735   2.883 -0.6188  0.1465  1.5138
 1003TIP3   OH224499   2.578   4.615  13.051 -0.2902  0.0420 -0.0933
 1003TIP3    H124500   2.538   4.563  12.981 -0.8275 -0.7823  0.7922
 1003TIP3    H224501   2.520   4.602  13.126  1.2333 -0.5809  1.0223
 1004TIP3   OH224502   1.865   5.352  13.276  0.9196  0.3998  0.0659
 1004TIP3    H124503   1.818   5.424  13.318  1.2018  1.2181 -0.9801
 1004TIP3    H224504   1.849   5.277  13.333 -0.1572  1.0687  0.6889
 1005TIP3   OH224505   5.311   0.534   5.524  0.7487  0.7928  0.0178
 1005TIP3    H124506   5.249   0.586   5.474  1.9001  1.7067 -0.5283
 1005TIP3    H224507   5.394   0.543   5.476  1.6260  0.7667  1.4618
 1006TIP3   OH224508   5.263   5.129   1.873  0.2978  0.4470 -0.0128
 1006TIP3    H124509   5.259   5.159   1.782  2.0495 -2.1164 -1.0593
 1006TIP3    H224510   5.212   5.049   1.874  0.8340  0.0945  1.1080
 1007TIP3   OH224511   0.380   1.137   4.786 -0.5891  0.3899 -0.2774
 1007TIP3    H124512   0.472   1.111   4.774 -0.6530  0.3054 -0.5846
 1007TIP3    H224513   0.364   1.123   4.879 -0.3060  0.3462 -0.2325
 1008TIP3   OH224514   3.160   2.042   2.456 -0.0219 -0.5119 -0.6594
 1008TIP3    H124515   3.147   2.000   2.371 -0.8484 -0.7634 -0.4222
 1008TIP3    H224516   3.115   1.984   2.518  1.9216 -1.2034  0.1922
 1009TIP3   OH224517   1.494   0.838  16.375  0.2759 -0.1459  0.0461
 1009TIP3    H124518   1.519   0.772  16.441  2.3795  0.8732  0.3725
 1009TIP3    H224519   1.578   0.868  16.340 -0.3881  3.8637  1.4382
 1010TIP3   OH224520   4.832   5.952  15.829 -0.1910  0.3748  0.1517
 1010TIP3    H124521   4.901   5.902  15.873  0.3918  1.3307  0.3398
 1010TIP3    H224522   4.768   5.885  15.802  0.9226 -0.5462 -0.2602
 1011TIP3   OH224523   1.413   2.152  11.867  0.2156 -0.5159  0.0950
 1011TIP3    H124524   1.428   2.072  11.916  0.7683 -0.1978  0.4597
 1011TIP3    H224525   1.400   2.219  11.934  0.6609 -0.1345 -0.1898
 1012TIP3   OH224526   2.014   1.597  15.305  0.3181 -0.0545  0.2245
 1012TIP3    H124527   1.974   1.520  15.346 -1.3786  1.0420  0.7225
 1012TIP3    H224528   2.050   1.647  15.379 -0.1234  0.4643  0.0957
 1013TIP3   OH224529   6.779   3.886   5.512 -0.0380  0.5158  0.1066
 1013TIP3    H124530   6.844   3.825   5.476  0.8280  0.1936  2.0853
 1013TIP3    H224531   6.774   3.956   5.447 -0.2504 -1.0873 -1.7057
 1014TIP3   OH224532   2.870   6.508  14.576  0.0499 -0.5350  0.9183
 1014TIP3    H124533   2.843   6.549  14.659  0.0815 -1.3004  1.3199
 1014TIP3    H224534   2.857   6.415  14.591  0.0042 -0.6793  0.0301
 1015TIP3   OH224535   3.249   6.633  11.108  0.5805 -0.4485  0.2698
 1015TIP3    H124536   3.216   6.714  11.071 -0.5815 -1.6360 -1.4208
 1015TIP3    H224537   3.177   6.571  11.099  1.2771 -1.5778  1.9431
 1016TIP3   OH224538   6.547   5.161  16.175  0.4928 -0.1572  0.3160
 1016TIP3    H124539   6.481   5.185  16.240 -0.6086  1.1894 -1.2087
 1016TIP3    H224540   6.520   5.075  16.144 -2.6422  1.6154 -2.5865
 1017TIP3   OH224541   5.985   4.457  11.748  0.2131  0.2995  0.8662
 1017TIP3    H124542   5.965   4.550  11.750  2.0222  0.7174  1.8008
 1017TIP3    H224543   5.900   4.414  11.751 -0.6113  1.9228  2.8297
 1018TIP3   OH224544   1.701   4.984   5.208  0.0168 -0.2051  0.0673
 1018TIP3    H124545   1.721   4.891   5.215 -2.0728 -0.8656 -1.4108
 1018TIP3    H224546   1.616   4.986   5.163  0.3677  2.4372 -0.6443
 1019TIP3   OH224547   6.487   5.931  11.458  0.3210 -0.0505 -0.3008
 1019TIP3    H124548   6.571   5.891  11.483  0.3135 -0.4460 -0.8919
 1019TIP3    H224549   6.492   5.939  11.363 -0.5225 -0.5704 -0.3994
 1020TIP3   OH224550   2.554   2.625   5.320  0.0901  0.4443  0.7915
 1020TIP3    H124551   2.505   2.696   5.362 -0.3527 -0.0322  1.0812
 1020TIP3    H224552   2.556   2.650   5.228  1.7410  1.9005  1.1600
 1021TIP3   OH224553   0.808   3.282   6.043 -0.1351 -0.1238 -0.5984
 1021TIP3    H124554   0.723   3.325   6.052 -1.0544 -2.1925  1.1239
 1021TIP3    H224555   0.858   3.311   6.119 -0.5787 -1.5930  0.2931
 1022TIP3   OH224556   4.958   3.322   5.121  0.0001  0.4883 -0.4370
 1022TIP3    H124557   4.872   3.283   5.141  1.2109 -1.8506  0.6621
 1022TIP3    H224558   4.993   3.267   5.051  0.4767  1.6405 -1.1162
 1023TIP3   OH224559   1.382   1.297  16.100  0.3812  0.2859  0.1056
 1023TIP3    H124560   1.473   1.326  16.085  0.8777 -1.5953 -0.8709
 1023TIP3    H224561   1.391   1.216  16.150 -0.7394 -0.1182 -0.3189
 1024TIP3   OH224562   3.588   6.690   3.530  0.1521 -0.1552 -0.6067
 1024TIP3    H124563   3.591   6.714   3.622  1.1018 -0.6885 -0.4888
 1024TIP3    H224564   3.651   6.618   3.521  0.3094  0.0979 -1.7269
 1025TIP3   OH224565   5.468   3.846  12.850 -0.2172  0.2825  0.1843
 1025TIP3    H124566   5.434   3.757  12.860 -0.3084  0.4374  1.4022
 1025TIP3    H224567   5.491   3.853  12.757 -1.9902 -0.3693 -0.3339
 1026TIP3   OH224568   6.688   5.541   2.357  0.5053  0.0450 -0.0360
 1026TIP3    H124569   6.676   5.599   2.432  0.0029  0.8658 -0.7461
 1026TIP3    H224570   6.733   5.594   2.292  0.3497 -0.4576 -0.5610
 1027TIP3   OH224571   5.896   3.585   3.820 -0.1361 -0.0269 -0.1021
 1027TIP3    H124572   5.872   3.566   3.729  0.9312  0.1366 -0.4293
 1027TIP3    H224573   5.915   3.679   3.820  5.2541 -0.8132 -1.0779
 1028TIP3   OH224574   3.497   0.914   5.086  0.3690 -0.0198 -0.0913
 1028TIP3    H124575   3.508   0.908   5.181 -0.3494 -0.9717 -0.0571
 1028TIP3    H224576   3.482   0.824   5.057  1.5960  0.1129 -1.2537
 1029TIP3   OH224577   1.110   0.608  16.004  0.5720  0.7684 -0.2833
 1029TIP3    H124578   1.179   0.558  16.048  0.5065  0.7376 -0.2141
 1029TIP3    H224579   1.154   0.653  15.932  0.5004  0.0234 -0.8082
 1030TIP3   OH224580   0.126   0.543   2.986  0.1445  0.5473  0.2879
 1030TIP3    H124581   0.036   0.533   2.957  0.1771  1.3801 -0.1180
 1030TIP3    H224582   0.173   0.473   2.941 -0.4275 -0.4071  1.1366
 1031TIP3   OH224583   6.465   2.983   5.394 -0.1429  0.2841 -0.2116
 1031TIP3    H124584   6.493   2.895   5.418  0.1913  0.8679  1.7034
 1031TIP3    H224585   6.546   3.031   5.379 -0.3336  0.0612 -2.2656
 1032TIP3   OH224586   6.418   3.857   5.916 -0.1160 -0.2594 -0.4177
 1032TIP3    H124587   6.502   3.869   5.960  0.4320 -0.7181 -1.3181
 1032TIP3    H224588   6.355   3.902   5.973  0.7121  0.0023  0.3207
 1033TIP3   OH224589   6.320   0.589  11.635 -0.0456  0.0800  0.0347
 1033TIP3    H124590   6.275   0.664  11.674  2.3214  2.0536 -0.7340
 1033TIP3    H224591   6.378   0.557  11.705 -2.6241 -2.6527  1.1321
 1034TIP3   OH224592   1.466   2.353   6.358 -0.1232  0.1913 -0.1873
 1034TIP3    H124593   1.375   2.342   6.330 -0.6563 -0.4040  1.6189
 1034TIP3    H224594   1.511   2.391   6.282 -2.1957  1.9125 -0.6527
 1035TIP3   OH224595   2.786   4.551   4.257 -0.3214  0.0764 -0.4318
 1035TIP3    H124596   2.882   4.555   4.263 -0.3596 -0.5966  2.3945
 1035TIP3    H224597   2.766   4.459   4.241 -0.4652 -0.3748  1.9552
 1036TIP3   OH224598   4.141   0.774   2.235  0.1327 -0.7869  0.4649
 1036TIP3    H124599   4.118   0.855   2.191  0.7516 -0.3725  0.8963
 1036TIP3    H224600   4.233   0.759   2.211  0.0445 -1.3207  0.4463
 1037TIP3   OH224601   3.327   3.895  17.117  0.0849 -0.2847  0.5092
 1037TIP3    H124602   3.319   3.827  17.185  1.5368 -0.4095  0.5829
 1037TIP3    H224603   3.421   3.904  17.103 -0.1810 -0.4869 -1.7376
 1038TIP3   OH224604   5.223   2.558   4.399 -0.4643  0.2353  0.1060
 1038TIP3    H124605   5.251   2.612   4.325  0.2821 -0.4206 -0.1158
 1038TIP3    H224606   5.227   2.468   4.365  0.5871 -0.1363  1.1406
 1039TIP3   OH224607   5.111   6.803  12.950 -0.8161  0.1277  0.1899
 1039TIP3    H124608   5.056   6.732  12.984 -2.0726 -0.7114 -3.2304
 1039TIP3    H224609   5.049   6.866  12.915  0.3854  0.9648 -0.4930
 1040TIP3   OH224610   1.845   0.913  15.182  0.0804  0.9852 -0.2725
 1040TIP3    H124611   1.828   1.006  15.166 -1.1028  0.9639  0.6928
 1040TIP3    H224612   1.826   0.870  15.099 -1.6087  1.3600 -0.1178
 1041TIP3   OH224613   3.895   1.730   3.837  1.0798 -0.1378  0.5012
 1041TIP3    H124614   3.957   1.795   3.870 -1.8750  3.8590 -1.0438
 1041TIP3    H224615   3.882   1.754   3.745 -0.2654 -2.9544 -0.1665
 1042TIP3   OH224616   2.008   5.906   0.801  0.3204  0.1440 -0.1788
 1042TIP3    H124617   1.949   5.962   0.852  2.2262  1.0328  1.2109
 1042TIP3    H224618   2.012   5.824   0.850 -0.9522 -0.5026 -1.1361
 1043TIP3   OH224619   3.162   0.150   6.106 -0.0740 -0.0495 -0.2950
 1043TIP3    H124620   3.097   0.138   6.037 -0.6314 -0.6116  0.3058
 1043TIP3    H224621   3.115   0.131   6.187  0.5573  0.6290  0.2489
 1044TIP3   OH224622   0.589   1.083   3.657  0.4305 -0.2417  0.3451
 1044TIP3    H124623   0.656   1.140   3.694 -0.5694  1.7256 -0.6785
 1044TIP3    H224624   0.519   1.143   3.630 -0.8074 -2.0023 -0.5671
 1045TIP3   OH224625   2.923   0.426   5.863 -0.3085 -0.3036 -0.2092
 1045TIP3    H124626   3.012   0.457   5.880  0.0075 -0.3041 -1.6912
 1045TIP3    H224627   2.925   0.333   5.887  0.7758 -0.8820 -2.2971
 1046TIP3   OH224628   6.743   2.498  15.622 -0.5549 -0.2650  0.2913
 1046TIP3    H124629   6.662   2.543  15.601 -0.1856  1.0845  1.5242
 1046TIP3    H224630   6.793   2.562  15.673  0.6121 -1.6065  0.9104
 1047TIP3   OH224631   1.388   4.952  11.809 -0.7762  0.1963  0.0824
 1047TIP3    H124632   1.354   4.988  11.891 -1.4469  1.5691 -0.7495
 1047TIP3    H224633   1.481   4.974  11.811 -0.1941 -2.0723  1.6019
 1048TIP3   OH224634   4.152   1.376   4.591 -0.3230 -0.5759  0.8016
 1048TIP3    H124635   4.237   1.403   4.556 -1.1630 -0.9051 -1.7276
 1048TIP3    H224636   4.108   1.457   4.614  0.5508 -0.3918  1.9373
 1049TIP3   OH224637   0.720   5.657   4.815  0.0864 -0.1880  0.3318
 1049TIP3    H124638   0.654   5.690   4.876  0.1077  1.2717 -0.4114
 1049TIP3    H224639   0.685   5.573   4.785 -0.1778 -0.6777  1.9104
 1050TIP3   OH224640   4.363   2.522  13.796 -0.2215 -0.2854 -0.2793
 1050TIP3    H124641   4.401   2.518  13.708  0.2445  1.6613 -0.2170
 1050TIP3    H224642   4.277   2.482  13.787 -0.0653 -0.3846 -1.5615
 1051TIP3   OH224643   5.056   0.476  17.113 -0.0764  0.1334 -0.4869
 1051TIP3    H124644   4.987   0.507  17.055 -0.8268 -0.3725  0.1106
 1051TIP3    H224645   5.035   0.384  17.128 -1.1052  0.6835  2.1687
 1052TIP3   OH224646   6.275   3.097   2.132  0.3134  0.5014  0.4240
 1052TIP3    H124647   6.258   3.087   2.039  1.7707  0.6086  0.1243
 1052TIP3    H224648   6.280   3.008   2.166 -1.3994  0.4634  0.6589
 1053TIP3   OH224649   2.242   3.205  12.991 -0.2840 -0.0543  0.0400
 1053TIP3    H124650   2.212   3.162  12.911  0.5507 -0.7019  0.0624
 1053TIP3    H224651   2.198   3.157  13.061  2.5384 -2.6494  0.2319
 1054TIP3   OH224652   0.176   3.042  12.768  0.6901  0.0665  0.7069
 1054TIP3    H124653   0.155   3.025  12.859  0.2137 -0.1578  0.5585
 1054TIP3    H224654   0.093   3.065  12.728  0.8436 -0.1304  0.2660
 1055TIP3   OH224655   1.160   2.235   1.579 -0.5050 -0.2162  0.0754
 1055TIP3    H124656   1.074   2.196   1.564 -0.2066 -1.3176  1.0931
 1055TIP3    H224657   1.210   2.214   1.501 -1.9474  2.9654 -1.9319
 1056TIP3   OH224658   2.638   0.040   0.605  0.0226  0.3731  0.4308
 1056TIP3    H124659   2.603  -0.020   0.539  0.2263  0.0628  0.6030
 1056TIP3    H224660   2.572   0.108   0.613 -0.1975  0.1865  0.2094
 1057TIP3   OH224661   1.663   6.153  13.483 -0.4017 -0.1745  0.1808
 1057TIP3    H124662   1.629   6.239  13.458 -1.1052 -0.3333  0.5620
 1057TIP3    H224663   1.712   6.169  13.564 -1.3471 -0.2775  0.7894
 1058TIP3   OH224664   0.377   6.383  12.558  0.6928  0.2963  0.2005
 1058TIP3    H124665   0.459   6.387  12.510  0.8433 -3.0968 -0.1022
 1058TIP3    H224666   0.402   6.402  12.649  1.1056  2.7584 -0.3626
 1059TIP3   OH224667   5.798   4.056   2.379 -0.0835  0.1006  0.3027
 1059TIP3    H124668   5.728   4.119   2.360  0.7803  0.5891 -1.4965
 1059TIP3    H224669   5.783   3.984   2.318  1.7462  0.8749 -1.1829
 1060TIP3   OH224670   2.104   1.375   2.134 -0.6934  0.7657 -0.6432
 1060TIP3    H124671   2.122   1.284   2.113 -0.0689  0.8161 -0.3324
 1060TIP3    H224672   2.021   1.394   2.090 -1.9365 -0.5519  0.9870
 1061TIP3   OH224673   1.883   6.740   5.396 -0.2443  0.1575  0.0477
 1061TIP3    H124674   1.838   6.756   5.313  0.3783  1.5785 -0.0519
 1061TIP3    H224675   1.813   6.742   5.462 -0.8683 -1.8586 -0.4832
 1062TIP3   OH224676   6.533   5.134  13.736  0.5744 -0.1177 -0.0103
 1062TIP3    H124677   6.537   5.057  13.792 -0.8974  0.0944  0.4442
 1062TIP3    H224678   6.586   5.200  13.780 -0.4211 -0.0087  1.0688
 1063TIP3   OH224679   5.032   0.181   1.823  0.1902 -0.1327 -0.5912
 1063TIP3    H124680   5.071   0.160   1.737  0.7011 -0.2796 -0.3283
 1063TIP3    H224681   5.031   0.276   1.826  0.6996 -0.1283 -0.5267
 1064TIP3   OH224682   0.423   4.790  16.824  0.1885 -0.6158 -0.0377
 1064TIP3    H124683   0.480   4.823  16.894  1.2998 -0.4491 -0.9790
 1064TIP3    H224684   0.357   4.858  16.812 -0.6062 -1.0826  1.4844
 1065TIP3   OH224685   5.084   2.861  11.498  0.0270 -0.6222 -0.2375
 1065TIP3    H124686   5.041   2.868  11.583  0.8279 -2.8291  0.3991
 1065TIP3    H224687   5.082   2.768  11.477 -0.9769 -0.0608 -3.1187
 1066TIP3   OH224688   4.321   4.606  15.355 -0.0087  0.0603 -0.3469
 1066TIP3    H124689   4.272   4.532  15.389  0.8645 -1.1709 -1.6479
 1066TIP3    H224690   4.410   4.572  15.341  1.2779  2.1498  1.8158
 1067TIP3   OH224691   5.690   5.818   2.209 -0.4878  0.8277 -0.3981
 1067TIP3    H124692   5.605   5.860   2.193 -0.8717  0.4798  0.6262
 1067TIP3    H224693   5.701   5.756   2.137 -0.0173  2.4845 -1.8180
 1068TIP3   OH224694   4.241   4.000   4.946  0.0791 -0.1913  0.8395
 1068TIP3    H124695   4.153   4.016   4.914 -0.0553 -0.6321  0.9830
 1068TIP3    H224696   4.263   4.078   4.997  0.9516  1.3357 -1.6618
 1069TIP3   OH224697   4.246   2.931  15.642  0.1718  0.1417  0.1306
 1069TIP3    H124698   4.270   3.020  15.665 -1.8888  1.0640 -0.9991
 1069TIP3    H224699   4.151   2.928  15.652  0.0521 -1.5663 -1.0359
 1070TIP3   OH224700   6.260   3.137   1.868 -0.6659  0.2156 -0.1098
 1070TIP3    H124701   6.335   3.193   1.888 -0.5279  0.1011 -0.3038
 1070TIP3    H224702   6.240   3.154   1.776  0.7673 -1.6459 -0.8400
 1071TIP3   OH224703   0.116   6.440   5.335  0.4988 -0.2980  0.4427
 1071TIP3    H124704   0.047   6.493   5.295  1.8054  0.0642 -1.4957
 1071TIP3    H224705   0.087   6.427   5.425 -1.9089  0.1117 -0.1957
 1072TIP3   OH224706   5.891   2.216  11.315  0.1596  0.2630  0.2107
 1072TIP3    H124707   5.970   2.186  11.360 -0.2043  0.1313  0.7664
 1072TIP3    H224708   5.922   2.243  11.228  0.6937 -0.5168  0.1451
 1073TIP3   OH224709   4.669   2.061  16.431  0.1179  0.1269 -0.0989
 1073TIP3    H124710   4.595   2.001  16.434 -1.1090  1.4610 -1.7473
 1073TIP3    H224711   4.711   2.043  16.347  0.1989  1.0134 -0.2546
 1074TIP3   OH224712   4.421   6.267   4.601  0.2260 -0.7277  0.0160
 1074TIP3    H124713   4.405   6.219   4.682 -1.4103  1.6097  1.2201
 1074TIP3    H224714   4.372   6.220   4.534 -0.4770 -1.3186  0.9266
 1075TIP3   OH224715   4.198   2.117  13.013 -0.1332 -0.5546  0.1760
 1075TIP3    H124716   4.220   2.152  13.099  0.9298  1.6254 -0.8945
 1075TIP3    H224717   4.247   2.171  12.951 -1.9000 -1.1451 -1.8942
 1076TIP3   OH224718   3.246   2.265   3.959 -0.1895  0.5172 -0.3088
 1076TIP3    H124719   3.179   2.278   3.892  1.0292  1.7827 -1.3313
 1076TIP3    H224720   3.326   2.301   3.921  1.7235 -3.0616 -0.1482
 1077TIP3   OH224721   3.987   5.598   2.032  0.1440  0.3963 -0.1526
 1077TIP3    H124722   4.018   5.526   2.086  0.2439  0.8700  0.4362
 1077TIP3    H224723   4.007   5.571   1.942  0.8422  0.0116  0.1087
 1078TIP3   OH224724   4.034   4.671  11.053  0.2760  0.6032  0.2217
 1078TIP3    H124725   4.030   4.696  10.960  0.5827 -0.3949 -0.0654
 1078TIP3    H224726   4.126   4.677  11.076 -0.0465  3.3024  1.1812
 1079TIP3   OH224727   5.192   2.975  13.549  0.0527 -0.1228 -0.3663
 1079TIP3    H124728   5.243   2.909  13.596 -1.3536 -1.5581 -0.7419
 1079TIP3    H224729   5.141   3.018  13.617 -0.7912 -1.1033 -0.3426
 1080TIP3   OH224730   6.229   2.982   2.486 -0.1562  0.2930 -0.1829
 1080TIP3    H124731   6.281   2.911   2.522  3.1140  2.4382 -0.1949
 1080TIP3    H224732   6.139   2.950   2.487  1.1137 -3.7487 -0.2096
 1081TIP3   OH224733   1.814   4.887   4.156 -0.0603 -0.2855  0.0556
 1081TIP3    H124734   1.805   4.799   4.191  0.3652 -1.3144 -2.2432
 1081TIP3    H224735   1.871   4.932   4.218  1.1901 -2.1902  0.3706
 1082TIP3   OH224736   3.955   3.982   1.688 -0.0395 -0.0659  0.2688
 1082TIP3    H124737   3.887   4.050   1.688 -0.4725 -0.4929  0.6971
 1082TIP3    H224738   3.908   3.901   1.669  0.2560 -0.4468  1.0962
 1083TIP3   OH224739   1.544   4.528   2.032  0.0189 -0.1377  0.1272
 1083TIP3    H124740   1.473   4.515   1.969 -0.4412  1.1532  0.3485
 1083TIP3    H224741   1.615   4.473   2.000 -0.7378 -0.6712 -0.6682
 1084TIP3   OH224742   3.112   0.668  12.554 -0.2731 -0.4336  0.1311
 1084TIP3    H124743   3.064   0.609  12.612  0.3866 -0.3427  0.7719
 1084TIP3    H224744   3.074   0.652  12.467  0.3419 -2.2703  0.1617
 1085TIP3   OH224745   3.427   2.520  15.281  0.0259  0.1892  0.2949
 1085TIP3    H124746   3.364   2.486  15.218  0.1225 -0.1964  0.4074
 1085TIP3    H224747   3.459   2.443  15.327  3.2904 -0.0935 -2.1588
 1086TIP3   OH224748   5.814   4.394   5.313  0.3608 -0.8151  0.6538
 1086TIP3    H124749   5.781   4.350   5.391  0.0282 -2.0939 -0.1691
 1086TIP3    H224750   5.903   4.361   5.302  0.2912 -0.9028  0.3189
 1087TIP3   OH224751   2.038   0.715  12.813 -0.6463 -0.0318 -0.3479
 1087TIP3    H124752   2.104   0.648  12.831 -0.6472 -0.1082 -0.6180
 1087TIP3    H224753   2.074   0.763  12.738 -0.4149  0.5829  0.1473
 1088TIP3   OH224754   6.347   3.622   5.488 -0.5589 -1.0117  0.6494
 1088TIP3    H124755   6.283   3.623   5.559 -1.2946 -0.7392  0.0052
 1088TIP3    H224756   6.422   3.671   5.521 -1.7610  1.0614  0.4766
 1089TIP3   OH224757   0.852   4.197   5.323  0.6306 -0.1360 -0.1007
 1089TIP3    H124758   0.781   4.149   5.281  0.8265 -1.6998  1.2377
 1089TIP3    H224759   0.931   4.153   5.294  0.8922  0.0477  0.3238
 1090TIP3   OH224760   2.605   0.935  17.060 -0.0687  0.4215  0.0282
 1090TIP3    H124761   2.669   0.995  17.020  1.5088 -0.8726  0.5038
 1090TIP3    H224762   2.619   0.852  17.015 -0.6027 -0.1899  0.9596
 1091TIP3   OH224763   5.557   1.224  16.321  0.4780  0.0508  0.0129
 1091TIP3    H124764   5.627   1.281  16.287  0.6214  1.0385  1.8364
 1091TIP3    H224765   5.511   1.279  16.384 -0.9608 -1.1119  0.0036
 1092TIP3   OH224766   1.915   1.187   4.969 -0.1656  0.0824 -0.5842
 1092TIP3    H124767   1.872   1.102   4.980 -1.0219  0.3923 -1.3739
 1092TIP3    H224768   1.861   1.247   5.022  1.6794 -0.1924  1.7732
 1093TIP3   OH224769   4.001   4.307   4.420  0.3267 -0.6478 -0.0412
 1093TIP3    H124770   4.078   4.309   4.365  0.5642  0.3535  0.3093
 1093TIP3    H224771   3.928   4.295   4.360  0.4222  1.9325 -0.8012
 1094TIP3   OH224772   2.004   5.555  16.927  0.3896  0.4319 -0.4267
 1094TIP3    H124773   2.024   5.462  16.931  0.1815  0.4144  2.0949
 1094TIP3    H224774   1.909   5.560  16.915  0.2059  0.2567  0.8188
 1095TIP3   OH224775   1.832   4.899   2.361 -0.5838 -0.5010 -0.5525
 1095TIP3    H124776   1.835   4.979   2.413 -0.1165 -1.0104  0.2255
 1095TIP3    H224777   1.891   4.839   2.406 -0.9130 -1.2806 -1.1347
 1096TIP3   OH224778   5.373   1.531  14.136  0.5407  0.1285  0.2423
 1096TIP3    H124779   5.416   1.517  14.051 -0.6302 -1.9341 -0.0613
 1096TIP3    H224780   5.445   1.546  14.197  1.5645 -0.9620 -0.6599
 1097TIP3   OH224781   2.778   2.354   4.628  0.0059  0.5172  0.3676
 1097TIP3    H124782   2.695   2.351   4.581  0.1078  3.0297 -0.1263
 1097TIP3    H224783   2.807   2.263   4.631 -1.9310 -0.2206 -0.9255
 1098TIP3   OH224784   0.233   2.402   0.238  0.3250  0.1110  0.5613
 1098TIP3    H124785   0.231   2.496   0.258 -1.0874  0.1196  0.4970
 1098TIP3    H224786   0.326   2.381   0.229  0.6118  1.7729 -0.7330
 1099TIP3   OH224787   1.835   0.453  14.522 -0.1484 -0.0311 -0.2181
 1099TIP3    H124788   1.787   0.465  14.440  0.2139  0.1019 -0.4114
 1099TIP3    H224789   1.780   0.496  14.588 -1.5482 -2.0397 -0.0015
 1100TIP3   OH224790   3.278   3.979   2.804  0.7078 -0.1508  0.5283
 1100TIP3    H124791   3.370   3.992   2.825  1.2600 -1.0495 -1.1947
 1100TIP3    H224792   3.256   4.049   2.742  0.5475 -0.6085  0.0619
 1101TIP3   OH224793   1.076   6.007  14.259 -0.6374 -0.1067  0.1996
 1101TIP3    H124794   1.043   5.921  14.287 -0.3111  0.2629  1.8734
 1101TIP3    H224795   1.160   5.988  14.218 -0.7192 -0.6299  0.2593
 1102TIP3   OH224796   3.146   2.595  14.769 -0.2127  0.1814 -0.1808
 1102TIP3    H124797   3.187   2.550  14.695  0.2711  0.0303  0.1741
 1102TIP3    H224798   3.055   2.565  14.768 -0.7960  1.8472 -2.0246
 1103TIP3   OH224799   6.106   4.796   5.554 -0.3717 -0.4289  0.1285
 1103TIP3    H124800   6.091   4.882   5.593  1.0731  0.4822 -1.2377
 1103TIP3    H224801   6.192   4.769   5.588  0.0399 -0.4717 -0.9204
 1104TIP3   OH224802   6.803   4.854  16.736 -0.0925  0.0690 -0.1597
 1104TIP3    H124803   6.799   4.894  16.649  2.9846  0.2425 -0.3070
 1104TIP3    H224804   6.804   4.760  16.719 -1.9375  0.0020 -0.1073
 1105TIP3   OH224805   0.826   3.593  13.840 -0.1080 -0.1601 -0.3818
 1105TIP3    H124806   0.779   3.667  13.876 -0.4079  0.3979 -1.8450
 1105TIP3    H224807   0.918   3.621  13.838 -0.4775  1.1274 -3.0175
 1106TIP3   OH224808   1.657   4.442   2.261  0.4840  1.1097 -0.4721
 1106TIP3    H124809   1.618   4.503   2.199  0.4229  1.1336 -0.4111
 1106TIP3    H224810   1.730   4.402   2.214 -0.3766  0.1302 -1.0325
 1107TIP3   OH224811   5.533   5.008   2.588  0.0980 -0.0248  0.2839
 1107TIP3    H124812   5.529   4.942   2.519 -0.3586  1.1560 -0.8756
 1107TIP3    H224813   5.449   5.000   2.633 -0.3343  0.3276 -0.4281
 1108TIP3   OH224814   0.092   1.906   2.009 -0.1093  0.1619  0.2532
 1108TIP3    H124815   0.040   1.942   2.080 -1.9102 -0.6414 -0.5934
 1108TIP3    H224816   0.079   1.812   2.014 -0.6717  0.1093 -1.3845
 1109TIP3   OH224817   3.821   6.394   4.993 -0.1576  0.9545  0.2378
 1109TIP3    H124818   3.827   6.341   4.914 -1.3605  1.5815 -0.3131
 1109TIP3    H224819   3.727   6.396   5.013  0.0131  1.7470  1.0240
 1110TIP3   OH224820   0.403   2.585   2.576  0.0529  0.2872  0.5579
 1110TIP3    H124821   0.449   2.504   2.557 -0.9664 -0.2799  0.4148
 1110TIP3    H224822   0.316   2.573   2.537 -0.1505  1.4058  0.6266
 1111TIP3   OH224823   4.228   6.782   3.635 -0.1628  0.3835  0.0421
 1111TIP3    H124824   4.156   6.819   3.684  0.5077  0.4148  1.0390
 1111TIP3    H224825   4.302   6.840   3.653  0.2025  0.1530 -0.6697
 1112TIP3   OH224826   0.151   4.333   2.940  0.5533 -0.0287 -0.2460
 1112TIP3    H124827   0.195   4.382   3.010 -0.0242 -2.0624  1.6610
 1112TIP3    H224828   0.214   4.267   2.914 -0.1551 -0.9023  0.2034
 1113TIP3   OH224829   6.451   2.132  12.385  0.3956 -0.4734 -0.7325
 1113TIP3    H124830   6.434   2.204  12.445  0.1546  0.3442 -1.7370
 1113TIP3    H224831   6.496   2.174  12.310  1.7032 -1.6359 -0.6398
 1114TIP3   OH224832   4.167   5.031   5.798  0.0902  0.0187  0.0445
 1114TIP3    H124833   4.209   4.978   5.730 -1.4586 -2.7394  1.0655
 1114TIP3    H224834   4.219   5.014   5.877 -0.2767  0.2210  0.3323
 1115TIP3   OH224835   6.518   4.503   5.157  0.3294 -0.0787  0.0611
 1115TIP3    H124836   6.502   4.513   5.063 -0.5529 -1.5664  0.0262
 1115TIP3    H224837   6.580   4.573   5.178 -0.1415  0.8393 -1.4400
 1116TIP3   OH224838   4.006   1.144  13.473 -0.0527  0.1825  0.2805
 1116TIP3    H124839   3.920   1.125  13.511  0.0171  0.0415  0.3666
 1116TIP3    H224840   4.069   1.102  13.532  0.1270  0.9990  0.6761
 1117TIP3   OH224841   2.164   2.737  12.151  0.3155 -0.4564  0.3895
 1117TIP3    H124842   2.133   2.651  12.123 -1.2396 -0.1559  1.0818
 1117TIP3    H224843   2.140   2.795  12.078  0.6979 -0.4710  0.2472
 1118TIP3   OH224844   1.037   4.657  14.667  0.0955 -0.5108  0.2469
 1118TIP3    H124845   1.125   4.667  14.704  1.3172 -0.8609 -2.3680
 1118TIP3    H224846   1.034   4.566  14.636 -0.6947 -0.1349 -0.8297
 1119TIP3   OH224847   3.681   5.944   4.842  0.1965 -0.2499  0.3564
 1119TIP3    H124848   3.643   5.951   4.929  0.3801 -0.0163  0.4186
 1119TIP3    H224849   3.742   6.018   4.836 -1.7020  1.3280 -0.9235
 1120TIP3   OH224850   2.420   1.367   4.716 -0.2293 -1.0062 -0.4333
 1120TIP3    H124851   2.330   1.376   4.683 -0.1937  2.9014  0.1353
 1120TIP3    H224852   2.475   1.410   4.651  0.2883  3.0045  2.2702
 1121TIP3   OH224853   4.317   1.726   3.358  0.5862 -0.4161  0.0859
 1121TIP3    H124854   4.382   1.659   3.336 -0.1601 -0.6643 -1.5179
 1121TIP3    H224855   4.324   1.737   3.453  2.1943 -1.2246  0.0848
 1122TIP3   OH224856   1.312   3.432  11.267  0.4262  0.1503 -0.1142
 1122TIP3    H124857   1.250   3.360  11.278 -1.9214  2.0589  0.0744
 1122TIP3    H224858   1.341   3.426  11.176 -1.4509  0.1939 -0.7523
 1123TIP3   OH224859   4.716   1.432   3.387  0.3423 -0.3566 -0.2103
 1123TIP3    H124860   4.675   1.380   3.456  0.7316 -0.2310  0.1161
 1123TIP3    H224861   4.809   1.411   3.393  0.4482  0.0642 -0.3465
 1124TIP3   OH224862   6.667   2.428  15.097  0.1372  0.0442  0.4987
 1124TIP3    H124863   6.620   2.371  15.157  1.5268  0.5315  2.1540
 1124TIP3    H224864   6.711   2.492  15.154  1.3257  0.6907 -1.0486
 1125TIP3   OH224865   4.860   3.893   6.019 -0.2881 -0.4426 -0.5693
 1125TIP3    H124866   4.886   3.835   6.091 -0.3168 -0.4021 -0.5269
 1125TIP3    H224867   4.764   3.896   6.024 -0.4520 -1.9777 -1.7727
 1126TIP3   OH224868   5.885   3.217  14.726  0.0092  0.2598 -0.1709
 1126TIP3    H124869   5.966   3.177  14.696 -0.0156  1.0067 -1.3243
 1126TIP3    H224870   5.847   3.155  14.788  1.5003 -0.0545  0.4466
 1127TIP3   OH224871   4.504   0.667  16.912 -0.3662  0.0368 -0.5809
 1127TIP3    H124872   4.455   0.724  16.972 -0.2128  0.1298 -0.5417
 1127TIP3    H224873   4.584   0.647  16.960  0.5573  1.5158 -1.4304
 1128TIP3   OH224874   5.227   6.494   1.057 -0.0046  0.1938  0.4213
 1128TIP3    H124875   5.208   6.560   0.990  1.0853 -0.0796 -0.2008
 1128TIP3    H224876   5.145   6.445   1.067 -0.6624  1.2888  0.4922
 1129TIP3   OH224877   1.293   5.217   1.216 -0.6565 -0.7243  0.2316
 1129TIP3    H124878   1.204   5.204   1.249 -1.0016  2.7456  1.0400
 1129TIP3    H224879   1.293   5.307   1.182  2.5079 -0.6459  0.1804
 1130TIP3   OH224880   5.647   2.004   1.669 -0.9476 -0.7219 -0.0013
 1130TIP3    H124881   5.683   2.027   1.754 -0.5146 -0.6181 -0.2097
 1130TIP3    H224882   5.693   2.061   1.607  0.1738 -2.1366 -0.5288
 1131TIP3   OH224883   0.682   3.144   1.543 -0.0440  0.3372  0.3521
 1131TIP3    H124884   0.627   3.126   1.619 -0.8246 -2.4004 -0.7314
 1131TIP3    H224885   0.625   3.192   1.483 -1.0367 -1.5946 -0.3446
 1132TIP3   OH224886   4.157   1.393  16.265 -0.3284  0.2539 -0.5000
 1132TIP3    H124887   4.063   1.393  16.283 -0.3314 -1.2908 -0.3927
 1132TIP3    H224888   4.193   1.460  16.323 -1.3947  1.0993 -0.7956
 1133TIP3   OH224889   5.345   5.092  12.174 -0.6438 -0.2283  0.2492
 1133TIP3    H124890   5.332   4.998  12.188 -2.1912 -0.1405 -0.3104
 1133TIP3    H224891   5.257   5.125  12.153 -0.4320  1.6309  2.0024
 1134TIP3   OH224892   0.576   5.307  12.478 -0.1981 -0.4111  0.2071
 1134TIP3    H124893   0.511   5.253  12.434 -0.4787 -1.1348  1.4772
 1134TIP3    H224894   0.625   5.348  12.406 -1.2185 -0.8379 -0.7672
 1135TIP3   OH224895   0.243   4.577   0.042  0.2980  0.2507  0.2314
 1135TIP3    H124896   0.227   4.499   0.096  0.8572  0.0641  0.1371
 1135TIP3    H224897   0.160   4.624   0.043  0.0446 -0.1917  0.5449
 1136TIP3   OH224898   4.521   0.578  11.790  0.0228 -0.2234 -0.2205
 1136TIP3    H124899   4.567   0.631  11.725 -1.4313 -0.2687 -1.3366
 1136TIP3    H224900   4.511   0.637  11.865 -1.6053  1.1580 -1.4586
 1137TIP3   OH224901   0.577   6.004  12.411 -0.5067 -0.0009 -0.5734
 1137TIP3    H124902   0.564   5.979  12.502 -0.0268  1.0348 -0.2090
 1137TIP3    H224903   0.553   5.926  12.361  0.6776 -1.0956  0.5016
 1138TIP3   OH224904   3.672   6.213  14.535  0.7927  0.0998  0.0358
 1138TIP3    H124905   3.760   6.183  14.556  1.3471  1.1714 -0.6802
 1138TIP3    H224906   3.616   6.172  14.601  1.6098 -1.7605 -0.3428
 1139TIP3   OH224907   3.502   6.707   0.335 -0.7990 -0.4937 -0.0527
 1139TIP3    H124908   3.559   6.682   0.263 -1.0889  1.0310 -0.8661
 1139TIP3    H224909   3.484   6.626   0.382  2.1544 -1.0227  0.3554
 1140TIP3   OH224910   5.627   1.929  14.721 -0.2557  0.1104  0.2445
 1140TIP3    H124911   5.601   2.014  14.755 -0.7608 -0.3802  1.1178
 1140TIP3    H224912   5.576   1.919  14.640 -0.3499  0.5497  0.2481
 1141TIP3   OH224913   6.483   3.775  10.359 -0.2363  0.8392  0.4035
 1141TIP3    H124914   6.415   3.810  10.302  0.9864 -0.4420 -2.0120
 1141TIP3    H224915   6.436   3.747  10.438 -2.0832  2.2277 -0.1244
 1142TIP3   OH224916   5.270   3.628  16.460  0.3847  0.0922  0.0018
 1142TIP3    H124917   5.257   3.678  16.380 -0.5399  1.3874  0.9076
 1142TIP3    H224918   5.212   3.553  16.451 -2.8344  2.2079  1.0000
 1143TIP3   OH224919   1.155   3.869   3.146  0.2570 -0.1960 -0.3090
 1143TIP3    H124920   1.219   3.877   3.075 -1.1352  3.8617 -1.3786
 1143TIP3    H224921   1.189   3.927   3.214 -1.1445  0.3227 -0.0268
 1144TIP3   OH224922   2.960   3.939   1.362  0.0218  0.3822 -0.3138
 1144TIP3    H124923   2.873   3.910   1.389  0.7309 -0.8688  0.7742
 1144TIP3    H224924   2.996   3.983   1.440  1.1089 -0.9481 -0.0180
 1145TIP3   OH224925   3.343   1.009  16.928 -0.1234 -0.3931 -0.1852
 1145TIP3    H124926   3.433   0.999  16.898 -0.1771 -1.5377  0.0083
 1145TIP3    H224927   3.292   1.012  16.847 -0.1379 -2.2266 -0.2906
 1146TIP3   OH224928   5.250   2.981   5.179  0.1235 -0.1082  0.0836
 1146TIP3    H124929   5.222   2.984   5.087  0.6195 -0.2280 -0.0793
 1146TIP3    H224930   5.266   3.073   5.201  0.0767 -0.0855  0.0247
 1147TIP3   OH224931   1.263   4.488  14.096 -0.1078 -0.4724  0.4614
 1147TIP3    H124932   1.354   4.517  14.090 -0.5719  1.0151  0.1693
 1147TIP3    H224933   1.267   4.393  14.085  1.2836 -0.2845 -0.9436
 1148TIP3   OH224934   6.144   0.725   3.579  1.0436  0.2552  0.4431
 1148TIP3    H124935   6.229   0.722   3.536  1.0648  0.4188  0.4722
 1148TIP3    H224936   6.082   0.698   3.510  1.1547 -0.2228  0.5279
 1149TIP3   OH224937   3.711   5.948   2.150 -0.4129 -0.1387  0.3487
 1149TIP3    H124938   3.716   5.857   2.120  1.8609 -0.1141  0.4528
 1149TIP3    H224939   3.650   5.990   2.090 -1.8666 -1.8210  0.5889
 1150TIP3   OH224940   4.449   2.116   5.261 -0.5832 -0.0087  0.1322
 1150TIP3    H124941   4.392   2.181   5.220  1.1451  1.2982 -0.3136
 1150TIP3    H224942   4.537   2.152   5.252  0.2824 -1.6964  1.2762
 1151TIP3   OH224943   3.024   4.689  13.152 -0.0035 -0.0551  0.0368
 1151TIP3    H124944   3.013   4.744  13.229 -0.7400 -1.4510  0.9642
 1151TIP3    H224945   3.018   4.599  13.185  0.5147 -0.6944 -1.5195
 1152TIP3   OH224946   6.504   1.526  11.238  0.2981  0.0002 -0.2661
 1152TIP3    H124947   6.560   1.516  11.161 -0.7046 -1.4347 -0.8430
 1152TIP3    H224948   6.515   1.618  11.263  0.3921  0.6025 -2.3272
 1153TIP3   OH224949   3.722   6.613   1.714  0.5654 -0.0700  0.2401
 1153TIP3    H124950   3.694   6.659   1.635  0.8846 -0.4600 -0.1012
 1153TIP3    H224951   3.672   6.531   1.714 -1.5037  1.0663  1.8682
 1154TIP3   OH224952   0.951   6.681  16.877 -0.1338  0.6602 -0.6781
 1154TIP3    H124953   0.987   6.618  16.815 -0.3462 -3.1188  2.5897
 1154TIP3    H224954   0.872   6.715  16.834  0.0236 -1.2935 -2.7016
 1155TIP3   OH224955   6.532   1.277  11.404 -0.2762 -0.8518  0.1742
 1155TIP3    H124956   6.549   1.200  11.349  1.6431 -1.4317  1.4746
 1155TIP3    H224957   6.618   1.301  11.439 -1.2116  0.3618  1.7756
 1156TIP3   OH224958   3.261   0.470   2.489 -0.0333 -0.0280  0.1709
 1156TIP3    H124959   3.189   0.472   2.552 -1.0672  1.7701 -0.9769
 1156TIP3    H224960   3.301   0.383   2.501 -0.7299 -0.0783  2.6285
 1157TIP3   OH224961   4.892   1.337   0.204 -0.2989  0.4420 -0.4138
 1157TIP3    H124962   4.964   1.395   0.180  0.0400 -0.5746 -1.9993
 1157TIP3    H224963   4.828   1.395   0.246  0.7185  1.6639 -0.4817
 1158TIP3   OH224964   0.322   6.317   0.185 -0.0510 -0.3320  0.3899
 1158TIP3    H124965   0.267   6.386   0.149  0.3863 -0.0242  0.2989
 1158TIP3    H224966   0.278   6.235   0.159  0.7731 -0.1610 -1.7758
 1159TIP3   OH224967   0.888   3.906   5.040 -0.9221  0.3679 -0.0579
 1159TIP3    H124968   0.964   3.900   5.098 -0.2308  1.0571 -0.8642
 1159TIP3    H224969   0.923   3.941   4.958 -1.8355 -0.7697 -0.9741
 1160TIP3   OH224970   1.694   0.709   0.662 -1.1668  0.0430  0.3129
 1160TIP3    H124971   1.610   0.693   0.705 -1.4473 -1.1907 -0.6474
 1160TIP3    H224972   1.716   0.626   0.620 -0.3574  0.8690 -0.9643
 1161TIP3   OH224973   3.764   4.363  11.235  1.0118  0.1197  0.5530
 1161TIP3    H124974   3.771   4.288  11.294  0.8263 -0.4833 -0.1768
 1161TIP3    H224975   3.680   4.351  11.190  1.2784  0.4056 -0.0382
 1162TIP3   OH224976   6.498   1.831   4.134  0.2235 -0.3660  0.1600
 1162TIP3    H124977   6.562   1.770   4.170 -1.8192 -0.9497  3.1565
 1162TIP3    H224978   6.458   1.784   4.061  0.4950 -1.5831  0.7744
 1163TIP3   OH224979   0.211   4.469   4.335 -0.1363 -0.6216  0.0824
 1163TIP3    H124980   0.224   4.547   4.389 -2.1397  0.0748 -0.3616
 1163TIP3    H224981   0.207   4.396   4.397 -1.3089  0.0242  0.7940
 1164TIP3   OH224982   4.038   3.362  12.041 -0.1410  0.3715 -0.2099
 1164TIP3    H124983   4.042   3.312  11.959  0.9877  0.5972 -0.3112
 1164TIP3    H224984   4.119   3.413  12.041 -0.6501  1.1858  0.5408
 1165TIP3   OH224985   1.563   2.422   4.190 -0.0728  0.1988  0.5981
 1165TIP3    H124986   1.518   2.498   4.152  1.0043 -0.0497 -1.2613
 1165TIP3    H224987   1.528   2.347   4.142  0.8380 -0.2003  0.5357
 1166TIP3   OH224988   0.524   4.696  15.259 -0.0882  0.4626  0.0868
 1166TIP3    H124989   0.593   4.763  15.262  0.6243 -0.2828  2.4085
 1166TIP3    H224990   0.568   4.615  15.284 -1.5784 -0.2587  0.4698
 1167TIP3   OH224991   3.691   1.834  11.751  0.8398 -0.4354  0.0142
 1167TIP3    H124992   3.767   1.822  11.694  0.2749  0.3553 -0.9391
 1167TIP3    H224993   3.620   1.859  11.691 -0.0062 -0.5094  0.9610
 1168TIP3   OH224994   3.910   2.363  16.029  0.5434  0.1488  0.5146
 1168TIP3    H124995   3.941   2.408  15.950  0.2203 -1.8319 -0.8387
 1168TIP3    H224996   3.950   2.276  16.023 -1.0606 -0.7052  1.4738
 1169TIP3   OH224997   1.455   4.146   2.590 -0.4264  0.5425 -0.1847
 1169TIP3    H124998   1.427   4.219   2.534 -1.8344 -0.7618 -1.2563
 1169TIP3    H224999   1.454   4.182   2.679 -0.9642  1.8618 -0.7014
 1170TIP3   OH225000   4.664   0.518  12.780 -0.0897 -0.3158  0.6490
 1170TIP3    H125001   4.602   0.530  12.852  0.5069 -0.3715  1.1744
 1170TIP3    H225002   4.741   0.568  12.805 -0.5150  1.1289 -0.7715
 1171TIP3   OH225003   5.470   6.497  14.690 -0.7722 -0.3997  0.1887
 1171TIP3    H125004   5.402   6.514  14.624 -0.9697 -0.6062  0.3375
 1171TIP3    H225005   5.536   6.564  14.674  0.1942 -1.6718 -1.5920
 1172TIP3   OH225006   2.422   6.058  11.224  0.2545  0.0077  0.1147
 1172TIP3    H125007   2.360   6.040  11.154 -0.4531  1.4649  0.3298
 1172TIP3    H225008   2.476   5.979  11.229  0.1391 -0.2375 -1.8617
 1173TIP3   OH225009   5.250   0.371  15.435 -0.0977 -0.2529  0.0128
 1173TIP3    H125010   5.221   0.446  15.487  0.8844  1.6044 -1.9345
 1173TIP3    H225011   5.186   0.365  15.364  0.3155 -0.6791 -0.3273
 1174TIP3   OH225012   4.119   4.493   2.178 -0.1039 -0.0047  0.4967
 1174TIP3    H125013   4.114   4.550   2.255  1.8741 -0.0925  0.7217
 1174TIP3    H225014   4.116   4.404   2.215  0.7338 -0.0462  0.4776
 1175TIP3   OH225015   6.797   3.937  13.331  0.5776  0.4037 -0.1516
 1175TIP3    H125016   6.884   3.902  13.346  1.0305  1.6555  0.2689
 1175TIP3    H225017   6.792   3.952  13.237  0.1113 -1.4046 -0.4472
 1176TIP3   OH225018   3.199   0.431  15.888 -0.3585 -0.3931 -0.1632
 1176TIP3    H125019   3.181   0.344  15.923 -0.4325  0.1857  1.3488
 1176TIP3    H225020   3.112   0.465  15.864 -0.2610 -0.9630 -1.3797
 1177TIP3   OH225021   3.781   3.704   0.935  0.0315 -0.2040 -0.1852
 1177TIP3    H125022   3.859   3.726   0.986  0.3041  0.0717 -0.7094
 1177TIP3    H225023   3.781   3.767   0.863 -0.2632 -0.6777 -0.6103
 1178TIP3   OH225024   4.225   2.744  13.034  0.1040  0.4995  0.0234
 1178TIP3    H125025   4.304   2.701  13.002 -0.6547 -1.9369  1.1665
 1178TIP3    H225026   4.256   2.825  13.075  1.6391  0.9850 -1.9449
 1179TIP3   OH225027   2.351   2.569  11.942 -0.1700 -0.3107  0.8093
 1179TIP3    H125028   2.255   2.578  11.944 -0.0140  2.3994  0.2466
 1179TIP3    H225029   2.367   2.480  11.972 -2.8521 -0.7574  1.2172
 1180TIP3   OH225030   5.279   1.084  13.477  0.7664 -0.6023  0.0977
 1180TIP3    H125031   5.282   1.129  13.562 -0.8244  0.1239 -0.2128
 1180TIP3    H225032   5.277   0.991  13.500  0.2876 -0.4105  0.8576
 1181TIP3   OH225033   6.164   3.722  12.487 -0.0592 -0.4026  0.1194
 1181TIP3    H125034   6.112   3.776  12.427 -0.8544  0.0581  1.1904
 1181TIP3    H225035   6.238   3.778  12.511 -1.6654  0.8999  2.4172
 1182TIP3   OH225036   0.030   6.085   3.072  0.0812 -0.3952  0.1966
 1182TIP3    H125037  -0.063   6.060   3.069 -0.3257  1.0848 -0.7354
 1182TIP3    H225038   0.035   6.164   3.019  2.3862 -1.9169 -2.1051
 1183TIP3   OH225039   6.081   3.055  11.884  0.5668 -0.0938 -0.2916
 1183TIP3    H125040   6.054   3.106  11.961 -0.1055  0.6491 -1.0072
 1183TIP3    H225041   6.000   3.037  11.837  0.6865 -2.4705  0.2830
 1184TIP3   OH225042   4.180   1.319  10.855 -0.1033 -0.2331  0.2687
 1184TIP3    H125043   4.196   1.296  10.764 -0.5019  0.3746  0.0410
 1184TIP3    H225044   4.264   1.304  10.899  0.0698 -0.5912 -0.1828
 1185TIP3   OH225045   5.855   3.738   3.343 -0.2503 -0.1798  0.3476
 1185TIP3    H125046   5.938   3.714   3.301 -0.6811 -0.3199 -0.4384
 1185TIP3    H225047   5.854   3.834   3.340 -0.8124 -0.2044 -1.0607
 1186TIP3   OH225048   6.139   5.896   5.634 -0.0435  0.4755  0.2294
 1186TIP3    H125049   6.186   5.979   5.624  2.1713 -0.6006  0.9767
 1186TIP3    H225050   6.129   5.863   5.544  1.0218  0.5503  0.0706
 1187TIP3   OH225051   2.628   3.531   2.440  0.6731 -0.0860  0.2266
 1187TIP3    H125052   2.597   3.456   2.388 -2.3364  1.9621 -1.2036
 1187TIP3    H225053   2.644   3.599   2.375 -1.4512  2.0159  1.7819
 1188TIP3   OH225054   4.470   0.303  16.477  0.6268  0.0117 -0.1899
 1188TIP3    H125055   4.419   0.222  16.470  0.9224 -0.2824  0.8448
 1188TIP3    H225056   4.417   0.359  16.535  2.2087 -0.9480  2.3462
 1189TIP3   OH225057   0.553   6.562  16.609  0.6591  0.0381  0.2547
 1189TIP3    H125058   0.507   6.483  16.637 -0.4925  0.0586 -1.4202
 1189TIP3    H225059   0.510   6.587  16.528  1.0356  2.3714  0.6983
 1190TIP3   OH225060   2.391   5.801  14.910  0.0862 -0.1505  0.1305
 1190TIP3    H125061   2.329   5.798  14.983 -0.9962 -1.1288 -0.7920
 1190TIP3    H225062   2.338   5.824  14.834  0.8671 -0.8571 -0.6529
 1191TIP3   OH225063   5.381   2.285  13.313 -0.4972  0.7301 -0.5967
 1191TIP3    H125064   5.422   2.320  13.392  0.6856  0.7236 -1.1854
 1191TIP3    H225065   5.378   2.360  13.252 -0.8855  0.5981 -0.7421
 1192TIP3   OH225066   4.389   2.099  13.410 -0.3583 -0.7195  0.5478
 1192TIP3    H125067   4.297   2.124  13.417  0.0815  1.3612 -0.2411
 1192TIP3    H225068   4.405   2.095  13.315  0.5349 -0.2500  0.6714
 1193TIP3   OH225069   4.143   6.065  12.288 -0.0300  0.3192  0.7488
 1193TIP3    H125070   4.163   6.138  12.346 -0.4666  1.7814 -0.8769
 1193TIP3    H225071   4.145   5.988  12.346 -0.0083  1.6311  2.5971
 1194TIP3   OH225072   4.592   1.430   5.471 -0.4353 -0.0044 -0.2687
 1194TIP3    H125073   4.524   1.367   5.497  0.8817 -1.3915 -0.0654
 1194TIP3    H225074   4.626   1.464   5.554 -1.1146  1.0090 -0.3756
 1195TIP3   OH225075   6.807   0.584   3.674 -0.2661 -0.6760  0.3996
 1195TIP3    H125076   6.881   0.642   3.658 -2.0402  1.5951 -0.2226
 1195TIP3    H225077   6.775   0.561   3.586 -0.1552 -1.8843  0.6498
 1196TIP3   OH225078   6.633   1.340   2.549 -0.0067  0.4450 -0.0661
 1196TIP3    H125079   6.655   1.280   2.620 -1.0348  0.4287  0.2655
 1196TIP3    H225080   6.715   1.356   2.504  0.8022  0.9728  1.5300
 1197TIP3   OH225081   1.073   4.048  15.022 -0.3876 -0.2651 -1.2876
 1197TIP3    H125082   1.129   4.106  15.074  1.3360 -0.5237 -2.7552
 1197TIP3    H225083   1.034   4.106  14.956 -0.3804 -0.4137 -1.4214
 1198TIP3   OH225084   2.503   1.741   2.733 -0.4293  0.2622 -0.3855
 1198TIP3    H125085   2.503   1.794   2.813  2.5306 -1.4618  0.9055
 1198TIP3    H225086   2.495   1.651   2.764  2.3249 -0.5796 -1.8311
 1199TIP3   OH225087   0.523   4.528  14.845 -0.0511  0.1346  0.3052
 1199TIP3    H125088   0.617   4.511  14.833 -0.3056 -1.1149 -0.0071
 1199TIP3    H225089   0.497   4.576  14.767  0.0880 -0.5822 -0.1960
 1200TIP3   OH225090   2.971   1.274   1.929  0.5589  0.0668  0.4201
 1200TIP3    H125091   3.037   1.341   1.941 -0.7059  1.5432 -0.5514
 1200TIP3    H225092   2.982   1.215   2.004  2.2839  0.8261  0.7952
 1201TIP3   OH225093   2.445   2.442  11.553 -0.2885  0.4314 -0.4563
 1201TIP3    H125094   2.539   2.432  11.537 -0.5884  0.4173 -2.3651
 1201TIP3    H225095   2.419   2.361  11.598  0.2863 -0.3601 -1.5132
 1202TIP3   OH225096   0.534   3.246   5.587  0.2526 -0.2331 -0.1364
 1202TIP3    H125097   0.575   3.197   5.659  1.5239 -0.9866 -1.3139
 1202TIP3    H225098   0.507   3.178   5.525 -2.6363  0.2585  0.4616
 1203TIP3   OH225099   3.502   0.206  15.451  0.7171 -0.6402  0.2312
 1203TIP3    H125100   3.486   0.159  15.369  1.7649  0.3152 -0.5541
 1203TIP3    H225101   3.503   0.298  15.425  0.4699 -0.2776  1.4378
 1204TIP3   OH225102   2.218   1.443  16.732  0.3440  0.0190  0.2284
 1204TIP3    H125103   2.230   1.457  16.638 -0.1807 -0.6990  0.0506
 1204TIP3    H225104   2.281   1.375  16.755 -0.0434 -0.3359  0.2475
 1205TIP3   OH225105   3.847   5.904  16.040  0.2999 -0.5646 -1.1050
 1205TIP3    H125106   3.893   5.849  16.103  1.3678  0.9001 -0.5293
 1205TIP3    H225107   3.914   5.967  16.011 -1.2031  1.3794 -0.5678
 1206TIP3   OH225108   0.590   1.295  14.396  0.3716 -0.3366 -0.0219
 1206TIP3    H125109   0.631   1.336  14.320 -1.0959  0.6318 -0.3261
 1206TIP3    H225110   0.579   1.366  14.459 -0.5496 -0.6271  0.1660
 1207TIP3   OH225111   1.517   2.066   2.019  0.0497  0.0260  0.3668
 1207TIP3    H125112   1.476   2.117   2.089  1.4004 -1.2814  2.2073
 1207TIP3    H225113   1.507   1.975   2.048 -1.0518 -0.7422 -2.1242
 1208TIP3   OH225114   6.200   2.880   0.769  0.0275 -0.0071 -0.6411
 1208TIP3    H125115   6.113   2.878   0.809  0.1961  2.1487 -0.0274
 1208TIP3    H225116   6.210   2.793   0.730 -1.4377 -1.1340  1.2746
 1209TIP3   OH225117   4.861   0.141  12.934  0.0436 -0.3901 -0.3603
 1209TIP3    H125118   4.827   0.230  12.945 -0.4362 -0.8200  2.0685
 1209TIP3    H225119   4.822   0.091  13.005  0.9626 -2.3633 -1.1835
 1210TIP3   OH225120   5.068   2.848   4.148  0.3311  0.0959  0.0807
 1210TIP3    H125121   5.075   2.912   4.077 -2.2860  1.5081  0.9558
 1210TIP3    H225122   5.103   2.768   4.111  0.0329  1.0420 -2.4671
 1211TIP3   OH225123   1.827   5.206  15.492  0.4701 -0.5118  0.0685
 1211TIP3    H125124   1.814   5.129  15.547 -1.2467 -0.6239 -0.4511
 1211TIP3    H225125   1.788   5.182  15.408  0.5283  0.6809 -0.3171
 1212TIP3   OH225126   6.236   0.537   0.713  0.2423  0.2744 -0.0150
 1212TIP3    H125127   6.172   0.514   0.779  0.1355 -1.8725 -0.8007
 1212TIP3    H225128   6.306   0.473   0.724 -0.2235 -0.7855 -2.5504
 1213TIP3   OH225129   5.043   0.192   1.357 -0.2526 -0.0460  0.7418
 1213TIP3    H125130   5.059   0.125   1.290  0.6653 -0.4222  1.3117
 1213TIP3    H225131   5.028   0.272   1.307  0.1646 -0.3702  0.0719
 1214TIP3   OH225132   0.331   6.733  10.761 -0.2761 -0.2057  0.4229
 1214TIP3    H125133   0.371   6.653  10.728 -0.4030 -0.0724 -0.0556
 1214TIP3    H225134   0.316   6.787  10.684  1.9901  1.3071  0.9388
 1215TIP3   OH225135   2.781   3.794  15.304 -0.3025  0.3897 -0.2444
 1215TIP3    H125136   2.735   3.792  15.220 -0.2429  0.1922 -0.2724
 1215TIP3    H225137   2.772   3.884  15.334 -0.7054  0.3536 -0.2527
 1216TIP3   OH225138   1.079   1.095  14.916 -0.2066 -0.1683  0.3840
 1216TIP3    H125139   1.006   1.054  14.963 -1.6688 -1.2352 -2.5491
 1216TIP3    H225140   1.150   1.032  14.923 -0.4608 -0.4073  0.9328
 1217TIP3   OH225141   2.185   4.893   3.456 -0.1376  0.6078 -0.2149
 1217TIP3    H125142   2.234   4.819   3.493 -0.3004 -0.1842 -1.4949
 1217TIP3    H225143   2.188   4.961   3.523 -1.3460 -1.1221  1.7141
 1218TIP3   OH225144   1.440   1.366   2.843  0.0719 -0.4707  0.7881
 1218TIP3    H125145   1.372   1.386   2.908  0.0798 -1.1281  1.0053
 1218TIP3    H225146   1.489   1.293   2.882  0.7232 -0.1862  0.5042
 1219TIP3   OH225147   5.727   0.493   3.835  0.2450 -0.2137 -0.1840
 1219TIP3    H125148   5.739   0.481   3.929 -1.3279  0.3358  0.1211
 1219TIP3    H225149   5.813   0.521   3.803  0.7846 -0.3311  1.0922
 1220TIP3   OH225150   5.368   3.812   4.426  0.3079  0.4616 -0.5843
 1220TIP3    H125151   5.344   3.800   4.334 -0.8193  1.0665 -0.3886
 1220TIP3    H225152   5.411   3.897   4.429  0.4457  0.3924 -0.5590
 1221TIP3   OH225153   4.216   4.067  15.886 -0.2510 -0.1396 -0.4326
 1221TIP3    H125154   4.147   4.044  15.948 -1.1325 -1.0954 -1.7205
 1221TIP3    H225155   4.170   4.110  15.814  0.2188 -2.2064 -2.0618
 1222TIP3   OH225156   4.172   3.151  13.870  0.0500 -0.3792  0.2641
 1222TIP3    H125157   4.080   3.161  13.895  0.1512 -1.3580  1.0648
 1222TIP3    H225158   4.173   3.074  13.813  0.7511 -2.1846  2.5765
 1223TIP3   OH225159   5.064   1.790  12.456 -0.1393 -0.0245  0.4960
 1223TIP3    H125160   5.085   1.736  12.532  1.0760 -0.6077 -0.2031
 1223TIP3    H225161   5.014   1.863  12.490  1.7077  0.5642  2.1156
 1224TIP3   OH225162   2.922   0.122   0.634 -0.2154  0.4931 -0.0599
 1224TIP3    H125163   2.829   0.140   0.645 -0.0935  0.2926  1.5538
 1224TIP3    H225164   2.947   0.072   0.712  1.2927  0.7591 -0.3307
 1225TIP3   OH225165   2.957   2.658   5.234 -0.2049  0.7733  0.6887
 1225TIP3    H125166   2.901   2.690   5.304 -1.4402 -0.8445  0.4919
 1225TIP3    H225167   2.898   2.639   5.162  0.1249 -3.2821  1.2752
 1226TIP3   OH225168   4.733   3.261   4.013  0.3626 -0.0488 -0.3666
 1226TIP3    H125169   4.676   3.249   4.088  0.6979  0.5153 -0.0132
 1226TIP3    H225170   4.720   3.352   3.987 -0.8643 -0.6248 -1.9267
 1227TIP3   OH225171   5.511   1.077  11.375  0.7963 -0.1918 -0.1941
 1227TIP3    H125172   5.523   1.124  11.293  1.2327  2.0719  1.0762
 1227TIP3    H225173   5.420   1.047  11.372 -0.8295  3.9459  0.3259
 1228TIP3   OH225174   1.122   4.061   2.859 -0.0918  0.4572 -0.4581
 1228TIP3    H125175   1.115   4.097   2.771  0.5955 -1.0338 -1.1619
 1228TIP3    H225176   1.199   4.004   2.856  0.4673  1.0311  1.3618
 1229TIP3   OH225177   0.055   2.386   5.338  0.6799 -0.4296 -0.6010
 1229TIP3    H125178   0.062   2.334   5.419  0.0197 -2.5372 -1.8062
 1229TIP3    H225179  -0.037   2.378   5.313  0.8831  0.1753 -1.5827
 1230TIP3   OH225180   2.100   3.213  11.672  0.4757 -0.1233  0.8184
 1230TIP3    H125181   2.013   3.192  11.638 -0.8101  4.1549  0.8760
 1230TIP3    H225182   2.159   3.152  11.626 -2.2304 -1.2526 -1.4440
 1231TIP3   OH225183   1.002   1.209   3.744  0.2443 -0.0471  0.0963
 1231TIP3    H125184   1.041   1.149   3.807  1.3632  0.7029  0.1579
 1231TIP3    H225185   0.917   1.232   3.781  1.8919  2.4764  2.8191
 1232TIP3   OH225186   1.220   5.445  11.774  0.5514  0.4444  0.0886
 1232TIP3    H125187   1.162   5.481  11.707  1.1563  1.7591  0.2420
 1232TIP3    H225188   1.307   5.478  11.751  1.0902 -0.7001  0.4191
 1233TIP3   OH225189   2.494   2.237  12.347 -0.1202 -0.1190  0.3225
 1233TIP3    H125190   2.490   2.201  12.436 -2.1319 -1.8046 -0.3588
 1233TIP3    H225191   2.474   2.330  12.358 -4.1942 -0.9005  1.4426
 1234TIP3   OH225192   5.269   4.522   5.007 -0.2834  0.1742 -0.3625
 1234TIP3    H125193   5.352   4.570   5.008  0.0248 -0.3398 -0.4778
 1234TIP3    H225194   5.258   4.492   5.098  1.3110 -2.4747 -0.9269
 1235TIP3   OH225195   1.060   1.993   0.337  0.0590  0.1638  0.2470
 1235TIP3    H125196   1.128   2.032   0.393 -0.0355  0.8894 -0.1357
 1235TIP3    H225197   1.018   2.068   0.295 -0.6440 -0.3134  0.0920
 1236TIP3   OH225198   5.626   0.490  15.119  0.0423  0.0533  0.0652
 1236TIP3    H125199   5.702   0.449  15.161 -0.2453  0.2264  0.7792
 1236TIP3    H225200   5.661   0.527  15.038  0.2417 -1.8713 -0.7703
 1237TIP3   OH225201   0.094   0.648  15.668 -0.3421 -1.1352  1.0834
 1237TIP3    H125202   0.137   0.733  15.677 -1.4182 -0.4959  0.5159
 1237TIP3    H225203   0.166   0.586  15.657  0.4438 -0.1550  0.4533
 1238TIP3   OH225204   3.406   4.899  12.584  0.2373  0.4605 -0.3140
 1238TIP3    H125205   3.456   4.842  12.526 -1.0289 -0.2505 -0.7477
 1238TIP3    H225206   3.377   4.841  12.655  2.4169  1.4669  1.5305
 1239TIP3   OH225207   0.514   0.963  11.595 -0.1948  0.1993  0.5455
 1239TIP3    H125208   0.568   0.891  11.626  0.2261  0.6305  0.8412
 1239TIP3    H225209   0.540   1.038  11.650 -1.0329  0.4348  0.6445
 1240TIP3   OH225210   2.833   3.514  12.407 -0.0633  0.7709  0.1497
 1240TIP3    H125211   2.834   3.450  12.479  0.5587  1.0232  0.3684
 1240TIP3    H225212   2.777   3.473  12.341 -0.8481  0.6482  0.8720
 1241TIP3   OH225213   5.097   2.880   1.765  0.7096  0.1167 -0.4757
 1241TIP3    H125214   5.080   2.963   1.809 -1.0560 -0.0322 -0.8024
 1241TIP3    H225215   5.018   2.862   1.714  0.8865 -1.9370 -0.1432
 1242TIP3   OH225216   1.236   2.278   4.929  0.1639 -0.0703  0.0590
 1242TIP3    H125217   1.159   2.322   4.893 -0.2163  0.2104  1.1665
 1242TIP3    H225218   1.253   2.324   5.011  2.1128  0.5097 -0.6148
 1243TIP3   OH225219   1.957   6.043  13.420  0.2993 -0.2297 -0.4785
 1243TIP3    H125220   1.890   5.975  13.433 -0.4723  0.2051 -1.9259
 1243TIP3    H225221   2.036   5.994  13.397  0.5567 -0.7598  1.3635
 1244TIP3   OH225222   4.995   1.010  10.648 -0.5844  0.2651 -0.3283
 1244TIP3    H125223   5.054   0.947  10.607 -1.5825 -0.7191 -0.3120
 1244TIP3    H225224   4.974   1.072  10.579  0.8309  0.9269 -0.2041
 1245TIP3   OH225225   2.013   1.958   5.102 -0.1152  0.3983  0.2182
 1245TIP3    H125226   1.986   1.871   5.133 -2.5808  0.8467 -0.5008
 1245TIP3    H225227   2.059   1.996   5.177  1.6448 -1.7264  0.3385
 1246TIP3   OH225228   0.363   3.494  15.365 -0.3802  0.4335  0.0057
 1246TIP3    H125229   0.385   3.557  15.433 -0.2801  0.1209  0.2650
 1246TIP3    H225230   0.438   3.495  15.306 -0.1402  0.1614  0.3035
 1247TIP3   OH225231   6.563   0.362  11.573 -0.3068 -0.3705  0.1398
 1247TIP3    H125232   6.526   0.277  11.551  1.2582 -1.4634  1.4682
 1247TIP3    H225233   6.655   0.355  11.548 -0.2211  1.0495 -0.0040
 1248TIP3   OH225234   1.659   5.298  13.086 -0.7243 -0.4678  0.7914
 1248TIP3    H125235   1.728   5.309  13.152 -1.4812  0.1222  1.5092
 1248TIP3    H225236   1.589   5.253  13.133 -1.0730 -0.5071  0.2386
 1249TIP3   OH225237   2.307   0.898  17.254  0.0542  0.3115  0.4811
 1249TIP3    H125238   2.215   0.876  17.266  0.0654  0.2049  0.3738
 1249TIP3    H225239   2.313   0.991  17.277 -0.4654  0.8613 -1.5000
 1250TIP3   OH225240   6.015   5.934  16.511  0.0718 -0.4425 -0.0031
 1250TIP3    H125241   6.074   5.870  16.472  2.0314  1.4242 -0.3222
 1250TIP3    H225242   6.031   5.928  16.605 -1.0680 -1.5939  0.1418
 1251TIP3   OH225243   6.209   6.811   6.285 -0.3693  0.0489  0.2485
 1251TIP3    H125244   6.230   6.824   6.377  2.4077 -1.5617 -0.0651
 1251TIP3    H225245   6.274   6.749   6.253 -0.7716  1.0736 -2.9916
 1252TIP3   OH225246   6.057   2.227   1.368 -0.5745  0.6455 -0.3120
 1252TIP3    H125247   6.037   2.245   1.276 -1.3167  0.4492 -0.1999
 1252TIP3    H225248   6.138   2.177   1.365 -1.2882 -0.5489 -0.9694
 1253TIP3   OH225249   4.947   1.937   0.416  0.1762 -0.3368  0.1855
 1253TIP3    H125250   5.037   1.959   0.441 -0.2564  1.2644  0.4664
 1253TIP3    H225251   4.923   1.866   0.475  1.5221 -1.3482 -0.4505
 1254TIP3   OH225252   0.575   6.689   0.366 -0.1697 -0.5191 -0.0155
 1254TIP3    H125253   0.642   6.706   0.300  0.7272 -2.7211  0.2519
 1254TIP3    H225254   0.617   6.709   0.449 -0.5194 -0.0406  0.0555
 1255TIP3   OH225255   1.033   4.857   1.849 -0.0404  0.0322  0.0832
 1255TIP3    H125256   1.050   4.815   1.765  2.1210  0.2394  0.3662
 1255TIP3    H225257   1.022   4.950   1.828 -1.0729 -0.1319 -0.1293
 1256TIP3   OH225258   0.820   5.911  11.378  0.0119 -0.0723 -0.4610
 1256TIP3    H125259   0.821   5.989  11.433  1.5315 -0.5936  0.3062
 1256TIP3    H225260   0.781   5.843  11.433 -0.3307 -0.1172 -0.7537
 1257TIP3   OH225261   3.103   3.762   5.751  0.2934 -0.2445  0.0128
 1257TIP3    H125262   3.054   3.724   5.824  0.3874  0.5860  0.5126
 1257TIP3    H225263   3.194   3.761   5.780  0.2027  1.1976  0.4225
 1258TIP3   OH225264   1.702   3.240  15.030 -0.0709 -0.4355  0.1330
 1258TIP3    H125265   1.627   3.214  14.977  0.6554  2.1208 -2.3879
 1258TIP3    H225266   1.674   3.319  15.076  0.6601 -0.1561  0.1217
 1259TIP3   OH225267   1.859   6.089   0.955 -0.1797 -0.0618 -0.2289
 1259TIP3    H125268   1.885   6.066   1.044  1.6526  0.9778 -0.4597
 1259TIP3    H225269   1.780   6.037   0.939 -1.8721  1.3589  2.7719
 1260TIP3   OH225270   0.810   5.808  16.977 -0.0824  0.6592  0.4935
 1260TIP3    H125271   0.727   5.836  16.939 -0.2936 -0.5736  0.0102
 1260TIP3    H225272   0.867   5.792  16.902  0.2467  0.4617  0.7826
 1261TIP3   OH225273   5.961   6.110   2.794  0.0415  0.7174 -0.0346
 1261TIP3    H125274   5.883   6.159   2.765 -0.1081  0.4574 -0.0777
 1261TIP3    H225275   6.027   6.128   2.728 -0.1274  0.5709 -0.2450
 1262TIP3   OH225276   2.561   6.812  12.059 -0.3047  1.0668 -0.1854
 1262TIP3    H125277   2.559   6.832  11.965  1.0198 -0.0304 -0.4714
 1262TIP3    H225278   2.566   6.716  12.063  1.7961  1.1748  0.9352
 1263TIP3   OH225279   0.102   3.741  15.621 -0.4463 -0.3255  0.2755
 1263TIP3    H125280   0.037   3.706  15.560  0.1192 -1.2824  0.2025
 1263TIP3    H225281   0.091   3.689  15.701  0.1180 -0.3924  0.3168
 1264TIP3   OH225282   0.801   3.817   4.021  0.2803 -0.4684 -0.0290
 1264TIP3    H125283   0.775   3.728   3.997 -0.8074 -0.7370  1.9805
 1264TIP3    H225284   0.751   3.873   3.962  0.1437 -1.1484 -0.5782
 1265TIP3   OH225285   5.107   1.103  13.121 -0.2783 -0.2476  0.3761
 1265TIP3    H125286   5.168   1.031  13.108  0.3975  0.4682 -0.6443
 1265TIP3    H225287   5.138   1.148  13.199 -0.0455 -0.4226  0.3855
 1266TIP3   OH225288   2.266   5.888   4.525 -0.7872 -0.1112  0.3171
 1266TIP3    H125289   2.206   5.906   4.598 -0.8242  2.0068 -0.1754
 1266TIP3    H225290   2.306   5.804   4.548 -1.2417  0.1988  2.4881
 1267TIP3   OH225291   3.517   2.333   3.468 -0.6142 -0.3657  0.6469
 1267TIP3    H125292   3.540   2.326   3.560  0.1581  1.2495  0.6163
 1267TIP3    H225293   3.547   2.421   3.442  0.8755 -1.4405 -1.5927
 1268TIP3   OH225294   3.336   4.384   5.284 -0.3790 -0.4807  0.4470
 1268TIP3    H125295   3.248   4.394   5.247  0.2854 -0.0504 -1.1229
 1268TIP3    H225296   3.336   4.440   5.362 -0.5474  2.1874 -1.3367
 1269TIP3   OH225297   5.184   5.000   5.246 -0.7734 -0.1942 -0.0278
 1269TIP3    H125298   5.173   4.913   5.207  0.7280  0.0457 -1.0259
 1269TIP3    H225299   5.157   4.988   5.338 -3.4357 -0.9914 -0.8048
 1270TIP3   OH225300   1.440   6.043   4.266 -0.4349  0.1618  0.5061
 1270TIP3    H125301   1.518   6.085   4.230 -0.4023 -1.1045 -1.0331
 1270TIP3    H225302   1.445   6.059   4.361  0.6314  1.7804  0.2053
 1271TIP3   OH225303   2.405   2.663  14.422 -0.0352  0.3530 -0.6004
 1271TIP3    H125304   2.439   2.750  14.445 -2.0199  1.3080 -1.0833
 1271TIP3    H225305   2.455   2.638  14.344  3.3993 -0.8255  1.7586
 1272TIP3   OH225306   4.454   2.663  12.830 -0.4111  0.0470  0.7991
 1272TIP3    H125307   4.374   2.669  12.779 -1.6236  0.6130  2.6812
 1272TIP3    H225308   4.524   2.684  12.768 -1.9073  1.9216 -0.3449
 1273TIP3   OH225309   0.036   2.946  15.645 -0.1551 -0.0084  0.1537
 1273TIP3    H125310   0.040   2.983  15.733  3.2210 -0.2214  0.2548
 1273TIP3    H225311   0.023   2.852  15.659  1.8849 -0.2759  0.6288
 1274TIP3   OH225312   0.961   6.682   1.989  0.0977  0.2467  0.2827
 1274TIP3    H125313   1.035   6.666   2.048 -0.5522 -0.1799  1.0205
 1274TIP3    H225314   0.951   6.600   1.940 -0.1686  0.1306  0.5244
 1275TIP3   OH225315   3.747   2.098   5.899  0.6597  0.0597  0.6124
 1275TIP3    H125316   3.692   2.099   5.821  0.8213  2.0498  0.4560
 1275TIP3    H225317   3.692   2.061   5.967  0.1511 -0.7008 -0.1822
 1276TIP3   OH225318   4.982   1.300   4.436 -0.1177  0.6207  0.2495
 1276TIP3    H125319   5.064   1.261   4.406 -0.2258  1.2498 -0.9337
 1276TIP3    H225320   4.924   1.226   4.454  0.7507  0.1634  1.2831
 1277TIP3   OH225321   3.312   1.024  13.290 -0.1343 -0.3777  0.0089
 1277TIP3    H125322   3.258   0.983  13.222 -0.1338  0.2302 -0.3694
 1277TIP3    H225323   3.261   1.017  13.370 -0.7489  0.1303 -0.3305
 1278TIP3   OH225324   6.441   5.526  16.752  0.3772 -0.2201 -0.3863
 1278TIP3    H125325   6.374   5.460  16.764 -0.1093  0.5348  1.2499
 1278TIP3    H225326   6.520   5.477  16.728  0.0159 -1.3756  0.7385
 1279TIP3   OH225327   4.531   1.606  12.105 -0.0121 -0.3328  0.0061
 1279TIP3    H125328   4.619   1.614  12.069  0.4796  1.6030  1.4756
 1279TIP3    H225329   4.537   1.645  12.192 -2.6974  1.5318 -0.5087
 1280TIP3   OH225330   2.095   5.732   4.178  0.0465 -0.5102  0.2016
 1280TIP3    H125331   2.023   5.715   4.117 -0.4229  0.6926  0.3865
 1280TIP3    H225332   2.173   5.699   4.134  0.0064  1.8962 -1.8701
 1281TIP3   OH225333   1.046   5.978   4.995  0.1786 -0.0800  0.0197
 1281TIP3    H125334   0.979   5.984   5.063 -0.5930  0.4736 -0.7686
 1281TIP3    H225335   1.036   5.890   4.958 -0.4851  0.1896 -0.4566
 1282TIP3   OH225336   6.372   0.723   3.383 -0.2725 -0.0085  0.1364
 1282TIP3    H125337   6.360   0.645   3.329  0.3213  1.3444 -2.0723
 1282TIP3    H225338   6.466   0.726   3.400 -0.1927  0.5933 -0.3936
 1283TIP3   OH225339   6.483   1.688   2.135  0.0449  0.2171 -0.4257
 1283TIP3    H125340   6.424   1.763   2.148  1.1367  1.2563 -1.2483
 1283TIP3    H225341   6.543   1.717   2.067  0.5273 -1.4175 -0.7294
 1284TIP3   OH225342   6.824   5.546   3.949 -0.5045  0.0765 -0.4640
 1284TIP3    H125343   6.860   5.463   3.980  0.6739  1.4368  2.1714
 1284TIP3    H225344   6.798   5.529   3.859  0.2146 -2.9718 -0.2025
 1285TIP3   OH225345   0.496   5.408  14.371 -0.3959 -0.8747 -0.7722
 1285TIP3    H125346   0.405   5.412  14.339 -0.5281  3.1994 -0.3363
 1285TIP3    H225347   0.490   5.358  14.452 -2.0298 -1.6390 -1.3129
 1286TIP3   OH225348   3.291   4.084  16.037 -0.4869 -0.0140 -0.5444
 1286TIP3    H125349   3.265   4.073  15.945 -3.5463 -0.7239  0.2973
 1286TIP3    H225350   3.249   4.166  16.064 -0.4695 -0.3315  0.4746
 1287TIP3   OH225351   5.559   2.641   4.915  0.3805 -0.3511 -0.0702
 1287TIP3    H125352   5.570   2.601   5.001 -0.7369  1.6614  1.1007
 1287TIP3    H225353   5.466   2.629   4.895  0.6315 -0.7956 -1.0001
 1288TIP3   OH225354   5.855   4.232  10.801  0.6703  0.1869  0.2266
 1288TIP3    H125355   5.766   4.210  10.829 -0.3431 -2.7731 -4.2409
 1288TIP3    H225356   5.843   4.299  10.734  2.0518  0.9624  0.7126
 1289TIP3   OH225357   5.743   6.010  12.808 -0.1410 -0.2656  0.1798
 1289TIP3    H125358   5.682   6.083  12.800 -0.0652 -0.0422  1.4398
 1289TIP3    H225359   5.777   5.998  12.719 -1.5467 -0.0021 -0.4188
 1290TIP3   OH225360   0.429   5.517   4.405  0.3866  0.7471 -0.9021
 1290TIP3    H125361   0.497   5.566   4.451  1.1247 -0.6356 -0.4634
 1290TIP3    H225362   0.445   5.535   4.312  2.4220 -0.7970 -0.9310
 1291TIP3   OH225363   6.585   0.044  15.431 -0.3989 -0.0426  0.5368
 1291TIP3    H125364   6.602   0.132  15.397 -1.3334 -0.2900 -0.6852
 1291TIP3    H225365   6.591  -0.012  15.354 -1.0959 -0.8608  1.0587
 1292TIP3   OH225366   5.408   0.982   4.514  0.1895 -0.2473  0.1471
 1292TIP3    H125367   5.489   0.930   4.510  0.7166  0.2737  2.5466
 1292TIP3    H225368   5.420   1.051   4.449  0.9110 -1.1661 -0.7273
 1293TIP3   OH225369   1.563   6.305   2.470 -0.2149  0.0859 -0.4177
 1293TIP3    H125370   1.599   6.336   2.387 -1.1530 -0.3173 -0.9836
 1293TIP3    H225371   1.529   6.218   2.451 -1.4471  0.4297  0.1078
 1294TIP3   OH225372   5.265   1.954  13.788 -0.2716  0.0950 -0.3300
 1294TIP3    H125373   5.257   1.874  13.840  2.4968 -0.7476 -1.0706
 1294TIP3    H225374   5.281   2.023  13.853  2.5963 -0.8588  0.1061
 1295TIP3   OH225375   1.958   0.567  15.524 -0.2409 -0.0093  0.2273
 1295TIP3    H125376   1.952   0.602  15.435 -0.8990 -1.7681 -0.4736
 1295TIP3    H225377   1.978   0.642  15.578  0.1803  1.1171 -1.4119
 1296TIP3   OH225378   2.987   2.945   0.711  0.5768  0.4015  0.3445
 1296TIP3    H125379   2.964   3.020   0.657 -0.5342 -0.1280  0.0671
 1296TIP3    H225380   3.078   2.961   0.736  0.6753  1.3301 -0.5471
 1297TIP3   OH225381   2.666   3.997   2.462 -0.3736 -0.3466  0.3139
 1297TIP3    H125382   2.603   3.969   2.396 -0.9674 -3.0758  1.8846
 1297TIP3    H225383   2.635   3.957   2.543  2.4327 -0.3192  1.4973
 1298TIP3   OH225384   1.137   4.959  15.377 -0.3077 -0.2160  0.6788
 1298TIP3    H125385   1.148   4.864  15.377  1.3194 -0.0585  0.4088
 1298TIP3    H225386   1.121   4.982  15.285  2.6099  0.0341  0.1256
 1299TIP3   OH225387   5.948   3.004  15.693 -0.8166  0.4486  0.2145
 1299TIP3    H125388   5.885   3.033  15.627  1.5220  1.7296 -1.5924
 1299TIP3    H225389   5.981   2.921  15.660  0.6203  1.2631 -0.4805
 1300TIP3   OH225390   6.517   0.484  15.480  0.3542  0.0281 -0.1311
 1300TIP3    H125391   6.581   0.555  15.469  1.2373 -0.7140  0.0325
 1300TIP3    H225392   6.451   0.520  15.539  0.6563  0.8015 -0.2533
 1301TIP3   OH225393   1.589   5.916  16.491 -0.0957 -0.4875  0.2379
 1301TIP3    H125394   1.625   5.887  16.576 -1.1365 -1.0955  0.4846
 1301TIP3    H225395   1.513   5.859  16.477 -1.0302  0.8350 -0.2164
 1302TIP3   OH225396   4.179   4.099  11.857  0.1901 -0.5776  0.0880
 1302TIP3    H125397   4.133   4.129  11.779  1.7785 -0.2612 -0.7528
 1302TIP3    H225398   4.162   4.005  11.860  1.2410 -0.8529 -1.4468
 1303TIP3   OH225399   3.478   1.980  10.747 -0.1337  0.1790 -0.5202
 1303TIP3    H125400   3.407   1.997  10.809  0.6935 -0.4953  0.6599
 1303TIP3    H225401   3.491   1.885  10.751  0.7664  0.2784 -0.7721
 1304TIP3   OH225402   5.697   2.037  11.181 -0.8108  0.2562  0.5542
 1304TIP3    H125403   5.719   2.110  11.124  1.8584 -0.1457  0.9387
 1304TIP3    H225404   5.731   2.062  11.267 -0.0359 -1.2855  0.7464
 1305TIP3   OH225405   2.778   1.280   5.752 -0.5739 -0.1680 -0.2330
 1305TIP3    H125406   2.853   1.222   5.762 -1.6822 -1.4865  0.9046
 1305TIP3    H225407   2.718   1.232   5.695 -1.0218  0.3623 -0.2126
 1306TIP3   OH225408   5.582   4.190  15.509 -0.8429  0.1735 -0.5046
 1306TIP3    H125409   5.607   4.124  15.444 -0.2183 -0.1895  0.0896
 1306TIP3    H225410   5.499   4.225  15.476 -2.3078 -2.3574  0.1716
 1307TIP3   OH225411   0.058   2.902   0.405  0.4244 -0.6113  0.4580
 1307TIP3    H125412   0.018   2.845   0.338 -0.0826  0.0863  0.1564
 1307TIP3    H225413  -0.016   2.940   0.452  0.6755  1.0813 -0.4249
 1308TIP3   OH225414   0.257   4.917  17.147  0.2892 -0.4554  0.3654
 1308TIP3    H125415   0.295   4.834  17.175 -1.4114 -0.5868  2.5917
 1308TIP3    H225416   0.199   4.893  17.074  2.1254 -0.6826 -1.0786
 1309TIP3   OH225417   1.979   6.084  16.055  0.1216  0.0399 -0.4491
 1309TIP3    H125418   1.935   6.165  16.081 -0.4327 -0.1605 -0.7575
 1309TIP3    H225419   2.037   6.064  16.129 -2.4869 -1.3232  1.3835
 1310TIP3   OH225420   4.210   2.497   5.700  0.2444  0.6454 -0.4048
 1310TIP3    H125421   4.167   2.564   5.647 -0.9727 -0.8536 -1.3612
 1310TIP3    H225422   4.300   2.495   5.668 -0.3354  0.1431 -2.0889
 1311TIP3   OH225423   0.300   2.350  14.830 -0.3393  0.7062  0.1762
 1311TIP3    H125424   0.387   2.361  14.868  0.0389 -1.8738  0.2430
 1311TIP3    H225425   0.300   2.406  14.752  1.0979  1.2822  0.5561
 1312TIP3   OH225426   5.923   0.160   1.407  0.6203  0.2754 -0.3681
 1312TIP3    H125427   5.909   0.068   1.387  1.0702  0.0972  0.0980
 1312TIP3    H225428   6.018   0.172   1.396  0.5589  0.6921 -0.4636
 1313TIP3   OH225429   4.629   2.313   0.454  0.1129  0.1718 -0.6411
 1313TIP3    H125430   4.646   2.224   0.485 -0.2636  0.2628 -0.1671
 1313TIP3    H225431   4.535   2.324   0.464  0.2726  0.9194  0.0954
 1314TIP3   OH225432   1.210   4.579   1.476 -0.5442 -0.1739  0.4525
 1314TIP3    H125433   1.269   4.542   1.542  1.2482  0.4098 -0.7362
 1314TIP3    H225434   1.171   4.655   1.520  0.9934  0.4989  0.7473
 1315TIP3   OH225435   0.928   1.678   3.512  0.3158 -0.2460 -0.9610
 1315TIP3    H125436   1.023   1.686   3.525  0.9593 -2.8687 -3.1154
 1315TIP3    H225437   0.893   1.765   3.534  2.9598  0.3555  1.4713
 1316TIP3   OH225438   6.555   4.716  16.834  0.3119  0.5298  0.0679
 1316TIP3    H125439   6.611   4.793  16.832 -1.4668  1.8872 -1.7238
 1316TIP3    H225440   6.513   4.719  16.920  0.4849  1.3812  0.1338
 1317TIP3   OH225441   1.074   3.311  11.283  0.2570  0.2544 -0.1281
 1317TIP3    H125442   1.007   3.315  11.214 -0.0823 -1.3407  0.0814
 1317TIP3    H225443   1.034   3.355  11.358 -1.3610 -2.2714  0.5998
 1318TIP3   OH225444   1.308   1.170   0.639 -0.5060  0.4847 -0.7762
 1318TIP3    H125445   1.302   1.265   0.654  1.4630  0.8760 -2.1177
 1318TIP3    H225446   1.221   1.146   0.606 -0.9648  1.8626 -0.6579
 1319TIP3   OH225447   0.766   4.092   3.628 -0.1068  0.3340  0.2068
 1319TIP3    H125448   0.748   4.025   3.694  0.8286 -0.2124 -0.0686
 1319TIP3    H225449   0.859   4.079   3.606 -0.2558  0.8849 -0.7810
 1320TIP3   OH225450   0.714   2.169   2.394  0.2562 -0.2627  0.3091
 1320TIP3    H125451   0.782   2.172   2.462  2.7774  0.9332 -2.0472
 1320TIP3    H225452   0.762   2.152   2.313 -2.4696 -0.6100 -1.3596
 1321TIP3   OH225453   3.993   1.738   1.405  0.0652 -0.0315  0.3486
 1321TIP3    H125454   4.040   1.787   1.337 -2.9217  1.5515 -0.7966
 1321TIP3    H225455   3.906   1.779   1.407 -1.7938 -3.6148  1.2282
 1322TIP3   OH225456   3.512   4.803  13.931  0.1037  0.5243 -0.2082
 1322TIP3    H125457   3.517   4.707  13.933  0.7067  0.5554 -0.0709
 1322TIP3    H225458   3.516   4.830  14.022 -0.1657  0.6821 -0.2404
 1323TIP3   OH225459   4.916   4.893  13.787 -0.3793 -0.1874 -0.0892
 1323TIP3    H125460   4.898   4.959  13.720  0.3547  0.2292  0.1205
 1323TIP3    H225461   5.010   4.876  13.780 -0.5040 -0.9886  0.0701
 1324TIP3   OH225462   0.534   2.701   2.919 -0.7390 -0.2268 -0.3948
 1324TIP3    H125463   0.512   2.793   2.901  0.2223  0.5855  2.1149
 1324TIP3    H225464   0.451   2.660   2.941 -0.9716  0.5473  0.2583
 1325TIP3   OH225465   1.455   6.339   2.803 -0.0379  0.4261  0.7085
 1325TIP3    H125466   1.432   6.246   2.797  2.5365 -0.2648  0.3545
 1325TIP3    H225467   1.386   6.384   2.755  0.1195 -1.5993 -1.6288
 1326TIP3   OH225468   6.641   4.756  14.426 -0.5967 -0.1296 -0.3891
 1326TIP3    H125469   6.560   4.807  14.438  0.0579  1.0436 -0.7671
 1326TIP3    H225470   6.705   4.820  14.395 -0.5828 -1.7273 -4.2716
 1327TIP3   OH225471   6.301   1.401   1.726  0.1292  0.3870  0.0043
 1327TIP3    H125472   6.273   1.425   1.814 -0.4962 -0.4273  0.0457
 1327TIP3    H225473   6.235   1.439   1.668  1.4850  2.4345 -0.2816
 1328TIP3   OH225474   2.194   4.140  17.020 -0.1566  0.6668 -0.1898
 1328TIP3    H125475   2.267   4.077  17.024 -1.1443 -0.5001  0.1256
 1328TIP3    H225476   2.214   4.205  17.087  0.0571 -0.2482  0.6559
 1329TIP3   OH225477   1.444   5.133  16.876  0.4986  0.2072 -0.5937
 1329TIP3    H125478   1.385   5.193  16.831  0.0073 -0.6803 -1.1459
 1329TIP3    H225479   1.426   5.148  16.969  0.0831  0.6032 -0.7339
 1330TIP3   OH225480   1.978   1.010   1.780 -0.3360  0.1638  0.7074
 1330TIP3    H125481   1.950   1.056   1.700  1.6041 -1.6182 -1.1183
 1330TIP3    H225482   1.954   0.919   1.764  0.6945 -0.3307  1.8849
 1331TIP3   OH225483   4.594   1.984  14.755  0.0243  0.2296  0.1393
 1331TIP3    H125484   4.564   1.950  14.840  0.1062  0.3711  0.2249
 1331TIP3    H225485   4.562   2.074  14.752 -0.6041 -0.0052 -0.2971
 1332TIP3   OH225486   1.845   1.842   3.329 -0.7769  0.9248  0.1930
 1332TIP3    H125487   1.769   1.785   3.321  0.8693 -1.1365 -2.5013
 1332TIP3    H225488   1.831   1.910   3.263  0.1591 -0.1183 -1.1302
 1333TIP3   OH225489   0.915   0.658   0.337 -0.2514  0.5568  0.0291
 1333TIP3    H125490   0.858   0.724   0.375  1.0584  1.7834 -0.0736
 1333TIP3    H225491   0.864   0.577   0.342 -1.3925  1.3116  1.3263
 1334TIP3   OH225492   3.077   2.214   1.940 -0.0917 -0.2818 -0.4563
 1334TIP3    H125493   3.089   2.239   2.032 -0.5909 -0.5177 -0.3250
 1334TIP3    H225494   3.027   2.286   1.902  1.7127  0.7466 -1.0284
 1335TIP3   OH225495   4.322   3.297   2.067 -0.3788  0.6978  0.3409
 1335TIP3    H125496   4.358   3.312   2.155  0.8273 -1.1678  0.2113
 1335TIP3    H225497   4.320   3.385   2.027  1.4654  1.2572  1.3543
 1336TIP3   OH225498   0.828   6.150  12.016 -0.4623  0.7519  0.2180
 1336TIP3    H125499   0.748   6.098  12.016  0.7405 -1.4082 -2.3229
 1336TIP3    H225500   0.868   6.132  12.101 -0.7254 -1.5860 -0.0812
 1337TIP3   OH225501   5.428   4.297   1.067 -0.2636  0.0817  0.7114
 1337TIP3    H125502   5.452   4.362   1.001  2.2003 -0.7574  0.6820
 1337TIP3    H225503   5.345   4.329   1.103 -0.4518  1.8259 -1.0941
 1338TIP3   OH225504   1.410   6.006  15.608 -0.2718  0.0918  0.4887
 1338TIP3    H125505   1.356   6.049  15.674 -0.8367 -1.7086  1.2848
 1338TIP3    H225506   1.365   5.922  15.592  1.5996 -0.9178  0.2213
 1339TIP3   OH225507   5.698   6.062   0.905 -0.0493  0.0197  0.0298
 1339TIP3    H125508   5.758   5.996   0.940  1.6851  0.8976 -1.1317
 1339TIP3    H225509   5.714   6.061   0.811  0.9583  2.8704  0.0594
 1340TIP3   OH225510   1.465   2.057   1.758 -0.0452  0.4870 -1.1133
 1340TIP3    H125511   1.500   2.079   1.845 -0.0379 -1.9520 -0.4174
 1340TIP3    H225512   1.504   1.972   1.738 -0.9166  0.4940 -3.0474
 1341TIP3   OH225513   3.295   4.833  11.954  0.5831 -0.3382  0.2891
 1341TIP3    H125514   3.388   4.856  11.961  0.2608  1.3571 -0.4849
 1341TIP3    H225515   3.273   4.850  11.863  0.0728 -3.1703 -0.2009
 1342TIP3   OH225516   0.254   6.265   0.926 -0.0085 -0.2171  0.2615
 1342TIP3    H125517   0.328   6.218   0.963 -2.4004 -4.7116 -0.0608
 1342TIP3    H225518   0.248   6.234   0.836 -1.1315  1.6974 -0.3920
 1343TIP3   OH225519   3.657   1.933   3.032  0.7793 -0.7481  0.1327
 1343TIP3    H125520   3.736   1.880   3.028  1.6003  0.2302  1.9589
 1343TIP3    H225521   3.666   1.995   2.959  0.8259 -1.7378 -0.7246
 1344TIP3   OH225522   4.557   3.172  10.866  0.2938 -0.1903  0.4981
 1344TIP3    H125523   4.490   3.239  10.877 -0.1891 -0.4881 -0.5001
 1344TIP3    H225524   4.536   3.106  10.932  0.2602  0.2316  0.9141
 1345TIP3   OH225525   1.788   0.159  16.483  0.2837 -0.1832 -0.3174
 1345TIP3    H125526   1.741   0.166  16.400 -1.2238  2.3354  0.6593
 1345TIP3    H225527   1.842   0.237  16.487  0.8236 -0.5897  0.8016
 1346TIP3   OH225528   3.960   6.684  14.836  0.2903 -0.1896 -0.1979
 1346TIP3    H125529   4.005   6.732  14.766 -0.0266  0.3635 -0.0235
 1346TIP3    H225530   3.956   6.593  14.804 -0.2984  0.1497 -1.1177
 1347TIP3   OH225531   5.569   0.805   1.817  0.6376  0.2819 -0.2760
 1347TIP3    H125532   5.507   0.877   1.806 -0.8960 -1.2675 -2.5866
 1347TIP3    H225533   5.614   0.825   1.899 -0.2419  3.4390 -0.4312
 1348TIP3   OH225534   2.411   3.582  13.796 -0.5780 -0.7291  0.1456
 1348TIP3    H125535   2.495   3.564  13.839 -0.3392 -1.6754 -0.6728
 1348TIP3    H225536   2.435   3.612  13.709 -1.0204  2.2147  0.9244
 1349TIP3   OH225537   6.788   5.373   3.105  0.4286  0.5563 -0.1293
 1349TIP3    H125538   6.801   5.344   3.015 -0.9918 -0.7797  0.0515
 1349TIP3    H225539   6.853   5.325   3.156 -0.2583 -0.4377 -0.1679
 1350TIP3   OH225540   3.158   2.546   5.546  0.0680 -0.5942  0.2333
 1350TIP3    H125541   3.134   2.517   5.633 -1.0243 -1.3841 -0.3083
 1350TIP3    H225542   3.110   2.628   5.533 -2.9977 -2.4006 -1.0291
 1351TIP3   OH225543   5.843   5.315   4.707  0.0238 -0.1600  0.0213
 1351TIP3    H125544   5.862   5.282   4.794 -0.0830 -0.1269  0.0577
 1351TIP3    H225545   5.923   5.298   4.656  0.6558  1.2318  0.5243
 1352TIP3   OH225546   5.649   4.683   0.188  0.0416 -0.4410 -0.3301
 1352TIP3    H125547   5.556   4.705   0.194  0.0257  0.0538 -1.9781
 1352TIP3    H225548   5.664   4.623   0.261 -1.5881 -0.5937 -0.0842
 1353TIP3   OH225549   3.488   2.485   2.605  0.0036 -0.3895 -0.3643
 1353TIP3    H125550   3.562   2.430   2.580 -0.0736 -1.2842  1.1972
 1353TIP3    H225551   3.492   2.487   2.701  0.4403  3.0137 -0.3566
 1354TIP3   OH225552   0.215   0.912  17.180  0.4341 -0.0247 -0.5965
 1354TIP3    H125553   0.167   0.932  17.261  0.5991 -1.8449 -0.0141
 1354TIP3    H225554   0.189   0.982  17.119 -1.8812 -0.1547  0.1419
 1355TIP3   OH225555   1.155   2.891  13.395  0.3050 -0.1051  0.3386
 1355TIP3    H125556   1.211   2.955  13.438 -0.1480  0.2911  0.3525
 1355TIP3    H225557   1.214   2.822  13.366  0.8776  0.5691 -0.1379
 1356TIP3   OH225558   0.105   1.916  12.343  0.0154  0.3992 -0.1266
 1356TIP3    H125559   0.021   1.962  12.338  0.1609  0.5401 -1.6707
 1356TIP3    H225560   0.153   1.962  12.412 -1.0224  0.5524  0.5147
 1357TIP3   OH225561   5.396   6.191   1.237 -0.0702 -0.2134  0.0599
 1357TIP3    H125562   5.354   6.161   1.318 -1.0809 -0.5058 -0.5618
 1357TIP3    H225563   5.478   6.231   1.267 -0.6255  0.0820  1.2794
 1358TIP3   OH225564   1.255   0.765  12.816  0.1348 -0.7053 -0.1512
 1358TIP3    H125565   1.317   0.707  12.861 -0.6175 -1.4263 -0.0287
 1358TIP3    H225566   1.178   0.710  12.801 -0.8519  0.4600  0.5681
 1359TIP3   OH225567   1.599   0.279   0.225 -0.2436  0.1417  0.0160
 1359TIP3    H125568   1.590   0.202   0.170 -0.7523 -0.7263  1.2656
 1359TIP3    H225569   1.632   0.245   0.308 -1.1711  1.1652  0.8341
 1360TIP3   OH225570   6.588   2.190  16.507  0.3192  0.2875 -0.1045
 1360TIP3    H125571   6.536   2.251  16.455 -0.3757 -0.2815 -0.0891
 1360TIP3    H225572   6.599   2.234  16.592 -0.1035  0.4281 -0.1222
 1361TIP3   OH225573   5.596   5.572   2.634  0.2266 -0.2091 -0.2385
 1361TIP3    H125574   5.650   5.548   2.709 -1.8786  1.7398  2.0877
 1361TIP3    H225575   5.635   5.526   2.560  2.7018 -1.8793  1.9432
 1362TIP3   OH225576   5.976   4.421  13.564  0.5593  0.0498  0.0562
 1362TIP3    H125577   5.891   4.419  13.519  1.3117  0.9141 -1.5106
 1362TIP3    H225578   6.029   4.355  13.518  1.0406  0.2213  0.3588
 1363TIP3   OH225579   0.448   2.580  12.162  0.1790  0.4457 -0.5111
 1363TIP3    H125580   0.454   2.550  12.253 -0.5134  0.2828 -0.5137
 1363TIP3    H225581   0.382   2.524  12.122 -0.0389  0.9895 -0.9264
 1364TIP3   OH225582   2.282   3.424  14.146 -0.2263  0.7513  0.2013
 1364TIP3    H125583   2.188   3.432  14.129 -0.3548 -1.2997 -0.3984
 1364TIP3    H225584   2.309   3.349  14.093  1.7573  1.2614  0.4047
 1365TIP3   OH225585   4.339   1.242   0.477  0.6163 -0.5474  0.0200
 1365TIP3    H125586   4.324   1.335   0.463 -1.9920 -1.1029 -1.5086
 1365TIP3    H225587   4.413   1.220   0.421  0.5291  0.3853 -0.4705
 1366TIP3   OH225588   1.674   1.638   5.314 -0.2913  0.5773 -0.4297
 1366TIP3    H125589   1.671   1.547   5.286  1.2756 -0.2038  1.7062
 1366TIP3    H225590   1.590   1.674   5.287 -1.2315 -1.6710 -0.7294
 1367TIP3   OH225591   5.068   4.923   1.870 -0.5649  0.5883 -0.5745
 1367TIP3    H125592   5.096   4.863   1.939 -0.7823  1.0794 -0.0470
 1367TIP3    H225593   5.001   4.874   1.822 -0.1397  0.1032 -0.6721
 1368TIP3   OH225594   4.768   1.310   0.481  0.3963 -0.0519 -0.2450
 1368TIP3    H125595   4.847   1.257   0.469 -1.2469 -2.5333 -0.8060
 1368TIP3    H225596   4.708   1.280   0.413 -2.6425 -1.5126  2.7711
 1369TIP3   OH225597   3.869   1.928   0.637  0.0262 -0.3973  0.2879
 1369TIP3    H125598   3.845   1.868   0.567 -0.7093  1.4561 -1.1242
 1369TIP3    H225599   3.949   1.971   0.607 -1.9589  2.7463 -1.0967
 1370TIP3   OH225600   1.660   6.715   2.650 -0.0909 -0.2378  0.0485
 1370TIP3    H125601   1.654   6.810   2.636  0.4801  0.2041  2.4185
 1370TIP3    H225602   1.750   6.693   2.627 -0.5016 -0.4205 -1.4718
 1371TIP3   OH225603   4.551   2.035  12.095  0.5900  0.1464 -0.1966
 1371TIP3    H125604   4.514   2.006  12.178 -0.3468  2.4150  0.2418
 1371TIP3    H225605   4.505   1.984  12.029  1.6703 -2.0317  0.6075
 1372TIP3   OH225606   1.545   0.516  15.951 -0.1102 -0.1120 -0.0221
 1372TIP3    H125607   1.604   0.527  15.877 -0.4430 -1.3089 -0.4925
 1372TIP3    H225608   1.505   0.602  15.963  1.3124  0.5839 -0.0262
 1373TIP3   OH225609   2.762   1.714   2.624  0.2446 -0.3001 -0.6520
 1373TIP3    H125610   2.776   1.699   2.718 -0.6640  1.5917 -0.1524
 1373TIP3    H225611   2.697   1.648   2.599 -0.8151  0.2408  0.5135
 1374TIP3   OH225612   4.840   6.342   2.395  0.3079  0.2057  0.0780
 1374TIP3    H125613   4.781   6.317   2.466  1.8365  0.3772  1.4929
 1374TIP3    H225614   4.880   6.260   2.367 -1.4500 -0.0961 -1.7675
 1375TIP3   OH225615   5.285   1.871   6.454 -0.2913  0.0901 -0.1450
 1375TIP3    H125616   5.325   1.792   6.490  1.8431  0.6306 -1.1601
 1375TIP3    H225617   5.327   1.883   6.369 -0.6785  2.2181 -0.0990
 1376TIP3   OH225618   0.880   0.942  13.945  0.5140  0.1509 -0.1126
 1376TIP3    H125619   0.974   0.939  13.966  0.3197 -1.7194  0.7369
 1376TIP3    H225620   0.877   0.974  13.855  2.1588 -1.7523 -0.9223
 1377TIP3   OH225621   3.787   4.260   5.728  0.4926  0.3585 -0.1153
 1377TIP3    H125622   3.879   4.287   5.723  0.3608  0.9106  0.3373
 1377TIP3    H225623   3.791   4.165   5.726  1.1271  0.3551  0.5575
 1378TIP3   OH225624   1.165   3.178   5.833 -0.3427  0.0168  0.1856
 1378TIP3    H125625   1.124   3.197   5.749  0.5164 -1.7032 -0.6833
 1378TIP3    H225626   1.092   3.168   5.895 -1.3151 -2.5618 -1.2153
 1379TIP3   OH225627   3.534   6.391  12.545 -0.2946 -0.5235  0.5969
 1379TIP3    H125628   3.556   6.299  12.540 -1.5360 -0.7848 -0.5204
 1379TIP3    H225629   3.605   6.430  12.596  1.3645 -1.7164 -0.7297
 1380TIP3   OH225630   0.466   0.218   5.177  0.0950  0.1164 -0.7544
 1380TIP3    H125631   0.538   0.174   5.223  0.2225  0.5211 -0.5664
 1380TIP3    H225632   0.507   0.255   5.099  0.3106  1.2426 -0.1238
 1381TIP3   OH225633   1.144   4.512   4.151 -0.3479  0.4791 -0.0861
 1381TIP3    H125634   1.058   4.480   4.179 -0.1153 -0.6421 -0.5925
 1381TIP3    H225635   1.154   4.477   4.062  0.0391  1.7840 -0.5716
 1382TIP3   OH225636   2.221   4.023   4.138 -0.1763 -0.2892 -0.3176
 1382TIP3    H125637   2.248   4.042   4.227  0.2336 -0.0715 -0.4850
 1382TIP3    H225638   2.271   3.946   4.112  0.5384  0.3049 -0.7382
 1383TIP3   OH225639   2.481   2.026  12.539  0.3255 -0.2057 -0.3164
 1383TIP3    H125640   2.508   1.934  12.548  1.9791  0.0494 -2.0580
 1383TIP3    H225641   2.449   2.050  12.626  0.4394 -2.2434  0.3433
 1384TIP3   OH225642   6.582   2.836  16.642  0.8137  0.6618 -0.3061
 1384TIP3    H125643   6.659   2.820  16.696  0.6286 -0.6858 -0.4116
 1384TIP3    H225644   6.512   2.787  16.684  0.9789 -1.6762 -2.4742
 1385TIP3   OH225645   2.103   1.233   1.371 -0.0802  0.1731  0.0205
 1385TIP3    H125646   2.124   1.157   1.316 -1.5866 -1.0787  1.1071
 1385TIP3    H225647   2.143   1.213   1.455 -1.9746 -0.3301  0.8608
 1386TIP3   OH225648   5.475   2.721  16.125 -0.5217  0.2126  0.0374
 1386TIP3    H125649   5.431   2.757  16.203  1.6642  1.4064  0.7878
 1386TIP3    H225650   5.495   2.630  16.149 -0.0407  0.5111  0.8227
 1387TIP3   OH225651   0.040   3.279   4.244 -0.2513 -0.7805  0.0824
 1387TIP3    H125652   0.112   3.314   4.192  0.0134 -1.8447 -0.2894
 1387TIP3    H225653  -0.022   3.244   4.180 -1.4954  0.7994  0.3555
 1388TIP3   OH225654   4.256   0.363  16.070 -0.3032 -0.0712 -0.2911
 1388TIP3    H125655   4.232   0.319  15.989  4.3599 -0.9555 -1.4543
 1388TIP3    H225656   4.254   0.456  16.048  0.7851 -0.2929 -1.4845
 1389TIP3   OH225657   2.813   3.459   4.757 -0.6491  0.5437  0.1726
 1389TIP3    H125658   2.757   3.406   4.701  1.8576 -1.2292 -0.7925
 1389TIP3    H225659   2.761   3.472   4.837 -1.6013 -2.9588  0.2674
 1390TIP3   OH225660   4.006   3.945   3.051  0.5275 -0.3669 -0.0816
 1390TIP3    H125661   4.051   4.022   3.016  0.7007  0.0295  0.9858
 1390TIP3    H225662   4.076   3.880   3.060  0.8853  0.1762  1.3641
 1391TIP3   OH225663   1.904   2.571   3.715  0.3808  0.4122 -0.0090
 1391TIP3    H125664   1.836   2.542   3.654  0.2850  1.0721 -0.2176
 1391TIP3    H225665   1.874   2.540   3.801  0.9898 -1.3966 -0.3898
 1392TIP3   OH225666   6.481   2.312   6.235  0.2561  0.4733 -0.0370
 1392TIP3    H125667   6.432   2.235   6.206 -1.5139  2.2557 -2.1849
 1392TIP3    H225668   6.414   2.372   6.268  1.6856  0.7939  2.5517
 1393TIP3   OH225669   0.337   0.012   0.789  0.2225 -0.4599 -0.5088
 1393TIP3    H125670   0.390   0.043   0.863 -0.7380 -1.3033  0.5807
 1393TIP3    H225671   0.247   0.015   0.821 -0.0537 -2.9257 -0.8166
 1394TIP3   OH225672   4.482   4.800  15.530 -0.1868  0.6837 -0.2464
 1394TIP3    H125673   4.549   4.849  15.483 -0.5858  1.1009 -0.3925
 1394TIP3    H225674   4.432   4.756  15.462  0.7651 -0.7400 -0.0701
 1395TIP3   OH225675   5.760   3.276  12.968 -0.7657 -0.3516  0.0606
 1395TIP3    H125676   5.816   3.295  12.893 -1.9678 -0.0590 -0.7952
 1395TIP3    H225677   5.676   3.252  12.929 -0.5941 -3.2639  1.1996
 1396TIP3   OH225678   0.836   1.255   1.736 -0.5594 -0.1563  0.2140
 1396TIP3    H125679   0.851   1.349   1.746 -1.9553  0.3150 -1.4477
 1396TIP3    H225680   0.746   1.249   1.702 -1.1717 -2.2053  1.9950
 1397TIP3   OH225681   3.402   4.000  14.784 -0.3443  0.1958 -0.4635
 1397TIP3    H125682   3.438   4.065  14.845 -2.2699  1.5805 -0.7104
 1397TIP3    H225683   3.319   4.038  14.756 -2.6513 -3.3186  1.0297
 1398TIP3   OH225684   5.690   1.513  16.647 -0.1205 -0.4139 -0.3627
 1398TIP3    H125685   5.693   1.592  16.593 -0.7501  0.1086  0.3518
 1398TIP3    H225686   5.752   1.529  16.718 -0.6984 -0.2985  0.1239
 1399TIP3   OH225687   1.471   4.018   4.385  0.5090 -0.0674 -0.0016
 1399TIP3    H125688   1.566   4.004   4.394  0.3754  0.3105  2.6623
 1399TIP3    H225689   1.463   4.110   4.360  0.8278 -0.2219 -0.7187
 1400TIP3   OH225690   4.887   6.572   5.419 -0.8248  0.0271  0.3175
 1400TIP3    H125691   4.800   6.587   5.382 -0.1297  0.3071 -1.2625
 1400TIP3    H225692   4.889   6.478   5.440 -0.3564 -0.7733 -2.8735
 1401TIP3   OH225693   2.285   3.414   1.488 -0.0357  0.7813  0.3384
 1401TIP3    H125694   2.360   3.360   1.509 -0.5394 -1.7656 -3.3643
 1401TIP3    H225695   2.227   3.407   1.564  1.0998 -1.8039  1.0609
 1402TIP3   OH225696   2.904   4.034  16.483 -0.3623 -0.6313 -0.3315
 1402TIP3    H125697   2.843   4.070  16.419  1.0169  0.6822 -0.9720
 1402TIP3    H225698   2.848   4.001  16.553 -1.8337 -0.3634 -1.3358
 1403TIP3   OH225699   1.161   0.711   3.568  0.0218 -0.5193  0.0223
 1403TIP3    H125700   1.068   0.714   3.591 -0.2223  0.1033 -0.9859
 1403TIP3    H225701   1.162   0.684   3.476  0.7421  0.8927 -0.4197
 1404TIP3   OH225702   2.126   2.240  12.503  0.2308 -0.2254 -0.0122
 1404TIP3    H125703   2.205   2.279  12.541 -0.9951  0.3202  2.1349
 1404TIP3    H225704   2.090   2.308  12.447  1.1725 -0.4205 -0.8766
 1405TIP3   OH225705   5.704   5.924  14.913  0.1166  0.3734 -0.7917
 1405TIP3    H125706   5.764   5.962  14.848  0.0412  1.9717  0.0151
 1405TIP3    H225707   5.632   5.889  14.862  0.8897  0.0260 -1.6699
 1406TIP3   OH225708   2.260   1.910   0.135  0.0531  0.5037  0.1748
 1406TIP3    H125709   2.309   1.984   0.100  0.8142  0.4247  1.0124
 1406TIP3    H225710   2.204   1.948   0.203 -1.3928  0.6543 -1.0415
 1407TIP3   OH225711   1.757   2.899  14.837 -0.7747  0.1303  0.3837
 1407TIP3    H125712   1.797   2.812  14.838 -0.9126  0.0250  2.9449
 1407TIP3    H225713   1.832   2.959  14.843 -0.6327  0.2951 -2.0165
 1408TIP3   OH225714   0.391   0.583   1.771  0.3911  0.2215  0.0269
 1408TIP3    H125715   0.459   0.518   1.755 -1.0491 -1.2123 -0.4680
 1408TIP3    H225716   0.342   0.588   1.689  0.6369  2.1915 -0.0626
 1409TIP3   OH225717   0.338   3.912  17.111  0.3579  0.1661  0.4764
 1409TIP3    H125718   0.427   3.881  17.095 -0.2155 -0.8395 -1.0321
 1409TIP3    H225719   0.340   4.005  17.091  0.5441 -0.3279 -2.0567
 1410TIP3   OH225720   5.691   4.928   0.459  0.3480  0.4467  0.3402
 1410TIP3    H125721   5.741   5.008   0.445 -1.3032  1.5279  0.4229
 1410TIP3    H225722   5.697   4.881   0.376  1.7054  0.4054  0.4341
 1411TIP3   OH225723   3.502   6.750  15.308  0.3005 -0.3642 -0.0251
 1411TIP3    H125724   3.430   6.694  15.280 -0.6948  0.8940 -0.0188
 1411TIP3    H225725   3.560   6.754  15.232 -0.2799 -0.3421 -0.4697
 1412TIP3   OH225726   5.245   4.301   0.815 -0.4616  0.0301  0.4006
 1412TIP3    H125727   5.194   4.327   0.892 -0.7991  1.0351 -0.1344
 1412TIP3    H225728   5.285   4.383   0.784 -1.0126 -0.1820 -0.9633
 1413TIP3   OH225729   6.398   2.240  13.471 -0.1736  0.4316 -0.2054
 1413TIP3    H125730   6.478   2.279  13.507 -0.2386  0.5888 -0.2283
 1413TIP3    H225731   6.408   2.250  13.376  0.2429 -0.4672 -0.2660
 1414TIP3   OH225732   6.494   3.834   0.175  0.0947  0.0092 -0.4978
 1414TIP3    H125733   6.503   3.908   0.114 -0.9806  0.4113 -0.2070
 1414TIP3    H225734   6.411   3.793   0.149 -0.0795 -0.1683  0.3114
 1415TIP3   OH225735   4.862   6.175  13.694  0.0265 -0.0351 -0.5210
 1415TIP3    H125736   4.925   6.103  13.693 -1.9382 -1.8462 -1.6361
 1415TIP3    H225737   4.823   6.175  13.607 -0.7245  1.7568 -0.2338
 1416TIP3   OH225738   3.164   5.853  13.395 -0.3778  0.0107 -0.4475
 1416TIP3    H125739   3.219   5.775  13.393 -1.6602 -0.9214 -0.3778
 1416TIP3    H225740   3.121   5.851  13.480 -1.9779 -0.3410 -1.2289
 1417TIP3   OH225741   1.250   2.838   2.549 -0.3703 -0.1595  0.3558
 1417TIP3    H125742   1.201   2.918   2.569 -0.9351 -0.0301 -1.3322
 1417TIP3    H225743   1.332   2.847   2.598 -1.0947  0.6780  1.4679
 1418TIP3   OH225744   5.951   6.053  13.313  0.2645  0.0089 -0.3608
 1418TIP3    H125745   5.882   6.004  13.358 -0.7999  1.2558 -0.5973
 1418TIP3    H225746   5.968   6.003  13.233 -1.9317  0.7905 -1.3970
 1419TIP3   OH225747   2.163   4.516  16.317  0.2575  0.2228  0.1290
 1419TIP3    H125748   2.111   4.534  16.395  0.0534  1.7534 -0.3228
 1419TIP3    H225749   2.226   4.450  16.344 -0.6865 -0.2582  1.2121
 1420TIP3   OH225750   2.383   5.621  16.438 -0.0903 -0.0263  0.2553
 1420TIP3    H125751   2.417   5.539  16.474 -2.8759 -1.4821 -0.1132
 1420TIP3    H225752   2.460   5.674  16.422  1.7235 -1.8638  2.1915
 1421TIP3   OH225753   3.754   0.573   5.626  0.4483  0.1264  0.2531
 1421TIP3    H125754   3.731   0.491   5.670 -0.3858 -0.1497 -0.6418
 1421TIP3    H225755   3.673   0.624   5.627  0.3396  0.0194 -1.1177
 1422TIP3   OH225756   2.193   2.308   5.187 -0.3501  0.2629  0.0884
 1422TIP3    H125757   2.126   2.350   5.133  0.6699  0.4164 -1.1020
 1422TIP3    H225758   2.253   2.267   5.124 -0.4366 -1.6660  1.1626
 1423TIP3   OH225759   0.754   0.995   4.440 -0.1909 -0.0538  0.3885
 1423TIP3    H125760   0.748   0.981   4.346  0.1696 -0.7708  0.4687
 1423TIP3    H225761   0.848   1.006   4.456 -0.2048 -0.4096  0.7288
 1424TIP3   OH225762   5.521   1.127   5.582  0.0338 -0.4311  0.5383
 1424TIP3    H125763   5.432   1.105   5.555  0.2517 -1.2993  0.4893
 1424TIP3    H225764   5.536   1.073   5.660  0.2081  0.3617  1.0566
 1425TIP3   OH225765   0.550   5.873  12.679  0.4803  0.3338  0.0765
 1425TIP3    H125766   0.620   5.811  12.697 -0.6342 -1.0319 -0.0602
 1425TIP3    H225767   0.470   5.826  12.702 -0.3695  2.1641  1.1151
 1426TIP3   OH225768   0.229   3.218   0.429  0.3695  0.3978  0.0833
 1426TIP3    H125769   0.217   3.251   0.340 -0.5956  2.2403  0.8343
 1426TIP3    H225770   0.165   3.147   0.438 -0.0293  0.6891 -0.4563
 1427TIP3   OH225771   6.216   1.786  13.952 -0.1869 -0.1199 -0.3982
 1427TIP3    H125772   6.291   1.844  13.965 -0.8377  1.2330 -2.1912
 1427TIP3    H225773   6.216   1.768  13.858 -1.0009 -1.6944 -0.1265
 1428TIP3   OH225774   3.285   4.850   0.613 -0.3343 -0.1893  0.0379
 1428TIP3    H125775   3.322   4.863   0.701 -1.4527  0.3432  0.4550
 1428TIP3    H225776   3.220   4.920   0.605 -0.6551 -0.5968 -0.9883
 1429TIP3   OH225777   5.477   0.933  10.563 -0.2311 -0.1868 -0.4196
 1429TIP3    H125778   5.508   0.872  10.630 -2.1046 -1.2515 -0.4821
 1429TIP3    H225779   5.526   1.014  10.581 -0.2055 -0.6391  1.8219
 1430TIP3   OH225780   6.289   1.311  15.869 -0.1828  0.0878  0.1486
 1430TIP3    H125781   6.292   1.357  15.953  4.2733 -0.2494  0.4087
 1430TIP3    H225782   6.354   1.356  15.815 -1.1507 -1.2604 -2.2785
 1431TIP3   OH225783   3.337   6.352   3.613 -0.2987 -0.1358  0.3204
 1431TIP3    H125784   3.384   6.316   3.538  1.1804 -3.3518  2.5206
 1431TIP3    H225785   3.297   6.432   3.581  2.5128  0.1394 -3.1204
 1432TIP3   OH225786   0.514   6.650   2.547 -0.3012 -0.7579  0.2519
 1432TIP3    H125787   0.452   6.641   2.620  0.6973 -0.3259  1.1679
 1432TIP3    H225788   0.535   6.743   2.545 -2.0043 -0.3151 -2.0402
 1433TIP3   OH225789   4.320   1.023   4.903  0.2300 -0.3395  0.7665
 1433TIP3    H125790   4.290   0.933   4.891  1.7369 -0.9277  1.1386
 1433TIP3    H225791   4.410   1.023   4.869 -0.2729  1.4338 -0.7245
 1434TIP3   OH225792   1.660   5.401  11.620 -0.2089  0.0286  0.5755
 1434TIP3    H125793   1.692   5.311  11.619 -1.9832 -0.6552  0.6163
 1434TIP3    H225794   1.738   5.455  11.610  0.8221 -1.5420 -0.3308
 1435TIP3   OH225795   6.634   1.491   3.154 -1.0656 -0.1836 -0.4004
 1435TIP3    H125796   6.655   1.506   3.246 -1.3273 -2.5930  0.1245
 1435TIP3    H225797   6.698   1.426   3.125  0.5678  2.2015 -2.6941
 1436TIP3   OH225798   0.843   0.900   4.870 -0.0624 -0.0555 -0.4361
 1436TIP3    H125799   0.897   0.962   4.919  0.2772  0.1211 -1.0226
 1436TIP3    H225800   0.848   0.818   4.921  1.8360 -0.4329 -1.1468
 1437TIP3   OH225801   5.645   2.527   0.793 -0.2422 -0.1602  0.1420
 1437TIP3    H125802   5.586   2.505   0.721  0.0740 -1.1082  0.1510
 1437TIP3    H225803   5.621   2.466   0.863  1.1464 -1.0015 -0.0797
 1438TIP3   OH225804   5.299   1.715  16.626 -0.0149 -0.2269 -0.2775
 1438TIP3    H125805   5.342   1.654  16.686  1.0670  0.5025 -0.2920
 1438TIP3    H225806   5.315   1.802  16.665 -0.0450  0.1884 -1.1789
 1439TIP3   OH225807   0.416   1.167  13.055  0.2191  0.2168 -0.3192
 1439TIP3    H125808   0.502   1.148  13.016 -0.3386  0.1177 -1.5398
 1439TIP3    H225809   0.425   1.257  13.088  0.8135  0.1830 -0.3641
 1440TIP3   OH225810   0.013   2.067  15.885  0.2463 -0.1554  0.0363
 1440TIP3    H125811  -0.070   2.110  15.867  0.1164 -0.6322 -0.5402
 1440TIP3    H225812  -0.003   2.014  15.963  0.3163  0.5741  0.5550
 1441TIP3   OH225813   0.772   5.102  12.902  0.2121  0.9918  0.1236
 1441TIP3    H125814   0.812   5.022  12.936  0.7881  1.3731  0.3703
 1441TIP3    H225815   0.713   5.131  12.971 -0.0052  0.7684  0.0291
 1442TIP3   OH225816   1.969   5.515  14.866  0.2547 -0.5792 -0.4477
 1442TIP3    H125817   1.949   5.505  14.959 -0.0659 -0.9077 -0.5498
 1442TIP3    H225818   1.884   5.529  14.824 -0.1130 -3.8900 -1.1337
 1443TIP3   OH225819   6.745   3.350  15.511 -0.2448  0.2834  0.3712
 1443TIP3    H125820   6.692   3.302  15.575 -0.1496  0.6304  0.7179
 1443TIP3    H225821   6.681   3.386  15.450 -0.6073  2.0727  1.7010
 1444TIP3   OH225822   3.943   6.460   4.286  0.2572 -0.3393 -0.1359
 1444TIP3    H125823   3.930   6.550   4.315  2.6812  0.1379 -0.3557
 1444TIP3    H225824   3.860   6.417   4.305 -0.1431  1.3025  2.2968
 1445TIP3   OH225825   1.913   0.100   2.669  0.4086  0.4750 -0.3659
 1445TIP3    H125826   1.927   0.023   2.613 -1.6258  0.5497 -1.0496
 1445TIP3    H225827   1.930   0.069   2.758  1.0045 -0.3794 -0.7667
 1446TIP3   OH225828   4.375   4.264  13.295 -0.2608 -0.4104  0.3574
 1446TIP3    H125829   4.469   4.256  13.276 -0.3426 -0.8740  0.1309
 1446TIP3    H225830   4.365   4.225  13.382 -0.2086 -0.1406  0.4871
 1447TIP3   OH225831   0.631   5.587  15.802 -0.1873  0.2822 -0.2784
 1447TIP3    H125832   0.663   5.532  15.873 -2.1105 -0.5668 -0.0295
 1447TIP3    H225833   0.634   5.531  15.725 -1.1423  0.1647 -0.2345
 1448TIP3   OH225834   2.285   2.074  12.747  0.2169 -0.1730  0.1570
 1448TIP3    H125835   2.289   2.170  12.749  0.5024 -0.1701 -0.3786
 1448TIP3    H225836   2.213   2.054  12.689 -0.5160 -0.2883  1.0797
 1449TIP3   OH225837   5.673   3.454   0.618  0.0374  0.4046 -0.3206
 1449TIP3    H125838   5.729   3.482   0.690  0.0066 -0.6341  0.1224
 1449TIP3    H225839   5.717   3.376   0.583 -0.5100  0.2779 -0.7345
 1450TIP3   OH225840   6.432   1.571  12.067 -0.3476 -0.0070 -0.1748
 1450TIP3    H125841   6.473   1.591  12.151 -2.1450  0.3204  0.6658
 1450TIP3    H225842   6.376   1.496  12.085 -0.9347  0.2176 -1.0344
 1451TIP3   OH225843   3.889   4.106   3.573 -0.3009 -0.4269  0.2094
 1451TIP3    H125844   3.954   4.099   3.503 -2.5624  0.9421 -2.2288
 1451TIP3    H225845   3.865   4.016   3.594  0.5457 -0.8754 -0.6945
 1452TIP3   OH225846   2.943   6.067   5.835  0.0315 -0.3509 -0.0948
 1452TIP3    H125847   3.009   6.099   5.773 -1.4081  1.0089 -0.9926
 1452TIP3    H225848   2.913   6.146   5.880 -0.0574 -1.1319  1.2368
 1453TIP3   OH225849   4.803   1.918  16.625 -0.0940 -1.1486 -0.7691
 1453TIP3    H125850   4.752   1.973  16.566  1.3511 -0.5808 -1.5330
 1453TIP3    H225851   4.879   1.891  16.573  1.6291 -0.0096  1.0096
 1454TIP3   OH225852   6.108   1.255   5.362 -0.3170  0.4445 -0.2985
 1454TIP3    H125853   6.081   1.307   5.438  2.5082  0.3467  0.8667
 1454TIP3    H225854   6.115   1.319   5.291  1.1864  1.3448  0.6187
 1455TIP3   OH225855   1.861   1.955   0.609  0.4506 -0.9224 -0.7130
 1455TIP3    H125856   1.840   2.032   0.662  0.5082 -2.0109  0.9816
 1455TIP3    H225857   1.777   1.913   0.592  0.3260 -0.1003 -2.3433
 1456TIP3   OH225858   4.608   4.440  14.355 -0.5400  0.3688 -0.0945
 1456TIP3    H125859   4.674   4.463  14.290  1.0792 -0.7240  1.0590
 1456TIP3    H225860   4.646   4.364  14.401 -2.4870 -0.1133  0.8140
 1457TIP3   OH225861   5.763   5.612   0.254  0.2394 -0.2277  0.5673
 1457TIP3    H125862   5.678   5.653   0.270  0.1371  0.1797 -0.9214
 1457TIP3    H225863   5.766   5.599   0.160  2.4420  1.1011  0.3976
 1458TIP3   OH225864   0.163   3.940   1.071  0.1759 -0.1052 -0.4397
 1458TIP3    H125865   0.113   3.861   1.055  2.3401 -2.1765  1.9983
 1458TIP3    H225866   0.120   3.981   1.146 -1.6281  1.7984 -2.3990
 1459TIP3   OH225867   6.495   2.505  14.218 -0.7910  0.5384  0.2866
 1459TIP3    H125868   6.444   2.466  14.148 -0.5331  0.4425  0.1488
 1459TIP3    H225869   6.438   2.572  14.256 -0.7391  0.9514 -0.3541
 1460TIP3   OH225870   2.945   1.820   3.830 -0.0387 -1.1175 -0.5599
 1460TIP3    H125871   2.941   1.786   3.741 -0.0066  1.8712 -1.8030
 1460TIP3    H225872   2.956   1.914   3.820 -0.9115 -0.5419  2.6194
 1461TIP3   OH225873   4.839   0.030  12.229 -0.8441 -0.8805  0.0900
 1461TIP3    H125874   4.892   0.108  12.217  0.4773 -1.9279 -1.2339
 1461TIP3    H225875   4.846   0.011  12.323 -0.0927 -0.1600  0.1907
 1462TIP3   OH225876   5.446   1.215  16.929 -0.2778 -0.5791  0.1307
 1462TIP3    H125877   5.500   1.261  16.993 -0.0452  0.0415 -0.4970
 1462TIP3    H225878   5.356   1.231  16.958 -0.1699 -0.4332  0.3871
 1463TIP3   OH225879   1.457   4.149   3.847 -0.1207 -0.6869  0.2417
 1463TIP3    H125880   1.411   4.098   3.780 -0.2655  0.8722 -0.9045
 1463TIP3    H225881   1.549   4.148   3.819 -0.3254  0.7762 -0.5655
 1464TIP3   OH225882   6.776   4.184  16.462 -0.3141 -0.1242 -0.2885
 1464TIP3    H125883   6.768   4.096  16.499 -0.5880  0.5005  1.2373
 1464TIP3    H225884   6.704   4.190  16.399 -1.0404 -0.6073  0.4663
 1465TIP3   OH225885   3.319   2.540   4.619 -0.1814  0.4931  0.5828
 1465TIP3    H125886   3.332   2.621   4.570  0.4313 -0.1801 -0.3868
 1465TIP3    H225887   3.232   2.511   4.594  0.9893 -1.0998 -2.0686
 1466TIP3   OH225888   6.370   5.682   3.663  0.1765  0.0910 -0.6343
 1466TIP3    H125889   6.429   5.639   3.601  1.2891  0.4341  0.1521
 1466TIP3    H225890   6.427   5.715   3.732 -1.1220 -1.2893  1.2196
 1467TIP3   OH225891   0.769   0.125   2.307 -0.9850  0.0893  0.4246
 1467TIP3    H125892   0.819   0.206   2.314 -0.4894 -0.2707  1.2961
 1467TIP3    H225893   0.714   0.137   2.230 -2.2282  1.9721  1.5090
 1468TIP3   OH225894   2.555   1.437  15.152  0.2586  0.4074 -0.6374
 1468TIP3    H125895   2.648   1.438  15.171  0.3144  1.4231 -0.9107
 1468TIP3    H225896   2.515   1.399  15.230  0.7343  1.7671  0.3107
 1469TIP3   OH225897   0.632   5.349  10.667  0.0260 -0.1992  0.3240
 1469TIP3    H125898   0.676   5.429  10.698 -3.0420  1.1511  1.5824
 1469TIP3    H225899   0.588   5.376  10.586 -0.4728 -0.8185  0.3856
 1470TIP3   OH225900   5.306   6.449  13.321 -1.3098 -0.2620  0.7780
 1470TIP3    H125901   5.341   6.429  13.234 -2.5962 -0.2044  0.2323
 1470TIP3    H225902   5.313   6.544  13.328 -1.5065 -0.2323  0.5964
 1471TIP3   OH225903   6.399   6.216   0.374 -0.0771 -0.5658  0.4642
 1471TIP3    H125904   6.365   6.297   0.336  0.7059  0.5806  2.0991
 1471TIP3    H225905   6.435   6.242   0.459  1.0280 -2.4729  0.6463
 1472TIP3   OH225906   4.846   6.216   6.615 -0.0840  0.3001  0.1130
 1472TIP3    H125907   4.856   6.282   6.546 -3.1213 -0.2735 -1.0592
 1472TIP3    H225908   4.868   6.133   6.572 -0.9194  0.0635  0.1223
 1473TIP3   OH225909   4.657   0.318   3.422 -0.3687 -0.0263  0.0746
 1473TIP3    H125910   4.623   0.338   3.336  0.8777 -1.0301 -0.6965
 1473TIP3    H225911   4.751   0.337   3.416 -0.3915  0.6944  1.4754
 1474TIP3   OH225912   1.345   5.185   1.782 -0.4510 -0.0921 -0.7625
 1474TIP3    H125913   1.365   5.227   1.698  0.5384  0.3175 -0.3430
 1474TIP3    H225914   1.426   5.193   1.832 -0.2410 -2.3759 -0.6099
 1475TIP3   OH225915   1.029   4.905  11.510 -0.2077  0.4100 -0.4778
 1475TIP3    H125916   1.093   4.880  11.444  1.8767 -0.4413  1.7225
 1475TIP3    H225917   0.964   4.834  11.509  0.8299 -0.5736 -0.3717
 1476TIP3   OH225918   3.420   6.493  12.781 -0.8224  0.2245 -0.3852
 1476TIP3    H125919   3.417   6.449  12.696  0.1375 -0.1154 -0.2606
 1476TIP3    H225920   3.362   6.442  12.837  0.1062 -0.7737 -0.3039
 1477TIP3   OH225921   2.938   5.293  15.133  0.0596  0.1226  0.2477
 1477TIP3    H125922   2.980   5.354  15.194 -0.1320 -1.1866  1.7352
 1477TIP3    H225923   2.849   5.327  15.123 -0.1540 -0.0783  1.3377
 1478TIP3   OH225924   5.776   6.083  10.996 -0.4754  0.3630 -0.5775
 1478TIP3    H125925   5.865   6.117  10.987 -0.5971  0.8764  0.0955
 1478TIP3    H225926   5.731   6.110  10.916  0.1627 -0.5090 -1.2490
 1479TIP3   OH225927   0.471   5.752   0.768 -0.0427  0.1030  1.0690
 1479TIP3    H125928   0.552   5.719   0.729 -0.0788 -0.7834  1.6992
 1479TIP3    H225929   0.437   5.815   0.705 -1.0557 -2.5550 -1.2414
 1480TIP3   OH225930   1.763   2.264   2.091 -0.4606  0.7280 -0.0399
 1480TIP3    H125931   1.746   2.228   2.178 -0.5331 -0.4953 -0.5471
 1480TIP3    H225932   1.688   2.320   2.073 -0.9904  0.1185  0.2372
 1481TIP3   OH225933   4.176   3.699  14.535 -0.4272 -0.5134 -0.2051
 1481TIP3    H125934   4.168   3.666  14.625  1.7897 -2.7031 -0.6880
 1481TIP3    H225935   4.089   3.691  14.498 -1.0779 -0.9099  1.3322
 1482TIP3   OH225936   1.300   5.118   5.596  0.8805 -0.1821 -0.0253
 1482TIP3    H125937   1.204   5.116   5.605  0.7462 -0.8891 -1.3271
 1482TIP3    H225938   1.332   5.135   5.684 -0.3979 -1.9176  0.8397
 1483TIP3   OH225939   4.000   5.125  13.159 -0.1845  0.2343 -0.4781
 1483TIP3    H125940   4.068   5.151  13.221 -1.5806  0.2993  1.1008
 1483TIP3    H225941   3.996   5.196  13.096  0.7920  0.5021 -0.2506
 1484TIP3   OH225942   0.674   5.530  11.604 -0.4516  0.8458 -0.4275
 1484TIP3    H125943   0.738   5.565  11.542  0.6439 -0.4025 -0.0506
 1484TIP3    H225944   0.675   5.436  11.588  0.0764  0.4584  1.6418
 1485TIP3   OH225945   1.841   3.725  17.261 -0.4278 -0.1146  0.7141
 1485TIP3    H125946   1.754   3.762  17.272 -0.3817 -0.1286  1.1278
 1485TIP3    H225947   1.835   3.671  17.182 -1.0335 -0.8334  1.2426
 1486TIP3   OH225948   5.941   6.026  11.910  0.4801  0.1012  0.1256
 1486TIP3    H125949   5.990   5.950  11.940  1.1465 -0.5049 -2.2797
 1486TIP3    H225950   5.995   6.101  11.934  1.1964 -0.3738  0.0323
 1487TIP3   OH225951   1.460   5.581   3.314 -0.3209  0.1330  0.1367
 1487TIP3    H125952   1.481   5.517   3.246 -1.1462 -0.3042  0.2916
 1487TIP3    H225953   1.393   5.637   3.274  1.9645  2.3788 -0.8586
 1488TIP3   OH225954   3.385   5.451  16.229  0.0987 -0.5301 -0.4736
 1488TIP3    H125955   3.390   5.455  16.134  1.3448  0.0088 -0.3969
 1488TIP3    H225956   3.470   5.417  16.257 -0.6480 -1.7732  0.4099
 1489TIP3   OH225957   5.294   5.182  15.433  0.2323  0.5809 -0.5206
 1489TIP3    H125958   5.276   5.099  15.390 -1.3440  0.9957 -0.7095
 1489TIP3    H225959   5.222   5.239  15.408  1.4664  2.1506 -0.6955
 1490TIP3   OH225960   0.950   4.186   2.285 -0.4545 -0.1886 -0.4690
 1490TIP3    H125961   0.940   4.163   2.378 -0.7925 -1.6516 -0.8417
 1490TIP3    H225962   0.897   4.265   2.274 -0.7722 -0.2559  0.4908
 1491TIP3   OH225963   2.434   3.845   0.741  0.5728 -0.4221 -0.1036
 1491TIP3    H125964   2.440   3.940   0.733  1.9490 -0.4591  0.2890
 1491TIP3    H225965   2.429   3.829   0.835 -1.6476 -0.6695 -0.2165
 1492TIP3   OH225966   2.586   6.086   0.581  0.4694  0.1954 -0.2313
 1492TIP3    H125967   2.498   6.059   0.555  0.5166  0.5360 -0.7756
 1492TIP3    H225968   2.632   6.100   0.498  1.2301 -0.5766  0.0338
 1493TIP3   OH225969   6.061   6.028  12.400  0.2848 -0.1621 -0.6056
 1493TIP3    H125970   6.016   6.112  12.388 -0.7447 -0.6348 -0.1021
 1493TIP3    H225971   6.132   6.048  12.461 -0.3189  0.2249 -0.0184
 1494TIP3   OH225972   6.119   5.219  17.064  0.1310  0.7259  0.0729
 1494TIP3    H125973   6.206   5.225  17.103 -0.1270  0.7496  0.6533
 1494TIP3    H225974   6.069   5.163  17.124 -0.9307  2.5874  1.0167
 1495TIP3   OH225975   6.730   5.712  16.928 -0.0965  0.0163  0.4259
 1495TIP3    H125976   6.789   5.683  16.860  0.1726 -1.9843  1.4478
 1495TIP3    H225977   6.690   5.792  16.893  0.2285 -0.7838 -1.9141
 1496TIP3   OH225978   3.436   1.119  15.085 -0.2818 -0.3413  0.4616
 1496TIP3    H125979   3.461   1.026  15.088  0.2691 -0.3023 -1.4298
 1496TIP3    H225980   3.341   1.118  15.091 -0.8502 -1.5467 -4.3804
 1497TIP3   OH225981   2.020   5.032   0.088 -0.2125  0.3995  0.3863
 1497TIP3    H125982   2.098   4.986   0.118  0.8382  2.2041  0.5724
 1497TIP3    H225983   1.994   5.086   0.162 -3.4817 -2.2744  1.4289
 1498TIP3   OH225984   2.154   4.918   6.599  0.1969 -0.3470  0.2712
 1498TIP3    H125985   2.141   4.901   6.692 -2.4994 -0.5449 -0.0674
 1498TIP3    H225986   2.116   4.843   6.554 -1.7905  1.2980 -1.0042
 1499TIP3   OH225987   2.364   0.644   1.129  0.1480 -0.6024 -0.4549
 1499TIP3    H125988   2.281   0.663   1.173  0.5762 -0.4121  0.2884
 1499TIP3    H225989   2.378   0.719   1.072 -0.6573 -1.0805 -1.3199
 1500TIP3   OH225990   5.657   1.375  15.689  0.3883 -0.1638  0.2741
 1500TIP3    H125991   5.615   1.430  15.623  0.6822  0.6433  0.7403
 1500TIP3    H225992   5.645   1.423  15.771  0.0520 -1.1412  0.8019
 1501TIP3   OH225993   0.034   0.856   2.550  0.3499  0.1908  0.3525
 1501TIP3    H125994   0.023   0.764   2.571 -0.5738  0.4440  1.0651
 1501TIP3    H225995   0.124   0.864   2.519  0.3625 -0.9821  0.0750
 1502TIP3   OH225996   4.887   1.236  15.419 -0.6966  0.7123  0.4737
 1502TIP3    H125997   4.865   1.285  15.340 -1.0274 -0.4420 -0.1733
 1502TIP3    H225998   4.820   1.168  15.424  0.2176 -0.1785  0.8848
 1503TIP3   OH225999   4.008   1.332  15.799 -0.4925  0.0715 -0.0368
 1503TIP3    H126000   3.951   1.272  15.846 -1.7144  0.2443 -1.2455
 1503TIP3    H226001   4.064   1.276  15.746  1.0573 -0.1390  1.6954
 1504TIP3   OH226002   0.043   6.247   4.858  0.5788 -0.0818 -0.7461
 1504TIP3    H126003  -0.015   6.283   4.925  0.3480  0.3037 -1.1478
 1504TIP3    H226004   0.023   6.297   4.779  2.1355  0.7365 -0.6645
 1505TIP3   OH226005   0.658   1.329  10.996 -0.1099 -0.0914 -0.0184
 1505TIP3    H126006   0.689   1.407  10.950  0.7257 -0.9688 -0.9943
 1505TIP3    H226007   0.665   1.259  10.932 -2.5587 -0.6854  0.2445
 1506TIP3   OH226008   1.132   5.883   2.664  0.7636 -0.3672 -0.2264
 1506TIP3    H126009   1.200   5.831   2.623 -0.2370  1.0854 -4.1282
 1506TIP3    H226010   1.050   5.842   2.637 -0.0898 -1.2449  3.2111
 1507TIP3   OH226011   3.708   6.137   0.623  0.4250 -0.0555  0.4004
 1507TIP3    H126012   3.720   6.162   0.532 -0.1808  0.0924  0.3626
 1507TIP3    H226013   3.713   6.041   0.623  1.8007 -0.0095  0.4148
 1508TIP3   OH226014   2.071   4.676  11.705 -0.3450 -0.0098 -0.1825
 1508TIP3    H126015   2.047   4.610  11.640  0.4611  0.9498 -1.5270
 1508TIP3    H226016   2.154   4.711  11.672  0.4065  0.1048  1.7107
 1509TIP3   OH226017   1.130   2.286  14.815 -0.0471 -0.5254 -0.6351
 1509TIP3    H126018   1.070   2.331  14.874 -0.6935  1.5261 -2.6963
 1509TIP3    H226019   1.214   2.328  14.829  1.3612 -3.8721  2.7730
 1510TIP3   OH226020   0.308   2.548  12.742  0.0172 -0.2875  0.0378
 1510TIP3    H126021   0.229   2.565  12.792 -0.5892  2.2737 -1.6061
 1510TIP3    H226022   0.379   2.553  12.806 -0.9301 -0.0718  1.1006
 1511TIP3   OH226023   3.953   3.709   6.019 -0.4153 -0.3462  0.1062
 1511TIP3    H126024   3.996   3.629   5.989  0.7566  0.7721 -1.2852
 1511TIP3    H226025   4.011   3.743   6.087  0.2677  0.4873 -0.8766
 1512TIP3   OH226026   0.228   0.342  15.385  0.9669 -0.4122  0.0695
 1512TIP3    H126027   0.241   0.355  15.479  2.1871  0.0703 -0.1369
 1512TIP3    H226028   0.306   0.381  15.345 -0.1625  0.6571 -1.2267
 1513TIP3   OH226029   3.965   2.085   3.132  0.2731  0.3421 -0.2606
 1513TIP3    H126030   3.950   2.035   3.052  2.5204  1.4371 -1.4560
 1513TIP3    H226031   3.993   2.019   3.196  0.2477 -0.3088 -0.9039
 1514TIP3   OH226032   0.189   5.586   1.311  0.5928  0.1109  0.2553
 1514TIP3    H126033   0.202   5.655   1.246 -0.6181 -0.6235 -0.8157
 1514TIP3    H226034   0.276   5.548   1.324  0.6405 -0.7804 -2.1902
 1515TIP3   OH226035   1.934   1.688   2.276 -0.3027 -0.2978 -0.7255
 1515TIP3    H126036   1.897   1.622   2.334 -0.4790  0.5398  0.1486
 1515TIP3    H226037   1.902   1.666   2.189 -1.1128 -0.8172 -0.3018
 1516TIP3   OH226038   1.202   6.413  14.088  0.1490  0.1626  0.5466
 1516TIP3    H126039   1.175   6.431  14.178  0.3362 -0.4118  0.7208
 1516TIP3    H226040   1.148   6.339  14.061  2.8640 -2.3662  1.5977
 1517TIP3   OH226041   3.241   5.443  13.410 -0.2270 -0.1457  0.0458
 1517TIP3    H126042   3.327   5.420  13.376  0.2794 -0.4209  1.4435
 1517TIP3    H226043   3.238   5.402  13.496 -0.9005  1.6588  0.9272
 1518TIP3   OH226044   4.158   3.981  13.419  0.3491  0.0530 -0.0727
 1518TIP3    H126045   4.237   3.999  13.470  0.3927  1.4386 -0.6006
 1518TIP3    H226046   4.190   3.932  13.343  0.1567 -2.9859  1.6335
 1519TIP3   OH226047   0.367   4.884   0.519  0.0479  0.5811 -0.1414
 1519TIP3    H126048   0.365   4.788   0.526  1.4077  0.5600  0.3684
 1519TIP3    H226049   0.414   4.901   0.438  1.0938  0.7957  0.4923
 1520TIP3   OH226050   5.480   5.408   2.225  0.2079  0.3106 -0.3589
 1520TIP3    H126051   5.535   5.399   2.147  0.4103 -0.7560 -0.1043
 1520TIP3    H226052   5.541   5.438   2.293  0.9318 -2.6007  0.3897
 1521TIP3   OH226053   5.949   0.894  16.988 -0.1972  0.7605 -0.2205
 1521TIP3    H126054   5.872   0.926  17.034 -0.8384 -0.1496 -0.6322
 1521TIP3    H226055   6.016   0.886  17.057 -0.5172  1.3775  0.1699
 1522TIP3   OH226056   1.893   2.593  16.304  0.0782 -0.6632 -0.0657
 1522TIP3    H126057   1.985   2.586  16.328  0.4779 -0.4112 -1.4579
 1522TIP3    H226058   1.892   2.592  16.209 -1.2362  0.7611 -0.1122
 1523TIP3   OH226059   5.903   6.724   3.803 -0.2811 -0.2267 -0.2802
 1523TIP3    H126060   5.829   6.785   3.806  0.0582  0.1820  1.9613
 1523TIP3    H226061   5.863   6.638   3.814 -0.5780 -0.2158 -1.2041
 1524TIP3   OH226062   3.471   2.782   2.544 -0.0976  0.3928  0.3020
 1524TIP3    H126063   3.529   2.814   2.475  0.5709  2.1070  1.5815
 1524TIP3    H226064   3.529   2.738   2.606 -0.4676  0.1872  0.5056
 1525TIP3   OH226065   6.185   3.690   2.202 -0.1269  0.4698 -0.0614
 1525TIP3    H126066   6.238   3.684   2.281 -2.0962 -0.9501  1.2324
 1525TIP3    H226067   6.097   3.709   2.233 -0.3148  4.1875 -2.2158
 1526TIP3   OH226068   6.202   5.706  15.975 -0.0009  0.2445  0.1738
 1526TIP3    H126069   6.220   5.762  16.051 -0.7327  1.5675 -0.5786
 1526TIP3    H226070   6.206   5.767  15.901  0.8646 -1.0437 -0.8740
 1527TIP3   OH226071   6.117   0.618   6.144  0.3853  0.1325  0.0207
 1527TIP3    H126072   6.028   0.595   6.170 -0.4381  1.6292 -1.2981
 1527TIP3    H226073   6.128   0.579   6.057  1.2085 -0.4768  0.3925
 1528TIP3   OH226074   4.141   0.678  15.402  0.0768 -0.0715 -0.3261
 1528TIP3    H126075   4.083   0.615  15.445  0.5749 -1.0516 -1.0444
 1528TIP3    H226076   4.190   0.626  15.339  1.7360  0.7459  0.2412
 1529TIP3   OH226077   3.419   1.569   0.293  0.3105  0.4082 -0.2663
 1529TIP3    H126078   3.373   1.637   0.343 -1.9799  0.3813 -2.1309
 1529TIP3    H226079   3.393   1.487   0.335 -1.4364  0.3986 -1.2421
 1530TIP3   OH226080   4.447   5.580  12.561 -0.6886  0.4834  0.2922
 1530TIP3    H126081   4.493   5.576  12.477 -0.0158 -0.9296  0.6939
 1530TIP3    H226082   4.444   5.674  12.582  2.2370  0.6818  0.3320
 1531TIP3   OH226083   0.497   3.706  13.426  0.2109 -0.3369  0.4788
 1531TIP3    H126084   0.576   3.661  13.454 -0.7650 -1.1417  2.1416
 1531TIP3    H226085   0.449   3.722  13.507 -1.8754 -0.9837 -0.5403
 1532TIP3   OH226086   1.464   5.826   1.103  0.1141 -0.7948 -0.1334
 1532TIP3    H126087   1.517   5.752   1.131  0.0196 -0.7991  0.0354
 1532TIP3    H226088   1.431   5.864   1.185 -1.1283 -1.5095 -0.2824
 1533TIP3   OH226089   2.455   6.491  15.493  0.9735 -0.7467  0.0981
 1533TIP3    H126090   2.414   6.517  15.411  1.2457  1.8126  0.6932
 1533TIP3    H226091   2.421   6.403  15.510  1.5896 -1.7464 -3.1375
 1534TIP3   OH226092   4.622   3.548  11.114  0.1780 -0.4730 -0.0729
 1534TIP3    H126093   4.643   3.532  11.022 -2.3748  0.3045 -0.8492
 1534TIP3    H226094   4.627   3.643  11.125  0.8902 -0.5855  0.7365
 1535TIP3   OH226095   6.757   5.560  13.448 -0.1009  0.1335 -0.7261
 1535TIP3    H126096   6.776   5.653  13.455  1.3763 -0.2309  0.7632
 1535TIP3    H226097   6.776   5.538  13.357 -2.0620  1.5634 -1.5453
 1536TIP3   OH226098   1.823   3.133  15.549 -0.1036 -0.0221  0.1679
 1536TIP3    H126099   1.771   3.194  15.602  0.2277  0.9055 -0.5581
 1536TIP3    H226100   1.867   3.188  15.484  0.5737 -0.9796 -0.2125
 1537TIP3   OH226101   0.453   1.359  15.172 -0.0270  1.1275 -0.5628
 1537TIP3    H126102   0.521   1.414  15.132  1.6507 -0.2328  0.2937
 1537TIP3    H226103   0.479   1.352  15.264 -1.0771  0.2109 -0.3211
 1538TIP3   OH226104   1.307   6.475   4.940  0.1161  0.6859  0.0386
 1538TIP3    H126105   1.212   6.469   4.930  0.3306 -3.2738 -1.4856
 1538TIP3    H226106   1.329   6.407   5.003  2.0679 -0.2498 -1.5337
 1539TIP3   OH226107   3.616   4.224   2.329 -0.2982  0.1847  0.1230
 1539TIP3    H126108   3.577   4.218   2.416 -2.0309  0.2079 -0.6078
 1539TIP3    H226109   3.710   4.234   2.345 -0.5057 -0.4472  1.9597
 1540TIP3   OH226110   4.018   6.714   2.024 -0.0667  0.2576 -0.2511
 1540TIP3    H126111   3.954   6.782   2.042  0.3593  0.7724 -0.6518
 1540TIP3    H226112   4.063   6.700   2.107 -1.4448 -0.9201  0.3396
 1541TIP3   OH226113   5.578   3.280  11.241  0.4644  0.3221 -0.1224
 1541TIP3    H126114   5.567   3.355  11.183 -1.2627 -1.0814 -1.7006
 1541TIP3    H226115   5.646   3.308  11.303  0.7080  2.7250 -1.3630
 1542TIP3   OH226116   3.053   5.660   4.896  0.0431  0.4130  0.1446
 1542TIP3    H126117   3.062   5.741   4.946  1.0481  0.3827  0.0279
 1542TIP3    H226118   3.097   5.677   4.813 -1.4304  0.3947 -0.6821
 1543TIP3   OH226119   2.998   4.091  15.038 -0.5066 -0.3610 -0.1066
 1543TIP3    H126120   3.001   3.995  15.046 -1.8715 -0.4128 -0.0822
 1543TIP3    H226121   2.963   4.121  15.122 -3.3981 -0.1027 -1.2885
 1544TIP3   OH226122   0.092   2.523   1.986  0.1721 -0.4484 -0.1281
 1544TIP3    H126123   0.078   2.529   1.891  1.1130  1.2265 -0.2136
 1544TIP3    H226124   0.155   2.453   1.997  0.9329  0.0973 -0.8748
 1545TIP3   OH226125   1.634   2.574  12.352 -0.7641 -0.2132  0.5111
 1545TIP3    H126126   1.605   2.498  12.302  0.1440 -1.5883  1.9790
 1545TIP3    H226127   1.728   2.580  12.335 -0.3245 -1.0340  2.3711
 1546TIP3   OH226128   2.961   5.287   1.871 -0.8719 -0.2497  0.0113
 1546TIP3    H126129   2.996   5.210   1.825 -1.4842 -1.1524  1.0104
 1546TIP3    H226130   3.030   5.353   1.861 -0.7625 -0.5823 -1.7198
 1547TIP3   OH226131   5.159   3.513  11.117  0.2806 -0.3928 -0.4006
 1547TIP3    H126132   5.065   3.501  11.109  0.0872  1.2049 -0.9531
 1547TIP3    H226133   5.195   3.425  11.118 -1.2815 -1.0734  0.8293
 1548TIP3   OH226134   0.024   1.035  10.963  0.7315 -0.2384  0.0444
 1548TIP3    H126135  -0.050   1.089  10.991  1.5540 -0.0830  2.0345
 1548TIP3    H226136   0.021   1.039  10.867 -1.1909  0.6218  0.0930
 1549TIP3   OH226137   0.996   6.008  10.948 -0.4991 -0.3999 -0.3829
 1549TIP3    H126138   1.052   6.082  10.969 -3.3591  2.7357 -2.7439
 1549TIP3    H226139   0.956   5.983  11.031  2.2873 -1.0664  0.8758
 1550TIP3   OH226140   6.765   1.280  16.917 -0.4099  0.1674  0.2716
 1550TIP3    H126141   6.685   1.260  16.868 -0.9015  0.5634  0.8889
 1550TIP3    H226142   6.782   1.372  16.898  0.0463  0.0098 -0.0669
 1551TIP3   OH226143   5.114   0.497  14.151  0.0888 -0.0033  0.3273
 1551TIP3    H126144   5.058   0.479  14.076  0.5972 -2.5658  0.4637
 1551TIP3    H226145   5.056   0.490  14.227  0.3051 -1.3449  0.3864
 1552TIP3   OH226146   2.319   4.210  15.771 -0.0102  0.0480 -0.2776
 1552TIP3    H126147   2.398   4.208  15.826  0.1701  0.8436 -0.4977
 1552TIP3    H226148   2.348   4.249  15.689 -0.9769  2.0030  0.2386
 1553TIP3   OH226149   4.088   3.172   1.967  0.0165  0.0735 -0.4855
 1553TIP3    H126150   4.093   3.076   1.969 -0.3788  0.0582  1.1298
 1553TIP3    H226151   4.150   3.200   2.035 -2.4195  0.7883  1.6057
 1554TIP3   OH226152   1.861   1.489   0.239  0.1049  0.8246  0.0061
 1554TIP3    H126153   1.782   1.435   0.238  0.2931  0.5369  0.4528
 1554TIP3    H226154   1.890   1.487   0.330  1.1575  0.1575 -0.3294
 1555TIP3   OH226155   6.492   6.502   3.305 -1.1817 -0.2056  0.2132
 1555TIP3    H126156   6.439   6.569   3.350 -0.6134 -0.9527  2.0960
 1555TIP3    H226157   6.445   6.420   3.321  1.6911 -1.3863  4.3937
 1556TIP3   OH226158   5.568   6.427   1.727 -0.2154 -0.7804  0.4222
 1556TIP3    H126159   5.520   6.360   1.775 -0.0567 -1.3771 -0.2400
 1556TIP3    H226160   5.527   6.429   1.641  0.9912 -1.3682 -0.1942
 1557TIP3   OH226161   2.491   5.772   2.981  0.3380  0.4776 -0.5491
 1557TIP3    H126162   2.424   5.708   3.005  0.7127  0.8101  1.5773
 1557TIP3    H226163   2.442   5.846   2.946 -0.1688 -0.4610 -1.9218
 1558TIP3   OH226164   6.189   2.303  14.639  0.2609  0.3805 -0.6173
 1558TIP3    H126165   6.136   2.316  14.718  0.3825 -1.5054 -0.1714
 1558TIP3    H226166   6.256   2.371  14.643 -1.1441  1.8023 -0.3588
 1559TIP3   OH226167   0.534   0.367  12.104  0.5958  0.1138 -0.1506
 1559TIP3    H126168   0.468   0.436  12.107  0.0156 -0.3229 -1.6512
 1559TIP3    H226169   0.615   0.411  12.081  0.2602  0.3319 -0.9474
 1560TIP3   OH226170   4.742   4.206  14.459  0.3469 -0.1483 -0.2089
 1560TIP3    H126171   4.768   4.179  14.371 -0.7181  0.6521 -0.7843
 1560TIP3    H226172   4.823   4.206  14.509  0.8472 -1.4227 -0.9608
 1561TIP3   OH226173   4.640   1.539  14.123 -0.1942 -0.0809  0.5273
 1561TIP3    H126174   4.654   1.489  14.204 -3.9759  0.5211  1.7185
 1561TIP3    H226175   4.562   1.592  14.140 -2.7880 -1.7768 -4.3611
 1562TIP3   OH226176   0.040   3.660   0.262 -0.3108  0.4784  0.0624
 1562TIP3    H126177   0.131   3.654   0.235 -0.2718  1.8832 -0.2047
 1562TIP3    H226178   0.009   3.743   0.224 -1.5798  0.2222  0.4781
 1563TIP3   OH226179   3.553   1.537  16.916 -0.0107  0.1497  0.4556
 1563TIP3    H126180   3.541   1.458  16.969 -1.1421  0.3023  0.4580
 1563TIP3    H226181   3.640   1.528  16.878 -0.3160 -1.3424  0.0620
 1564TIP3   OH226182   4.390   1.350  13.153 -0.1157 -0.6533  0.2942
 1564TIP3    H126183   4.370   1.426  13.097  0.2579 -0.3635  0.5506
 1564TIP3    H226184   4.459   1.381  13.211 -1.7785 -0.3504  2.1945
 1565TIP3   OH226185   1.451   2.657   4.092  0.6866  0.2061  0.9398
 1565TIP3    H126186   1.476   2.743   4.126  0.6003 -0.4751  2.8532
 1565TIP3    H226187   1.360   2.646   4.121 -0.0072  0.2611 -1.0200
 1566TIP3   OH226188   1.222   5.928  10.393 -0.5028 -0.4427 -0.7817
 1566TIP3    H126189   1.257   5.846  10.427  1.1075  0.8307  0.7610
 1566TIP3    H226190   1.135   5.935  10.433 -0.0841 -0.7121  0.1888
 1567TIP3   OH226191   4.114   1.024   2.155  0.3621 -0.1089 -0.6718
 1567TIP3    H126192   4.130   1.071   2.238 -1.2662  0.9570 -0.9282
 1567TIP3    H226193   4.166   1.072   2.091  0.0483  0.3029 -0.6219
 1568TIP3   OH226194   5.505   6.393   2.720 -0.3719 -0.0719  0.0946
 1568TIP3    H126195   5.512   6.297   2.721 -0.2261 -0.0736 -0.7740
 1568TIP3    H226196   5.438   6.412   2.786 -0.2314 -0.7503  0.4550
 1569TIP3   OH226197   4.581   2.964  16.035  0.6930  0.2957  0.2935
 1569TIP3    H126198   4.555   2.946  15.945 -0.9285  1.3713  0.5084
 1569TIP3    H226199   4.503   2.946  16.087  1.6440 -0.4740  1.5384
 1570TIP3   OH226200   2.840   5.020   4.599 -0.2098  0.1526  0.1168
 1570TIP3    H126201   2.755   4.975   4.592 -0.8463  1.4105 -0.4199
 1570TIP3    H226202   2.817   5.111   4.619  1.0013  0.5993 -0.4627
 1571TIP3   OH226203   1.259   0.322   3.421 -0.4199 -0.4214 -0.8450
 1571TIP3    H126204   1.351   0.333   3.445 -0.8281 -2.3490  2.0259
 1571TIP3    H226205   1.229   0.410   3.400  1.5859  0.5534  0.0937
 1572TIP3   OH226206   0.156   5.263   0.492  0.1691 -0.6774 -0.6760
 1572TIP3    H126207   0.169   5.173   0.523 -0.6429 -0.7716 -0.5699
 1572TIP3    H226208   0.063   5.281   0.511  0.6473  0.6813  0.6167
 1573TIP3   OH226209   2.396   5.978   1.920  0.1904  0.0505  0.2929
 1573TIP3    H126210   2.487   5.991   1.945  0.4290 -0.6444 -0.1821
 1573TIP3    H226211   2.372   5.894   1.958  0.1345 -0.3572 -0.6277
 1574TIP3   OH226212   1.722   0.822   2.297  0.5132  0.5296 -0.0180
 1574TIP3    H126213   1.742   0.772   2.218  0.1151  0.3174  0.0122
 1574TIP3    H226214   1.627   0.815   2.307  0.6576 -0.2156  0.9849
 1575TIP3   OH226215   6.303   0.830   2.287  0.2639 -0.3965  0.0796
 1575TIP3    H126216   6.374   0.889   2.312  1.2853 -2.2515  1.8648
 1575TIP3    H226217   6.340   0.776   2.217  0.2323 -0.5921  0.2117
 1576TIP3   OH226218   6.487   5.143  16.780 -0.1164  0.5393 -0.0994
 1576TIP3    H126219   6.397   5.167  16.760  0.4031  2.1686 -0.6481
 1576TIP3    H226220   6.509   5.074  16.717 -1.1649 -0.3505  0.4779
 1577TIP3   OH226221   6.430   1.797   3.233  0.0554 -0.5979  0.3277
 1577TIP3    H126222   6.441   1.870   3.294  1.9825 -0.3564 -0.2232
 1577TIP3    H226223   6.341   1.765   3.249 -0.5450  1.3250  1.1722
 1578TIP3   OH226224   0.949   3.405   3.362 -0.1819  0.3219  0.4548
 1578TIP3    H126225   1.023   3.374   3.413 -1.5611 -3.2086  0.5863
 1578TIP3    H226226   0.970   3.382   3.272 -0.3870  0.9110  0.2499
 1579TIP3   OH226227   0.370   3.043  15.941 -0.0542  0.0008 -0.0942
 1579TIP3    H126228   0.405   3.039  16.030  0.6583 -1.9571 -0.4200
 1579TIP3    H226229   0.279   3.013  15.949  0.2158 -0.8482 -0.0980
 1580TIP3   OH226230   2.278   0.354   5.490  0.0380  0.5492 -0.6866
 1580TIP3    H126231   2.246   0.441   5.515  0.8240  1.0694 -1.4653
 1580TIP3    H226232   2.346   0.371   5.425  0.5894 -0.6283 -0.4378
 1581TIP3   OH226233   2.576   5.490   6.494 -0.4920 -0.5963  0.0125
 1581TIP3    H126234   2.563   5.570   6.442  1.5685 -0.7770 -0.8848
 1581TIP3    H226235   2.514   5.499   6.566 -1.1437  1.2488 -0.6881
 1582TIP3   OH226236   4.708   0.292   4.682  0.6017  0.4995 -0.5513
 1582TIP3    H126237   4.666   0.349   4.746 -0.0762 -1.4678  0.8341
 1582TIP3    H226238   4.785   0.341   4.654  0.4757  1.7643  1.1539
 1583TIP3   OH226239   0.606   1.984   1.438  0.2086 -0.0191  0.4111
 1583TIP3    H126240   0.549   2.015   1.368  0.7000  2.6105  1.0832
 1583TIP3    H226241   0.547   1.973   1.513  0.2713  0.8256  0.5881
 1584TIP3   OH226242   5.671   4.114  10.981 -0.6247 -0.3199  0.6854
 1584TIP3    H126243   5.586   4.071  10.976 -1.4229  1.0483  1.6588
 1584TIP3    H226244   5.725   4.054  11.032 -1.5867 -0.3736  1.6843
 1585TIP3   OH226245   2.604   5.587  12.831  0.2633  0.5801 -0.0417
 1585TIP3    H126246   2.509   5.578  12.821  0.2847 -1.3600  1.0472
 1585TIP3    H226247   2.640   5.512  12.784  1.4131  2.1922 -1.8825
 1586TIP3   OH226248   6.272   4.217  15.225  0.0973 -0.3446  0.2550
 1586TIP3    H126249   6.339   4.243  15.289 -0.1920 -0.8544  0.7750
 1586TIP3    H226250   6.197   4.273  15.246 -0.3359 -1.1801  1.0155
 1587TIP3   OH226251   3.763   3.964   2.873 -0.2605  0.1289 -0.0871
 1587TIP3    H126252   3.798   3.974   2.785 -0.7042  0.1056 -0.2620
 1587TIP3    H226253   3.842   3.959   2.929  0.0271  1.6332 -0.3091
 1588TIP3   OH226254   5.780   3.338  11.415  0.1453 -0.4382  0.0593
 1588TIP3    H126255   5.817   3.264  11.463  0.0355 -0.4977  0.0529
 1588TIP3    H226256   5.804   3.415  11.467 -0.2559 -0.5318  0.3834
 1589TIP3   OH226257   3.622   6.783  15.547 -0.1880  0.2450 -0.2853
 1589TIP3    H126258   3.583   6.742  15.470  0.3166  1.2442 -1.0933
 1589TIP3    H226259   3.549   6.828  15.590  0.0649  2.8086 -2.2431
 1590TIP3   OH226260   0.023   2.118   1.552 -0.1484 -0.3807 -0.4600
 1590TIP3    H126261   0.054   2.069   1.476  0.6363 -0.7205  0.0712
 1590TIP3    H226262  -0.027   2.190   1.515 -0.6938 -1.1578 -1.2693
 1591TIP3   OH226263   0.610   3.279  13.923  0.1114 -0.3963  0.3587
 1591TIP3    H126264   0.519   3.299  13.899  0.3852  1.6004  0.7651
 1591TIP3    H226265   0.607   3.263  14.017  0.1809 -0.3222  0.3738
 1592TIP3   OH226266   3.603   3.701  14.792 -0.3109 -0.0891 -0.0133
 1592TIP3    H126267   3.517   3.698  14.832 -1.0108  0.4662 -1.4165
 1592TIP3    H226268   3.657   3.644  14.847 -1.3484  0.2072  1.3646
 1593TIP3   OH226269   2.275   2.839  13.762  0.2649  0.5850  0.0098
 1593TIP3    H126270   2.214   2.885  13.820 -1.2741  0.0531 -1.1052
 1593TIP3    H226271   2.274   2.748  13.793  2.1964  0.9552  1.3175
 1594TIP3   OH226272   1.613   2.405  11.422 -0.2137 -0.5990  0.1202
 1594TIP3    H126273   1.693   2.407  11.369 -0.8138  0.1989 -0.7730
 1594TIP3    H226274   1.546   2.370  11.363 -0.4560 -1.6771  0.9928
 1595TIP3   OH226275   0.767   3.616   2.189 -0.0763 -0.1076  0.2633
 1595TIP3    H126276   0.823   3.668   2.132 -2.5693  1.1166 -1.2218
 1595TIP3    H226277   0.693   3.590   2.134 -1.2163 -1.2916  2.2160
 1596TIP3   OH226278   2.497   0.550   1.367 -0.1154  0.6662  0.3940
 1596TIP3    H126279   2.467   0.560   1.277  0.5128 -0.2957  0.0609
 1596TIP3    H226280   2.593   0.547   1.360 -0.0402  1.0633  1.1475
 1597TIP3   OH226281   2.842   6.716   0.410 -0.2508 -0.1755  0.0019
 1597TIP3    H126282   2.776   6.652   0.435 -1.7060  0.7097 -1.4477
 1597TIP3    H226283   2.840   6.782   0.480 -0.7013 -0.3032  0.1103
 1598TIP3   OH226284   0.842   2.162  14.308  0.0855  0.2816 -0.0658
 1598TIP3    H126285   0.768   2.141  14.366  0.6165 -1.7644 -0.0251
 1598TIP3    H226286   0.827   2.108  14.231  1.1548  0.3995 -0.3648
 1599TIP3   OH226287   4.413   3.952  13.734 -0.8058 -0.0876  0.0136
 1599TIP3    H126288   4.468   3.952  13.813  1.1517 -1.2346 -1.2828
 1599TIP3    H226289   4.433   3.869  13.691 -1.2542  0.8331 -2.0686
 1600TIP3   OH226290   1.731   1.327  12.041 -0.2953 -0.0745 -0.2133
 1600TIP3    H126291   1.736   1.360  11.951 -2.1068 -0.0549 -0.3271
 1600TIP3    H226292   1.809   1.273  12.050 -1.2957 -2.1356 -2.6397
 1601TIP3   OH226293   1.427   0.046   2.112 -0.3197  0.1919  0.2055
 1601TIP3    H126294   1.508  -0.004   2.117 -0.5997 -0.3369 -0.3614
 1601TIP3    H226295   1.456   0.138   2.108  0.1572  0.1904  2.4438
 1602TIP3   OH226296   3.620   2.437  11.493 -0.5393  0.0987  0.8502
 1602TIP3    H126297   3.654   2.522  11.466  1.0278 -0.7472  0.0285
 1602TIP3    H226298   3.599   2.448  11.586 -1.2516  1.6265  0.5397
 1603TIP3   OH226299   1.223   5.595  12.018 -0.4008  0.2330 -0.2200
 1603TIP3    H126300   1.180   5.561  11.939 -1.0336  2.0291 -0.6926
 1603TIP3    H226301   1.290   5.655  11.985  0.6953 -0.5124  0.5884
 1604TIP3   OH226302   1.527   4.960   4.263  0.6005 -0.4281 -0.2352
 1604TIP3    H126303   1.558   4.879   4.223  1.7406  0.2148 -0.7239
 1604TIP3    H226304   1.593   5.025   4.238 -0.1927  0.6078  0.2970
 1605TIP3   OH226305   1.113   1.657  14.035  0.1864 -0.5124 -0.2874
 1605TIP3    H126306   1.167   1.684  13.961  0.0362  1.3975  0.2444
 1605TIP3    H226307   1.034   1.710  14.027  1.0679  1.4251  2.3944
 1606TIP3   OH226308   5.103   5.099   3.153 -0.1419  0.1135  0.2838
 1606TIP3    H126309   5.031   5.046   3.117 -0.9982  1.4464 -0.0215
 1606TIP3    H226310   5.170   5.035   3.177 -1.3245 -1.1411  0.3348
 1607TIP3   OH226311   5.374   1.780   4.033  0.1089  0.2878  0.1059
 1607TIP3    H126312   5.282   1.806   4.031 -0.4551 -1.5828 -2.5357
 1607TIP3    H226313   5.374   1.695   4.077  0.2424 -0.6760 -1.6982
 1608TIP3   OH226314   2.813   0.759  13.570 -0.4337 -0.1562  0.4792
 1608TIP3    H126315   2.811   0.751  13.475  1.9275 -0.7053  0.4198
 1608TIP3    H226316   2.785   0.673  13.602  1.5029 -0.9439  0.1867
 1609TIP3   OH226317   4.404   5.377  14.871  0.4239 -0.0613 -0.2817
 1609TIP3    H126318   4.400   5.472  14.886  3.1251  0.0947 -0.0706
 1609TIP3    H226319   4.325   5.343  14.913 -0.9523  2.1309 -0.9029
 1610TIP3   OH226320   1.007   1.223  16.716 -0.2046  1.0942  0.1703
 1610TIP3    H126321   1.043   1.207  16.803 -2.4917 -0.5175  0.9151
 1610TIP3    H226322   0.921   1.263  16.732  0.9345  4.6314 -1.5167
 1611TIP3   OH226323   1.743   6.825  11.515  0.4540  0.1462  0.1248
 1611TIP3    H126324   1.682   6.771  11.464 -0.8648  1.1207  0.6175
 1611TIP3    H226325   1.755   6.776  11.597 -2.7652  1.6445  1.6768
 1612TIP3   OH226326   4.677   6.579  12.148 -0.1233  0.5230  0.5530
 1612TIP3    H126327   4.711   6.666  12.167 -0.4879  0.2157  2.9821
 1612TIP3    H226328   4.753   6.521  12.156 -0.5282  0.1927  3.1238
 1613TIP3   OH226329   1.745   5.481   3.188  1.0521 -0.2531  0.4042
 1613TIP3    H126330   1.789   5.566   3.194  1.1566 -0.3136  0.4768
 1613TIP3    H226331   1.762   5.439   3.272 -0.4257  0.3603  1.0616
 1614TIP3   OH226332   3.393   6.023  15.148 -0.2302  0.0095  0.1101
 1614TIP3    H126333   3.302   6.009  15.174 -0.2179 -0.6665 -0.1800
 1614TIP3    H226334   3.438   6.044  15.229 -0.5319 -0.2567  0.3513
 1615TIP3   OH226335   4.843   5.126   1.850 -0.2966 -0.3550  0.0811
 1615TIP3    H126336   4.881   5.214   1.852 -1.8691  0.3984 -1.0569
 1615TIP3    H226337   4.870   5.087   1.933  1.5851  0.6782  0.0085
 1616TIP3   OH226338   3.713   5.268  15.059  0.2372 -1.0056 -1.0254
 1616TIP3    H126339   3.652   5.223  15.000 -1.0335  0.1702 -0.6800
 1616TIP3    H226340   3.709   5.219  15.141 -0.1783 -1.0046 -1.0423
 1617TIP3   OH226341   3.527   3.082  11.937  0.1721 -0.2164 -0.3681
 1617TIP3    H126342   3.480   3.164  11.951 -0.4733 -0.8831  1.7619
 1617TIP3    H226343   3.483   3.019  11.994  1.8360 -1.5855 -0.5132
 1618TIP3   OH226344   6.264   5.824  10.661  0.0811  0.0194 -0.3563
 1618TIP3    H126345   6.213   5.750  10.694  1.3504 -0.8714 -0.2959
 1618TIP3    H226346   6.350   5.813  10.701  0.7432  0.6724 -1.5364
 1619TIP3   OH226347   3.319   1.865   1.114 -0.4465  0.1133  0.2133
 1619TIP3    H126348   3.275   1.931   1.061  0.1941  0.3082 -0.0809
 1619TIP3    H226349   3.409   1.896   1.122  0.1418 -1.2286 -0.8062
 1620TIP3   OH226350   4.239   4.606   3.683  0.0619  0.2661 -0.2287
 1620TIP3    H126351   4.327   4.579   3.657  1.5492  1.8067  2.6480
 1620TIP3    H226352   4.181   4.546   3.638  2.5776 -0.8744 -2.1952
 1621TIP3   OH226353   3.303   2.755   4.443 -0.4237 -0.0116  0.4175
 1621TIP3    H126354   3.302   2.844   4.479 -2.2128  1.2855 -2.5076
 1621TIP3    H226355   3.355   2.762   4.363 -2.2964 -1.0512 -0.9644
 1622TIP3   OH226356   6.281   0.668  15.275  0.1554 -0.7069  0.4207
 1622TIP3    H126357   6.199   0.716  15.283  1.1906  1.6358 -1.5600
 1622TIP3    H226358   6.257   0.586  15.233 -1.2022 -0.1855  0.1255
 1623TIP3   OH226359   3.814   0.611  17.239 -0.3263 -0.0354 -0.3639
 1623TIP3    H126360   3.746   0.641  17.299 -1.5410 -0.7068 -1.3649
 1623TIP3    H226361   3.770   0.548  17.182  1.2488 -0.8414 -0.7449
 1624TIP3   OH226362   5.063   4.384  12.190 -0.2301  0.0291  0.2367
 1624TIP3    H126363   5.000   4.340  12.248  1.0649 -0.8689  1.0215
 1624TIP3    H226364   5.086   4.318  12.125  2.6546 -1.0324  2.1300
 1625TIP3   OH226365   2.195   6.630   4.396  0.4167  0.5633 -0.1274
 1625TIP3    H126366   2.159   6.663   4.478 -0.2827  1.8875 -0.9356
 1625TIP3    H226367   2.275   6.681   4.383  0.5671  0.3015 -0.2488
 1626TIP3   OH226368   3.426   1.227  12.910  0.2699  0.1876  0.2599
 1626TIP3    H126369   3.422   1.238  13.005  1.1347 -0.1500  0.3390
 1626TIP3    H226370   3.358   1.286  12.877 -0.0042  0.3513  1.0785
 1627TIP3   OH226371   0.731   1.393   5.860 -0.8126 -0.4149  0.6186
 1627TIP3    H126372   0.760   1.422   5.947 -0.8133 -1.5137  1.0132
 1627TIP3    H226373   0.714   1.473   5.812 -1.0425  0.2217  1.7228
 1628TIP3   OH226374   5.210   5.696  12.681  0.4788 -0.6650  0.1305
 1628TIP3    H126375   5.222   5.791  12.687  0.8027 -0.7517  1.1864
 1628TIP3    H226376   5.271   5.668  12.613 -2.6764  0.3625 -3.4618
 1629TIP3   OH226377   3.448   3.913   6.838  0.3122 -0.0629 -0.1926
 1629TIP3    H126378   3.510   3.842   6.818 -0.5095 -0.7253 -0.4662
 1629TIP3    H226379   3.491   3.992   6.807  1.1639 -0.4662 -0.0710
 1630TIP3   OH226380   3.123   2.126  16.157  0.1034 -0.3975 -0.4773
 1630TIP3    H126381   3.215   2.101  16.143  0.4567  0.7560 -0.2760
 1630TIP3    H226382   3.120   2.219  16.134 -0.5320  0.1525  1.6599
 1631TIP3   OH226383   5.330   6.540   5.720  0.5331  0.9448  0.0427
 1631TIP3    H126384   5.338   6.627   5.759  1.2142  0.7068  0.4552
 1631TIP3    H226385   5.261   6.549   5.654  1.9469  2.3136 -1.3463
 1632TIP3   OH226386   0.232   5.329   1.484  0.3920  0.0877 -0.6551
 1632TIP3    H126387   0.143   5.364   1.480 -0.0895 -1.1222 -0.9375
 1632TIP3    H226388   0.258   5.341   1.576 -0.6758 -0.9497 -0.1869
 1633TIP3   OH226389   6.063   1.236   0.904  0.0454 -0.5808  0.1580
 1633TIP3    H126390   6.031   1.324   0.883 -3.1398 -1.5919  0.2982
 1633TIP3    H226391   5.986   1.190   0.937  2.0542 -2.8864  1.9524
 1634TIP3   OH226392   0.755   5.095  13.610 -0.0948 -0.1055  0.3678
 1634TIP3    H126393   0.799   5.082  13.526 -1.1871 -1.4887 -0.0279
 1634TIP3    H226394   0.826   5.087  13.675  0.7894  1.1748 -0.3932
 1635TIP3   OH226395   0.599   1.708   2.565 -0.1845  0.4297 -0.2655
 1635TIP3    H126396   0.509   1.740   2.559 -0.8575 -1.1918  0.6465
 1635TIP3    H226397   0.610   1.654   2.487  0.2645  1.2014 -0.7504
 1636TIP3   OH226398   1.655   2.328  15.019 -0.8522 -0.3352 -0.4836
 1636TIP3    H126399   1.625   2.372  14.939 -1.0053  0.5038  0.0288
 1636TIP3    H226400   1.580   2.333  15.078 -0.1065  0.8141  0.4190
 1637TIP3   OH226401   5.485   2.216  14.510 -0.2589  0.0618  0.6983
 1637TIP3    H126402   5.402   2.180  14.480 -0.2694  0.3601  0.3590
 1637TIP3    H226403   5.545   2.203  14.437  0.0866 -0.4598  1.0698
 1638TIP3   OH226404   2.155   1.232   4.873  0.1819  0.7344 -0.2622
 1638TIP3    H126405   2.172   1.315   4.917 -0.0331  0.2953  0.6916
 1638TIP3    H226406   2.072   1.202   4.909 -0.3212  0.6531 -1.4545
 1639TIP3   OH226407   3.485   6.153   0.281  0.1161  0.3550 -1.1565
 1639TIP3    H126408   3.446   6.078   0.235  0.2748  0.6606 -1.8005
 1639TIP3    H226409   3.457   6.143   0.372  0.3683 -0.6448 -1.1765
 1640TIP3   OH226410   5.946   5.161   6.439  0.0727 -0.1885 -0.3659
 1640TIP3    H126411   5.980   5.082   6.482 -0.1378  0.3265  0.7759
 1640TIP3    H226412   6.011   5.181   6.371  1.2686 -0.1041  0.7614
 1641TIP3   OH226413   2.855   0.383   1.714 -0.3859 -0.6661  0.3026
 1641TIP3    H126414   2.882   0.296   1.686  1.0496 -0.5749  1.3122
 1641TIP3    H226415   2.904   0.398   1.795 -1.7789  0.4620  0.9708
 1642TIP3   OH226416   6.186   2.402   0.807  0.0627  0.7259 -0.3029
 1642TIP3    H126417   6.281   2.387   0.815  0.4025  2.2505 -1.1124
 1642TIP3    H226418   6.147   2.332   0.858  1.5874 -0.8036 -1.1204
 1643TIP3   OH226419   4.386   1.256   4.403 -0.2016 -0.0374 -0.0563
 1643TIP3    H126420   4.401   1.347   4.377  1.5040 -0.0839  0.6180
 1643TIP3    H226421   4.430   1.248   4.488  1.0613 -1.8605 -0.8074
 1644TIP3   OH226422   3.286   6.693  12.965  0.3227 -0.5600  0.2511
 1644TIP3    H126423   3.307   6.647  12.883  0.5491  0.3431 -0.2011
 1644TIP3    H226424   3.212   6.750  12.942 -0.2066 -0.9600  0.9090
 1645TIP3   OH226425   5.547   2.291   3.205  0.0184  0.4064  0.1572
 1645TIP3    H126426   5.493   2.252   3.274  0.3421  1.9056  1.3008
 1645TIP3    H226427   5.626   2.237   3.204  0.0492  0.4142  1.0459
 1646TIP3   OH226428   2.348   1.353  11.815 -0.5239  0.2576  0.3504
 1646TIP3    H126429   2.421   1.414  11.805 -0.0210 -0.4723 -0.6189
 1646TIP3    H226430   2.374   1.297  11.889  0.2667 -0.4706 -0.4545
 1647TIP3   OH226431   1.267   0.881  11.789  0.5903 -0.0638  0.1153
 1647TIP3    H126432   1.337   0.820  11.766 -0.2726 -0.7726 -0.7028
 1647TIP3    H226433   1.197   0.826  11.822 -0.1554  0.4845 -0.5120
 1648TIP3   OH226434   6.699   5.107   2.604  0.6070 -0.7357 -0.4126
 1648TIP3    H126435   6.635   5.054   2.555 -0.3235 -0.8844  0.9224
 1648TIP3    H226436   6.716   5.057   2.683  1.3855 -0.0508 -0.1323
 1649TIP3   OH226437   4.407   5.280  12.337  0.1023  0.0753  0.2578
 1649TIP3    H126438   4.427   5.224  12.262  0.1006 -0.9771  1.0211
 1649TIP3    H226439   4.312   5.270  12.349  0.2329 -0.4177  0.9068
 1650TIP3   OH226440   2.183   6.297  11.714 -0.6974 -0.4270 -0.1419
 1650TIP3    H126441   2.261   6.345  11.743 -0.8771 -0.4108  0.3077
 1650TIP3    H226442   2.213   6.248  11.637 -0.7276  1.1142 -1.1923
 1651TIP3   OH226443   5.042   0.774   4.676 -0.6035 -0.1540  0.0675
 1651TIP3    H126444   5.060   0.836   4.606 -2.0079  4.1021  3.0771
 1651TIP3    H226445   4.968   0.722   4.644 -1.3165  1.7383 -1.5907
 1652TIP3   OH226446   5.359   0.499  15.169 -0.4220  0.3237  0.3411
 1652TIP3    H126447   5.353   0.436  15.241  1.2627  1.5147  1.6095
 1652TIP3    H226448   5.445   0.484  15.131 -1.1832 -0.0946 -1.3013
 1653TIP3   OH226449   3.354   4.927   0.861 -0.0860 -0.0037 -0.0237
 1653TIP3    H126450   3.354   4.875   0.941 -0.5193  1.0530  0.6797
 1653TIP3    H226451   3.416   4.997   0.878 -1.3780  1.1713  0.0458
 1654TIP3   OH226452   6.704   1.713   3.329 -0.0794 -0.1208  0.1591
 1654TIP3    H126453   6.631   1.742   3.274  0.7510  0.9734 -0.3973
 1654TIP3    H226454   6.726   1.789   3.382  1.7176  0.1202 -0.8578
 1655TIP3   OH226455   2.703   1.900   1.623 -0.1237  0.3579 -0.3580
 1655TIP3    H126456   2.745   1.939   1.699 -0.2223 -0.1921 -0.0149
 1655TIP3    H226457   2.658   1.823   1.658  1.4966 -1.0684 -1.2781
 1656TIP3   OH226458   6.379   0.206   4.723 -0.3321  0.5084 -0.0631
 1656TIP3    H126459   6.366   0.228   4.815 -0.6788  2.1918 -0.4872
 1656TIP3    H226460   6.367   0.288   4.676  0.1221 -0.2572 -1.6006
 1657TIP3   OH226461   5.379   0.251  11.861  0.4397 -0.1876 -0.2137
 1657TIP3    H126462   5.372   0.229  11.768 -1.1783 -0.2131 -0.1141
 1657TIP3    H226463   5.309   0.201  11.903  1.7249 -0.8985  1.1769
 1658TIP3   OH226464   5.722   2.506   5.422  0.5516  0.3600  0.2171
 1658TIP3    H126465   5.666   2.481   5.495 -1.4160  1.5238 -0.7921
 1658TIP3    H226466   5.772   2.580   5.455  0.3888  0.2659  0.6855
 1659TIP3   OH226467   6.268   2.345   3.789 -0.0051 -1.0417 -0.1656
 1659TIP3    H126468   6.347   2.317   3.743  0.7415 -0.2790  0.6124
 1659TIP3    H226469   6.244   2.428   3.749  1.2278  0.1366  1.4083
 1660TIP3   OH226470   6.677   2.096   4.024 -0.0374  0.0277 -0.3388
 1660TIP3    H126471   6.631   2.089   4.107  1.2203 -3.0227  0.2023
 1660TIP3    H226472   6.741   2.167   4.038  0.2757 -0.5447  1.3833
 1661TIP3   OH226473   1.713   0.238  12.082  0.5072 -0.5285  1.4723
 1661TIP3    H126474   1.667   0.198  12.008  0.0929 -0.1579  1.5246
 1661TIP3    H226475   1.693   0.182  12.157 -1.3428  0.5941  1.8673
 1662TIP3   OH226476   0.643   2.620   5.576 -0.1481 -0.0097 -0.2778
 1662TIP3    H126477   0.648   2.595   5.484  2.4571  1.2688 -0.5847
 1662TIP3    H226478   0.729   2.598   5.612 -0.2708  1.6939  1.2116
 1663TIP3   OH226479   4.803   1.827   0.947  0.0194 -0.3095  0.3918
 1663TIP3    H126480   4.786   1.898   0.885 -2.4723 -0.7874  0.3948
 1663TIP3    H226481   4.741   1.842   1.018  1.5481 -0.8173  1.9057
 1664TIP3   OH226482   3.626   3.815   3.683 -0.4017  0.3279  0.0853
 1664TIP3    H126483   3.709   3.816   3.730 -0.2668  1.2835 -0.1378
 1664TIP3    H226484   3.565   3.773   3.743  0.1667 -0.0689  0.3901
 1665TIP3   OH226485   2.961   6.459   3.792  0.6833 -0.1699  0.4193
 1665TIP3    H126486   2.984   6.523   3.861  0.8896  2.2541 -1.7353
 1665TIP3    H226487   2.870   6.479   3.770  1.1786  0.4632 -1.2636
 1666TIP3   OH226488   1.115   6.129   4.409  0.4129 -0.3288  0.3649
 1666TIP3    H126489   1.025   6.143   4.440  1.0724  1.3948  1.6966
 1666TIP3    H226490   1.107   6.114   4.315 -1.2105  0.5416  0.3413
 1667TIP3   OH226491   5.001   0.397  15.999  0.3671  0.4584 -0.0428
 1667TIP3    H126492   4.978   0.307  15.976  0.0960  0.7543 -0.9550
 1667TIP3    H226493   5.093   0.406  15.975 -0.1442  1.0383 -1.9563
 1668TIP3   OH226494   6.651   5.280   3.749  0.3173 -0.2426  0.1234
 1668TIP3    H126495   6.660   5.205   3.690 -0.3904  1.2550 -2.0371
 1668TIP3    H226496   6.726   5.336   3.728 -0.0956  0.4486  0.4627
 1669TIP3   OH226497   1.633   1.635   6.829 -0.4892  0.6531  0.0454
 1669TIP3    H126498   1.675   1.575   6.768 -0.1939 -2.1295  2.7240
 1669TIP3    H226499   1.706   1.685   6.866 -0.6909  2.4991 -1.8868
 1670TIP3   OH226500   0.869   6.581  13.615  0.6512  0.3468  0.1819
 1670TIP3    H126501   0.895   6.544  13.700  0.8087  2.2770  1.0312
 1670TIP3    H226502   0.863   6.676  13.631  0.8066  0.7793 -1.9999
 1671TIP3   OH226503   5.602   0.524   2.728  0.6029  0.8329  0.1529
 1671TIP3    H126504   5.515   0.550   2.758  1.3277  2.3455  1.0644
 1671TIP3    H226505   5.587   0.449   2.671 -1.2646  0.8890  0.5297
 1672TIP3   OH226506   1.579   2.956  15.059 -0.0664 -0.1269 -0.2180
 1672TIP3    H126507   1.627   2.947  14.977 -1.6601  0.3581 -1.2477
 1672TIP3    H226508   1.639   3.002  15.117 -0.1275  2.8235 -2.2841
 1673TIP3   OH226509   4.657   2.800  12.718  0.4957  0.0965 -0.3688
 1673TIP3    H126510   4.658   2.711  12.683 -1.0888  0.6999 -2.0673
 1673TIP3    H226511   4.668   2.788  12.812  3.1844 -1.6893 -0.7870
 1674TIP3   OH226512   5.431   1.911   2.953 -0.0443 -0.4766 -0.5352
 1674TIP3    H126513   5.364   1.979   2.962  0.4209  0.1671 -1.6388
 1674TIP3    H226514   5.404   1.843   3.014 -1.7662 -0.2859 -1.0160
 1675TIP3   OH226515   1.628   2.524   2.853  0.0841 -0.2352  0.3887
 1675TIP3    H126516   1.538   2.504   2.829  0.4017 -0.1272 -0.9723
 1675TIP3    H226517   1.654   2.454   2.913 -0.8274 -0.3729  0.6317
 1676TIP3   OH226518   0.146   3.612   4.944  0.1891  0.5193 -0.1447
 1676TIP3    H126519   0.099   3.695   4.933 -1.1465 -0.0314  1.1882
 1676TIP3    H226520   0.128   3.585   5.034  3.3509  0.4156  0.5622
 1677TIP3   OH226521   4.347   3.118   5.692 -0.8219  0.3809 -0.1167
 1677TIP3    H126522   4.399   3.057   5.743 -1.8585 -1.2260 -0.9212
 1677TIP3    H226523   4.310   3.179   5.756 -2.0810 -1.5619  1.0706
 1678TIP3   OH226524   2.737   5.082   1.649 -0.2725 -0.7643  0.1872
 1678TIP3    H126525   2.778   5.005   1.687 -0.3849 -1.4367 -1.0165
 1678TIP3    H226526   2.810   5.132   1.611 -0.3567 -0.9675 -0.2371
 1679TIP3   OH226527   1.108   2.844  11.321 -0.2145  0.2111 -0.3386
 1679TIP3    H126528   1.056   2.850  11.240  0.1945  2.8137 -0.4927
 1679TIP3    H226529   1.186   2.795  11.295 -0.8792 -0.4933 -1.0657
 1680TIP3   OH226530   0.689   0.206   6.768  0.5051 -0.7851 -0.0304
 1680TIP3    H126531   0.704   0.192   6.674 -0.4357  0.6387 -0.4316
 1680TIP3    H226532   0.695   0.301   6.779 -3.8060 -0.3663  0.4490
 1681TIP3   OH226533   6.137   5.924  10.998  0.7965 -0.0139 -0.3952
 1681TIP3    H126534   6.086   5.946  10.921  1.1731  1.2177 -0.3172
 1681TIP3    H226535   6.221   5.968  10.985  0.8950  0.1521  0.6779
 1682TIP3   OH226536   2.707   6.290  15.519 -0.3832  0.2111 -0.0726
 1682TIP3    H126537   2.732   6.379  15.496 -0.5788  0.2496 -0.1386
 1682TIP3    H226538   2.625   6.275  15.473  0.1360 -0.3540 -0.8499
 1683TIP3   OH226539   1.880   6.588   1.021  0.3758 -0.6202  0.1928
 1683TIP3    H126540   1.815   6.571   0.952 -0.3504  0.6230  0.5394
 1683TIP3    H226541   1.916   6.502   1.042 -1.7617 -1.4728  0.5753
 1684TIP3   OH226542   1.071   1.152  15.845  0.1965  0.5115 -0.0488
 1684TIP3    H126543   1.007   1.194  15.787  0.3648  0.9840  0.1042
 1684TIP3    H226544   1.063   1.200  15.928  1.0035  0.8042 -0.1386
 1685TIP3   OH226545   6.040   1.796   1.629 -0.6694 -0.2692 -0.6445
 1685TIP3    H126546   6.094   1.851   1.573 -0.1867 -0.0318  0.0419
 1685TIP3    H226547   5.957   1.788   1.581 -0.5782  0.6558 -0.9817
 1686TIP3   OH226548   2.676   0.892   1.747  0.6841 -0.4057  0.0340
 1686TIP3    H126549   2.749   0.831   1.736  0.8600 -0.7246  2.5527
 1686TIP3    H226550   2.716   0.975   1.771  0.3818 -1.4995  5.6101
 1687TIP3   OH226551   4.004   2.522  14.234  0.4389 -0.5474  0.4501
 1687TIP3    H126552   3.951   2.529  14.312 -2.3604 -0.5528 -1.3235
 1687TIP3    H226553   3.977   2.441  14.192  1.2121 -0.1227 -0.9679
 1688TIP3   OH226554   4.759   0.697   2.937 -0.1712  0.4477  0.2021
 1688TIP3    H126555   4.694   0.728   2.874  0.8166  1.3297 -0.4171
 1688TIP3    H226556   4.744   0.602   2.942 -1.8929  0.7061  0.5563
 1689TIP3   OH226557   5.711   4.546   1.172  0.4394 -0.2081 -0.6366
 1689TIP3    H126558   5.761   4.465   1.170  1.2755  0.1622  1.8179
 1689TIP3    H226559   5.710   4.576   1.081  2.0909 -1.7745 -1.2245
 1690TIP3   OH226560   3.210   1.665   4.386 -0.0690 -0.0515 -0.0322
 1690TIP3    H126561   3.235   1.624   4.469  1.0456 -0.3996 -0.5303
 1690TIP3    H226562   3.270   1.738   4.376 -0.8629  0.6215 -0.0549
 1691TIP3   OH226563   2.499   1.555   4.509 -0.0162  0.4209  0.2570
 1691TIP3    H126564   2.572   1.614   4.524 -1.2075  1.7718  0.8955
 1691TIP3    H226565   2.421   1.608   4.522 -1.1500 -0.7580 -1.2331
 1692TIP3   OH226566   5.420   1.543   2.850  0.2046  0.1717  0.0753
 1692TIP3    H126567   5.388   1.507   2.767  0.4798  2.6731 -1.2128
 1692TIP3    H226568   5.509   1.509   2.858  0.2472  0.0577 -0.7762
 1693TIP3   OH226569   4.427   2.130   4.820  0.5171  0.1411  0.7267
 1693TIP3    H126570   4.368   2.205   4.819  1.3428  0.8185  1.0385
 1693TIP3    H226571   4.375   2.058   4.785 -0.2835  0.8652  0.3745
 1694TIP3   OH226572   1.254   3.118  12.555 -0.3922  0.0264 -0.0514
 1694TIP3    H126573   1.276   3.199  12.509 -0.3116 -0.0067 -0.0719
 1694TIP3    H226574   1.264   3.139  12.647 -1.4147  0.3480 -0.0000
 1695TIP3   OH226575   6.806   5.509  13.151  0.3810  0.1681  0.1004
 1695TIP3    H126576   6.725   5.459  13.141 -0.0976  0.7594  0.8891
 1695TIP3    H226577   6.866   5.471  13.086 -0.8124  0.3276 -1.1548
 1696TIP3   OH226578   2.624   5.734  16.345 -0.0349 -0.5768  0.2593
 1696TIP3    H126579   2.698   5.682  16.376  0.3005 -0.2464  0.0211
 1696TIP3    H226580   2.641   5.748  16.252 -0.2044 -0.1814  0.2842
 1697TIP3   OH226581   5.662   2.763  11.717  0.0606 -0.6114  0.3766
 1697TIP3    H126582   5.588   2.747  11.658  0.2495  1.7359 -0.5890
 1697TIP3    H226583   5.739   2.766  11.659  0.3283  1.1127  0.7632
 1698TIP3   OH226584   2.439   4.846  11.166  0.3054 -0.0807 -0.2148
 1698TIP3    H126585   2.517   4.856  11.111  1.2624  0.3415  1.1651
 1698TIP3    H226586   2.369   4.824  11.105  1.7843 -1.9001 -1.3656
 1699TIP3   OH226587   1.936   0.945   4.273 -0.0369 -0.0841  0.4408
 1699TIP3    H126588   1.854   0.923   4.228  0.7408  1.0987 -1.7228
 1699TIP3    H226589   1.979   0.861   4.286 -1.8092 -0.8061  2.2263
 1700TIP3   OH226590   3.736   6.235  15.325  0.1436 -0.5606  0.0870
 1700TIP3    H126591   3.722   6.328  15.341  2.2008  0.1194 -1.4488
 1700TIP3    H226592   3.652   6.193  15.344 -0.9683  1.6662  0.3567
 1701TIP3   OH226593   6.312   5.305   4.733 -0.0616  0.0997 -0.4522
 1701TIP3    H126594   6.372   5.271   4.800  2.2467 -0.0132 -2.4419
 1701TIP3    H226595   6.336   5.397   4.724 -1.8581  0.6845  0.3408
 1702TIP3   OH226596   2.487   3.906  11.268  0.0832 -0.2505 -0.8144
 1702TIP3    H126597   2.436   3.873  11.342 -0.1455 -0.3609 -1.0204
 1702TIP3    H226598   2.423   3.947  11.211  0.4558  1.4541 -0.1069
 1703TIP3   OH226599   5.193   4.554  17.157  1.1556 -0.0096  0.4948
 1703TIP3    H126600   5.180   4.567  17.063  0.3856  1.6277  0.8013
 1703TIP3    H226601   5.157   4.467  17.174 -1.2661  0.7605 -0.2908
 1704TIP3   OH226602   2.733   5.961  14.735 -0.1530  0.0298 -0.3160
 1704TIP3    H126603   2.803   6.001  14.685  0.4762 -0.5396  0.0970
 1704TIP3    H226604   2.653   5.983  14.686  0.4172 -0.2935 -1.4276
 1705TIP3   OH226605   2.155   6.647  13.733 -0.2613 -0.3523 -0.2744
 1705TIP3    H126606   2.183   6.562  13.699 -0.0603 -0.7883  0.9549
 1705TIP3    H226607   2.224   6.673  13.794 -0.0039  1.0030 -1.0855
 1706TIP3   OH226608   4.035   5.525   0.519  0.3283  0.0584 -0.0697
 1706TIP3    H126609   3.999   5.512   0.431 -0.2384 -0.3542  0.2152
 1706TIP3    H226610   4.047   5.620   0.526  1.1114  0.0230 -0.8687
 1707TIP3   OH226611   3.995   0.430   0.398 -0.1173  0.0567  0.7035
 1707TIP3    H126612   3.962   0.457   0.312  1.0944 -1.7559 -0.3804
 1707TIP3    H226613   4.079   0.475   0.406  2.2181 -3.5017 -1.3882
 1708TIP3   OH226614   1.850   5.703  14.008 -0.4443 -0.0527 -0.0829
 1708TIP3    H126615   1.791   5.685  14.082 -0.8983 -0.8266 -0.6072
 1708TIP3    H226616   1.794   5.745  13.942 -0.0156  0.7460  0.0557
 1709TIP3   OH226617   0.945   3.644   1.626  0.1220  0.5528  0.2831
 1709TIP3    H126618   0.904   3.662   1.541 -0.6421  1.8234  0.8781
 1709TIP3    H226619   1.033   3.680   1.618  0.8756 -1.3564 -0.6920
 1710TIP3   OH226620   5.869   5.136   0.425  0.7454  0.4632  0.5988
 1710TIP3    H126621   5.797   5.190   0.457  0.3519 -1.0990  2.5108
 1710TIP3    H226622   5.941   5.153   0.485  0.1659 -2.1165  2.1601
 1711TIP3   OH226623   2.550   3.921  14.849 -0.1045  0.8231  0.3360
 1711TIP3    H126624   2.632   3.947  14.807 -0.0467  1.1137  0.6229
 1711TIP3    H226625   2.502   3.875  14.781 -0.1266  1.5219 -0.1356
 1712TIP3   OH226626   0.195   1.609   0.056 -0.7788  0.3923 -0.0824
 1712TIP3    H126627   0.273   1.664   0.065 -1.3987  1.3641 -0.4863
 1712TIP3    H226628   0.161   1.600   0.145 -0.4379  0.3073  0.0399
 1713TIP3   OH226629   3.829   3.903  16.959  0.3351 -0.0929 -0.5161
 1713TIP3    H126630   3.810   3.810  16.968 -0.1022  0.2021  4.2756
 1713TIP3    H226631   3.925   3.907  16.955  0.3366 -0.6929 -3.1643
 1714TIP3   OH226632   5.398   3.108  12.250  0.4555 -0.4547  0.3192
 1714TIP3    H126633   5.409   3.029  12.303 -0.5372  0.0838  1.3815
 1714TIP3    H226634   5.359   3.078  12.168  0.0664 -1.0728  0.7265
 1715TIP3   OH226635   4.681   6.537   3.193  0.3041  0.0973 -0.3171
 1715TIP3    H126636   4.631   6.616   3.212 -1.1402 -1.1397  1.2752
 1715TIP3    H226637   4.616   6.467   3.190  1.8577 -1.6013  1.9024
 1716TIP3   OH226638   4.641   1.544   2.326  0.3346  0.4109  0.5799
 1716TIP3    H126639   4.663   1.576   2.238 -0.5373  0.4942  0.3784
 1716TIP3    H226640   4.614   1.453   2.312  1.7182 -0.0879  0.9978
 1717TIP3   OH226641   4.404   0.726  10.741 -0.4195  0.4223  0.6040
 1717TIP3    H126642   4.383   0.643  10.783  1.5905  0.2484  1.3813
 1717TIP3    H226643   4.391   0.792  10.809 -2.5998  0.8884 -0.1786
 1718TIP3   OH226644   5.363   2.086  12.027  0.0885  0.1326  0.2906
 1718TIP3    H126645   5.326   2.000  12.009  0.8578 -0.5573  1.8149
 1718TIP3    H226646   5.417   2.106  11.950  0.8335 -1.2888  0.4137
 1719TIP3   OH226647   5.380   4.307   2.233  0.0349  0.0422  0.0327
 1719TIP3    H126648   5.351   4.373   2.296 -1.7857 -0.1185 -0.5675
 1719TIP3    H226649   5.376   4.224   2.280  0.3619  0.1147  0.1931
 1720TIP3   OH226650   3.575   3.922  17.065 -0.0153  0.1395 -0.4745
 1720TIP3    H126651   3.599   3.950  17.153  1.6293 -0.9473 -0.5328
 1720TIP3    H226652   3.658   3.920  17.017 -0.1570 -3.2544 -0.8541
 1721TIP3   OH226653   5.170   1.249   4.214 -0.0869  0.0501  0.4615
 1721TIP3    H126654   5.150   1.158   4.192 -2.1723  0.2228  1.4116
 1721TIP3    H226655   5.253   1.244   4.263  0.7519 -1.0946 -0.9807
 1722TIP3   OH226656   2.250   5.965   4.098 -0.5203  0.5101  0.1011
 1722TIP3    H126657   2.192   5.894   4.125 -0.4841  1.0462  1.7287
 1722TIP3    H226658   2.229   6.037   4.158  0.6089  1.3073 -0.4193
 1723TIP3   OH226659   4.248   1.744  15.770 -0.1156  0.4516 -0.4212
 1723TIP3    H126660   4.261   1.763  15.677  0.4950  0.8248 -0.2654
 1723TIP3    H226661   4.160   1.707  15.774  0.0207  0.0018 -1.2076
 1724TIP3   OH226662   2.156   1.526   2.351 -0.2303 -0.0986  1.1695
 1724TIP3    H126663   2.097   1.598   2.325  1.3962  0.8796 -0.0175
 1724TIP3    H226664   2.162   1.472   2.272  1.0074  0.2274  1.0248
 1725TIP3   OH226665   6.790   1.461   0.728  0.3424 -0.6588  0.2793
 1725TIP3    H126666   6.821   1.452   0.819 -0.5770  0.5817  0.7522
 1725TIP3    H226667   6.751   1.549   0.726 -0.2982 -0.9646 -1.1322
 1726TIP3   OH226668   1.351   3.836  13.242  0.4609 -0.0051 -0.0421
 1726TIP3    H126669   1.283   3.896  13.272 -1.5913 -1.4243 -1.6595
 1726TIP3    H226670   1.355   3.769  13.311 -0.0192 -0.0964 -0.0997
 1727TIP3   OH226671   1.110   1.582   5.460 -0.1932  0.1017 -0.0567
 1727TIP3    H126672   1.016   1.594   5.443 -0.5132 -0.1699  1.3904
 1727TIP3    H226673   1.143   1.538   5.382 -1.6878 -1.5874  0.1995
 1728TIP3   OH226674   6.418   0.335   0.780 -0.4014  0.6743 -0.5083
 1728TIP3    H126675   6.350   0.288   0.829 -1.8496  2.3333 -0.8222
 1728TIP3    H226676   6.478   0.368   0.847 -0.0587 -0.5198 -0.2016
 1729TIP3   OH226677   2.934   6.299   4.706 -0.1833  0.1122  0.0487
 1729TIP3    H126678   2.971   6.314   4.793 -1.6378  0.4510  0.6484
 1729TIP3    H226679   2.916   6.205   4.703 -0.7410  0.2003  0.3926
 1730TIP3   OH226680   2.917   1.111   4.748 -0.5189  0.1901 -0.3291
 1730TIP3    H126681   2.824   1.114   4.770 -0.2982 -0.0554  0.6568
 1730TIP3    H226682   2.936   1.198   4.712 -0.8661  0.6363  0.5508
 1731TIP3   OH226683   0.721   4.009   1.658 -0.3609  0.3711 -0.2203
 1731TIP3    H126684   0.717   4.083   1.598 -0.3072  1.0443  0.5747
 1731TIP3    H226685   0.809   3.974   1.649  0.0527  1.2388  0.3460
 1732TIP3   OH226686   5.625   3.806  11.980 -0.1182  0.1940  0.2084
 1732TIP3    H126687   5.720   3.798  11.968 -0.2264 -0.8079 -0.0608
 1732TIP3    H226688   5.602   3.888  11.936  0.5935  0.3457  0.1092
 1733TIP3   OH226689   6.644   4.184  15.751  0.3778  0.4815 -0.8486
 1733TIP3    H126690   6.651   4.089  15.753 -0.0336  0.4484 -1.0207
 1733TIP3    H226691   6.551   4.202  15.741  0.2625  0.9230  0.7418
 1734TIP3   OH226692   0.280   2.128   3.819  0.2005  0.3117  0.4313
 1734TIP3    H126693   0.218   2.088   3.758  0.0718  1.9744 -0.6013
 1734TIP3    H226694   0.226   2.176   3.881  0.3421 -1.2619  1.8145
 1735TIP3   OH226695   6.555   3.158   2.453  0.2329 -0.4170 -0.0473
 1735TIP3    H126696   6.479   3.182   2.505  1.2438 -0.5484  1.5717
 1735TIP3    H226697   6.621   3.225   2.476  0.6408 -0.3538 -1.3367
 1736TIP3   OH226698   5.735   2.941  13.550 -0.4977 -0.3042 -0.0497
 1736TIP3    H126699   5.679   2.898  13.614 -0.5121 -2.4718 -1.4051
 1736TIP3    H226700   5.712   2.900  13.466 -1.2886  3.1574 -1.7323
 1737TIP3   OH226701   5.229   6.465  12.461  0.1496 -0.3489 -0.0954
 1737TIP3    H126702   5.140   6.481  12.494 -0.3764 -3.9153  0.6355
 1737TIP3    H226703   5.273   6.549  12.468 -3.2432  1.6826 -0.8334
 1738TIP3   OH226704   2.683   4.487  11.507  0.1984  0.1864  0.2256
 1738TIP3    H126705   2.728   4.449  11.583  0.8410  1.7492  0.6639
 1738TIP3    H226706   2.595   4.506  11.539 -1.2307 -3.5759 -0.8406
 1739TIP3   OH226707   5.315   4.915   0.099  0.3884  0.0062  0.3982
 1739TIP3    H126708   5.244   4.951   0.045  0.5260 -1.0436 -0.5074
 1739TIP3    H226709   5.272   4.852   0.157  0.7367 -1.8719 -1.2768
 1740TIP3   OH226710   4.003   0.033   3.776  0.0116  0.7848  0.3348
 1740TIP3    H126711   3.919   0.003   3.741  1.7868 -0.8653 -3.0126
 1740TIP3    H226712   3.986   0.122   3.807 -3.1981  0.0753  1.0473
 1741TIP3   OH226713   1.532   3.448  15.784  0.6930  0.3915 -0.2098
 1741TIP3    H126714   1.525   3.514  15.853  0.6760 -0.2492  0.4178
 1741TIP3    H226715   1.602   3.479  15.728  0.4472  1.1232 -0.1257
 1742TIP3   OH226716   6.193   4.845  16.899 -0.4298 -0.6608  0.8965
 1742TIP3    H126717   6.134   4.908  16.858 -0.7346  0.1843  2.5348
 1742TIP3    H226718   6.211   4.781  16.831 -0.5643  0.8785 -0.6678
 1743TIP3   OH226719   2.155   3.709   3.356 -0.2471  0.0759  0.0189
 1743TIP3    H126720   2.155   3.659   3.274 -0.8024 -1.7572  1.0801
 1743TIP3    H226721   2.154   3.801   3.328 -2.2219 -0.4945 -2.0383
 1744TIP3   OH226722   3.460   2.253  15.044  0.5270 -0.2315 -0.1992
 1744TIP3    H126723   3.402   2.184  15.078  1.1759 -1.1724 -0.9501
 1744TIP3    H226724   3.440   2.256  14.950  0.1579  0.9679 -0.1020
 1745TIP3   OH226725   5.346   6.658   4.759  0.0557 -0.2660 -0.4347
 1745TIP3    H126726   5.346   6.569   4.725 -0.4927 -0.8533  1.0402
 1745TIP3    H226727   5.288   6.707   4.700 -0.8846 -1.2459 -0.3399
 1746TIP3   OH226728   0.236   2.193  14.103  0.2200 -0.0791 -0.1255
 1746TIP3    H126729   0.211   2.165  14.015 -0.4039  1.5694 -0.5081
 1746TIP3    H226730   0.321   2.236  14.091  0.6924 -0.8742  0.2846
 1747TIP3   OH226731   0.676   4.714  14.689 -0.4308 -0.4040  0.8729
 1747TIP3    H126732   0.753   4.734  14.636 -1.3388  2.3720  0.4406
 1747TIP3    H226733   0.608   4.696  14.624 -0.8134 -0.0067  1.1571
 1748TIP3   OH226734   1.677   6.143   6.285  0.1613 -0.1911 -0.6592
 1748TIP3    H126735   1.684   6.097   6.202 -1.4521  0.4345 -1.1659
 1748TIP3    H226736   1.616   6.091   6.337 -0.2619  0.3954 -0.5573
 1749TIP3   OH226737   5.645   5.157   4.559 -0.1183  0.2965  0.2195
 1749TIP3    H126738   5.717   5.200   4.605 -1.3371  1.2002  1.3817
 1749TIP3    H226739   5.634   5.207   4.478 -0.0444  0.7488  0.4868
 1750TIP3   OH226740   6.129   0.561   5.879  0.1729  0.5497 -0.2031
 1750TIP3    H126741   6.066   0.494   5.856 -1.3468  1.9740 -0.3637
 1750TIP3    H226742   6.210   0.535   5.834 -0.6132 -0.6953 -0.9382
 1751TIP3   OH226743   0.958   1.775   0.553 -0.2346 -0.0491  0.1834
 1751TIP3    H126744   0.965   1.833   0.628  0.0732  0.1468  0.0033
 1751TIP3    H226745   0.977   1.830   0.477 -3.1850  0.4475 -0.3441
 1752TIP3   OH226746   0.164   5.991   1.426  0.4021  0.3402  0.4163
 1752TIP3    H126747   0.216   6.009   1.504  0.7721 -1.0137  0.5203
 1752TIP3    H226748   0.150   5.896   1.428 -1.4489  0.5588 -0.0068
 1753TIP3   OH226749   0.093   6.174  15.537 -0.3822  0.0458 -0.1777
 1753TIP3    H126750   0.100   6.097  15.479 -0.3725  1.1926 -1.7800
 1753TIP3    H226751   0.136   6.244  15.488 -2.5975  1.6740  0.0603
 1754TIP3   OH226752   6.275   4.207   2.508  0.8035 -0.3052 -0.3251
 1754TIP3    H126753   6.331   4.129   2.506  0.3718 -0.6273 -2.1208
 1754TIP3    H226754   6.324   4.273   2.460  0.4814  0.0168 -0.2120
 1755TIP3   OH226755   0.703   1.871   2.316  0.9707 -0.4914  0.4796
 1755TIP3    H126756   0.614   1.857   2.285  1.2343 -1.4217  0.1175
 1755TIP3    H226757   0.753   1.891   2.237  0.7313  2.1660  0.8872
 1756TIP3   OH226758   3.220   3.940  16.858 -0.5274 -0.7642  0.3309
 1756TIP3    H126759   3.272   3.917  16.782 -0.3997 -2.7565  0.9334
 1756TIP3    H226760   3.276   3.917  16.933 -1.4551 -0.9173  0.9950
 1757TIP3   OH226761   4.682   1.045  15.383  0.0779  0.0555  0.1392
 1757TIP3    H126762   4.615   1.050  15.314 -1.9275 -0.9615  1.9010
 1757TIP3    H226763   4.754   0.997  15.342 -0.6825  0.2509 -1.5113
 1758TIP3   OH226764   6.155   1.439   1.212 -0.0507 -0.0850 -0.0072
 1758TIP3    H126765   6.118   1.354   1.238  2.3034 -1.6128 -1.2509
 1758TIP3    H226766   6.195   1.473   1.292 -1.6280  0.2655  0.6798
 1759TIP3   OH226767   0.887   1.564  12.571  0.4528 -0.2704  1.4877
 1759TIP3    H126768   0.862   1.649  12.607 -1.1074  0.6271 -1.3673
 1759TIP3    H226769   0.808   1.510  12.579 -0.3222  0.2974 -1.2648
 1760TIP3   OH226770   6.221   3.787  10.304  0.2278  0.3158 -0.0231
 1760TIP3    H126771   6.228   3.700  10.341  0.1885  1.4271  2.8668
 1760TIP3    H226772   6.138   3.821  10.338  1.1438  2.1358  0.5273
 1761TIP3   OH226773   6.428   1.343  14.663  0.6004 -0.1828 -0.3670
 1761TIP3    H126774   6.415   1.432  14.631 -0.9063 -0.1606  0.2099
 1761TIP3    H226775   6.403   1.287  14.590  0.8551 -0.1377 -0.4900
 1762TIP3   OH226776   5.816   0.337  15.247 -0.2272  0.5319 -0.1731
 1762TIP3    H126777   5.844   0.366  15.334 -3.2068  0.2054  1.0461
 1762TIP3    H226778   5.856   0.251  15.236  0.8070  0.9064  0.5243
 1763TIP3   OH226779   2.478   0.044  12.554  0.1326  0.2005  0.3085
 1763TIP3    H126780   2.471   0.053  12.458 -1.0699 -0.4822  0.3087
 1763TIP3    H226781   2.537   0.115  12.580 -0.2974  1.0195 -0.8311
 1764TIP3   OH226782   0.289   3.891   1.444  0.3880  0.8744  0.6002
 1764TIP3    H126783   0.214   3.841   1.412  0.6015  0.1863  1.1591
 1764TIP3    H226784   0.259   3.982   1.444  0.5783  1.0338 -2.1818
 1765TIP3   OH226785   3.734   2.183  15.107  0.3792 -0.3112  0.5072
 1765TIP3    H126786   3.735   2.189  15.203 -1.1817  1.1210  0.4635
 1765TIP3    H226787   3.642   2.191  15.083  0.9189  1.4210 -1.2342
 1766TIP3   OH226788   1.242   3.851  16.417 -0.2398  0.4084  0.5155
 1766TIP3    H126789   1.236   3.820  16.326 -0.4992  0.5259  0.4883
 1766TIP3    H226790   1.152   3.878  16.438  0.1664  2.1152  0.1858
 1767TIP3   OH226791   6.254   5.067   5.107  0.7045 -0.4390 -0.0168
 1767TIP3    H126792   6.210   5.037   5.186  0.3300 -0.5860 -0.2822
 1767TIP3    H226793   6.219   5.013   5.037 -0.9590  1.4428 -0.7301
 1768TIP3   OH226794   2.091   4.236  12.772 -0.6585 -0.4176  0.6050
 1768TIP3    H126795   2.116   4.263  12.683  1.9652  0.0109  1.3876
 1768TIP3    H226796   2.043   4.154  12.759  0.2730 -0.7376 -1.1591
 1769TIP3   OH226797   5.293   2.863  14.126  0.1604 -0.1984  0.3052
 1769TIP3    H126798   5.216   2.903  14.085  0.8492 -2.3100 -3.4959
 1769TIP3    H226799   5.257   2.792  14.179 -0.6276  1.0443  1.5081
 1770TIP3   OH226800   2.732   0.210   6.017  0.0345  0.3722  0.5613
 1770TIP3    H126801   2.733   0.268   6.094 -1.1632 -0.0297  0.8946
 1770TIP3    H226802   2.643   0.175   6.015  0.4372 -0.6214 -0.2703
 1771TIP3   OH226803   5.232   6.303   3.827 -0.0320  0.4015  0.4865
 1771TIP3    H126804   5.222   6.389   3.787  3.4914 -0.0429 -1.8339
 1771TIP3    H226805   5.295   6.317   3.898  1.0624 -0.2560 -0.3102
 1772TIP3   OH226806   0.289   3.925  13.005  0.2846  0.8822  0.4928
 1772TIP3    H126807   0.324   3.872  12.933  0.6941  1.5388  0.1990
 1772TIP3    H226808   0.346   3.905  13.079 -0.7218 -0.5443  0.9415
 1773TIP3   OH226809   4.847   0.599   5.468 -0.0490  0.1773 -0.2718
 1773TIP3    H126810   4.824   0.513   5.433 -0.7327 -0.6286  1.9882
 1773TIP3    H226811   4.895   0.581   5.548  1.6840  1.9442 -0.8363
 1774TIP3   OH226812   5.259   5.950   6.239  1.0381  0.2463  0.7988
 1774TIP3    H126813   5.250   6.008   6.163  1.6539 -0.5747  0.0778
 1774TIP3    H226814   5.320   5.882   6.210 -0.7354 -1.5660  1.1081
 1775TIP3   OH226815   4.702   5.477   0.854 -0.2033 -0.3361  0.3445
 1775TIP3    H126816   4.656   5.548   0.899  0.9586  0.0803  0.9221
 1775TIP3    H226817   4.795   5.499   0.864  0.1249 -0.3447 -2.0565
 1776TIP3   OH226818   1.437   5.999  14.391 -0.0866  0.3585  0.2134
 1776TIP3    H126819   1.421   5.956  14.307 -0.7303  0.2040  0.4081
 1776TIP3    H226820   1.509   6.059  14.374 -0.3970  0.5290 -0.5187
 1777TIP3   OH226821   6.468   6.733  15.970  0.0955 -0.0527 -0.0470
 1777TIP3    H126822   6.391   6.678  15.956  0.8609 -1.5095  1.1913
 1777TIP3    H226823   6.432   6.822  15.977 -1.4331 -0.6503  0.2073
 1778TIP3   OH226824   2.353   4.831   3.882  0.6726  0.1248  0.4213
 1778TIP3    H126825   2.357   4.815   3.976 -1.3393 -0.7568  0.4036
 1778TIP3    H226826   2.272   4.881   3.869 -0.7991 -2.4380 -1.1256
 1779TIP3   OH226827   1.350   6.368   0.127 -0.4767 -0.3160 -0.3512
 1779TIP3    H126828   1.405   6.404   0.057 -0.2434 -0.8719 -0.4572
 1779TIP3    H226829   1.273   6.425   0.128 -0.9067 -0.8398 -1.6757
 1780TIP3   OH226830   1.007   5.930  10.549 -0.6517 -0.4010 -0.4106
 1780TIP3    H126831   0.981   5.849  10.594 -1.8570 -0.6749 -1.5403
 1780TIP3    H226832   0.965   6.000  10.599 -1.6715 -0.6765 -0.8495
 1781TIP3   OH226833   3.134   1.224  13.827  0.6455  0.3047  0.2083
 1781TIP3    H126834   3.127   1.315  13.799  0.3739 -0.0754 -1.0321
 1781TIP3    H226835   3.046   1.199  13.854  0.9596  0.7514  1.7539
 1782TIP3   OH226836   1.459   4.420  11.867  0.0193  0.7410 -0.8113
 1782TIP3    H126837   1.377   4.389  11.903  0.2208  2.3254  1.1492
 1782TIP3    H226838   1.526   4.388  11.928  0.4678  2.5710 -0.2806
 1783TIP3   OH226839   5.871   2.454   2.986  0.0813 -0.2265 -0.1548
 1783TIP3    H126840   5.810   2.393   2.944  0.9242 -0.2597 -1.4021
 1783TIP3    H226841   5.839   2.540   2.959 -0.5679 -0.1390  0.8479
 1784TIP3   OH226842   2.754   5.702   2.323 -0.4309 -0.2083 -0.3206
 1784TIP3    H126843   2.785   5.625   2.370 -0.4785 -0.5611 -0.8525
 1784TIP3    H226844   2.781   5.777   2.377  0.6939 -0.5363 -0.4026
 1785TIP3   OH226845   1.879   4.442   3.424 -0.1210  0.8392  0.0343
 1785TIP3    H126846   1.817   4.509   3.455 -0.4120  0.2578  0.7275
 1785TIP3    H226847   1.834   4.401   3.350 -0.8194  0.0379  0.8864
 1786TIP3   OH226848   0.534   5.066  16.613  0.0804  0.4969 -0.9603
 1786TIP3    H126849   0.513   5.091  16.703  0.0768  0.9844 -1.0932
 1786TIP3    H226850   0.454   5.081  16.564 -0.5610 -1.6604 -0.6990
 1787TIP3   OH226851   5.553   4.204   0.023  0.5660  0.3683  0.3378
 1787TIP3    H126852   5.614   4.154  -0.030 -1.0984 -0.4507 -0.9261
 1787TIP3    H226853   5.576   4.184   0.113  1.0508 -1.3258 -0.1280
 1788TIP3   OH226854   5.092   0.929  14.326  0.1075  0.9563 -0.3490
 1788TIP3    H126855   5.105   1.022  14.344 -1.4698  1.0343  0.6722
 1788TIP3    H226856   5.083   0.889  14.413  0.2490 -0.0622 -0.7867
 1789TIP3   OH226857   4.425   5.310  15.925 -0.3219  0.0500 -0.1795
 1789TIP3    H126858   4.405   5.268  15.842  1.4932 -0.2195 -0.5138
 1789TIP3    H226859   4.343   5.304  15.975 -0.7551 -1.9334 -1.0214
 1790TIP3   OH226860   3.136   3.279   4.149  0.4628 -0.1579  0.2730
 1790TIP3    H126861   3.181   3.348   4.099 -0.7664  0.6255  0.2000
 1790TIP3    H226862   3.113   3.322   4.232 -0.3890 -0.4517  0.1923
 1791TIP3   OH226863   3.917   5.979  11.629  0.2302  0.2315  0.3846
 1791TIP3    H126864   3.876   5.969  11.542  0.3965 -0.0804  0.3418
 1791TIP3    H226865   3.868   5.918  11.685  0.2081  0.3380  0.4804
 1792TIP3   OH226866   0.851   5.989   0.549  0.5128  0.0054  0.2323
 1792TIP3    H126867   0.802   6.072   0.543 -0.6408 -0.7412 -4.0182
 1792TIP3    H226868   0.830   5.956   0.637 -1.8165  2.5503  0.8056
 1793TIP3   OH226869   2.806   0.412  13.347  0.2047 -0.0183 -0.5195
 1793TIP3    H126870   2.757   0.337  13.313  1.7616  0.1053 -3.3988
 1793TIP3    H226871   2.738   0.475  13.372 -1.1061 -1.7687  0.5341
 1794TIP3   OH226872   6.716   1.199   3.706  0.4224 -0.0077 -0.2245
 1794TIP3    H126873   6.722   1.149   3.787 -1.0990 -0.3715 -0.3070
 1794TIP3    H226874   6.804   1.236   3.694  0.3014  1.3993  2.4122
 1795TIP3   OH226875   3.752   0.062   0.777 -0.2060 -0.1806 -0.0538
 1795TIP3    H126876   3.739   0.151   0.810  2.5798 -0.0669  1.0099
 1795TIP3    H226877   3.728   0.068   0.684 -1.4724  1.2699  0.3098
 1796TIP3   OH226878   3.447   2.927  14.077  0.4343  0.1810  0.3572
 1796TIP3    H126879   3.414   2.861  14.017  1.7602 -0.0885 -0.1103
 1796TIP3    H226880   3.395   2.917  14.156 -0.2027 -0.5913 -0.1559
 1797TIP3   OH226881   6.725   0.624   5.083  0.2957 -0.4846 -0.0191
 1797TIP3    H126882   6.776   0.622   5.002  0.6888 -0.5199  0.2306
 1797TIP3    H226883   6.787   0.653   5.150 -0.3626  0.8806  0.0263
 1798TIP3   OH226884   2.912   3.812  15.901  0.0334 -0.0514  0.2473
 1798TIP3    H126885   2.937   3.810  15.994  1.1374 -0.1791 -0.0465
 1798TIP3    H226886   2.849   3.740  15.892  0.2754 -0.3404  0.7970
 1799TIP3   OH226887   0.070   1.632  16.437 -0.3606  0.1672 -0.3162
 1799TIP3    H126888   0.101   1.601  16.521  0.5307 -0.7544 -0.9659
 1799TIP3    H226889  -0.025   1.617  16.439 -0.6928  2.1522  1.3189
 1800TIP3   OH226890   4.220   0.258  17.080  0.2489  0.4007  0.0876
 1800TIP3    H126891   4.162   0.268  17.005 -0.4244  2.4936  0.8091
 1800TIP3    H226892   4.184   0.184  17.128  0.0845 -0.3157 -1.1038
 1801TIP3   OH226893   5.103   3.485   0.149  0.5824  0.4038  0.5058
 1801TIP3    H126894   5.188   3.483   0.194  0.6178 -0.6189  0.4326
 1801TIP3    H226895   5.112   3.420   0.080  0.1344  1.1488 -0.2663
 1802TIP3   OH226896   1.602   1.442  11.269 -0.1379 -0.4879  0.0445
 1802TIP3    H126897   1.595   1.511  11.203 -1.1529 -0.7744 -0.1731
 1802TIP3    H226898   1.657   1.375  11.229 -1.0916 -0.8491 -0.6926
 1803TIP3   OH226899   3.839   1.233  14.777  0.3024 -0.1580  0.2685
 1803TIP3    H126900   3.805   1.316  14.812  1.2348 -0.5865  2.3365
 1803TIP3    H226901   3.876   1.256  14.692 -0.8079  1.2371  0.1256
 1804TIP3   OH226902   5.280   0.480   0.998 -0.6833 -0.4230  0.8381
 1804TIP3    H126903   5.302   0.389   1.014  0.7848 -0.5631 -1.4786
 1804TIP3    H226904   5.194   0.477   0.956 -0.7208 -0.7296  0.9346
 1805TIP3   OH226905   6.356   6.307   1.997  0.3394  0.2666 -0.1532
 1805TIP3    H126906   6.394   6.236   1.946  0.9247 -0.0891  0.7630
 1805TIP3    H226907   6.282   6.268   2.042  1.7365 -0.2834  1.7995
 1806TIP3   OH226908   2.392   4.836   4.148  0.2863  0.3698 -0.1237
 1806TIP3    H126909   2.396   4.931   4.146  0.0700  0.3742 -0.4634
 1806TIP3    H226910   2.340   4.815   4.225  0.6203  0.5151  0.1411
 1807TIP3   OH226911   6.489   4.308   1.029 -0.1331 -0.5146  0.5147
 1807TIP3    H126912   6.428   4.235   1.044 -0.6840  0.1365  1.5256
 1807TIP3    H226913   6.439   4.386   1.053  0.4606  0.2120 -0.5251
 1808TIP3   OH226914   4.211   0.370  12.219  0.8078 -0.7553  0.3215
 1808TIP3    H126915   4.160   0.426  12.160 -0.3082 -2.6996 -0.6545
 1808TIP3    H226916   4.258   0.431  12.275 -1.1857  1.1496  0.0439
 1809TIP3   OH226917   1.144   1.147   6.137 -0.0098  0.0640 -0.1817
 1809TIP3    H126918   1.148   1.221   6.196  1.4114 -0.5483  0.5406
 1809TIP3    H226919   1.077   1.090   6.174  0.8370 -0.2927  0.8435
 1810TIP3   OH226920   1.761   3.488   4.923 -0.2653 -0.4182  0.1974
 1810TIP3    H126921   1.783   3.514   4.834  0.8169 -1.6255  0.0825
 1810TIP3    H226922   1.687   3.544   4.947  1.5041  2.3027 -0.2453
 1811TIP3   OH226923   4.449   4.587  11.550 -0.1995 -0.4953 -0.3466
 1811TIP3    H126924   4.476   4.659  11.606 -2.0085 -0.0209 -0.0335
 1811TIP3    H226925   4.519   4.579  11.486  0.3518  1.0971  0.0135
 1812TIP3   OH226926   2.565   0.286  16.866  0.8760  0.4165  0.1691
 1812TIP3    H126927   2.548   0.360  16.925 -0.7211 -0.8139  1.3429
 1812TIP3    H226928   2.509   0.302  16.790  1.1532  0.8201  0.0480
 1813TIP3   OH226929   1.801   0.958   2.018  0.3472 -0.0961 -0.5542
 1813TIP3    H126930   1.721   0.939   1.968 -0.5950 -0.1705  0.9356
 1813TIP3    H226931   1.840   0.872   2.035 -0.2482 -0.2092  0.2863
 1814TIP3   OH226932   6.065   4.599  10.756  0.0922 -0.0367  0.1930
 1814TIP3    H126933   6.059   4.606  10.661  0.4804 -1.5365  0.0505
 1814TIP3    H226934   6.084   4.689  10.785 -0.1136  0.4520 -1.1167
 1815TIP3   OH226935   6.630   2.170   0.791 -0.2460 -0.0375  0.9820
 1815TIP3    H126936   6.555   2.128   0.749 -0.3071  0.2533  0.7957
 1815TIP3    H226937   6.698   2.103   0.792 -0.4755 -0.2721  1.0633
 1816TIP3   OH226938   6.419   4.218  14.821 -0.0758  0.2542 -0.3279
 1816TIP3    H126939   6.351   4.209  14.754 -0.3604 -4.6222  0.3023
 1816TIP3    H226940   6.373   4.254  14.897 -1.3920 -0.7121 -0.6388
 1817TIP3   OH226941   5.275   0.185   0.994 -0.3071  0.7916  0.4629
 1817TIP3    H126942   5.245   0.120   1.057 -0.9213 -1.1567 -1.7234
 1817TIP3    H226943   5.370   0.174   0.992 -0.4012 -0.0150  0.1459
 1818TIP3   OH226944   1.820   4.495  10.992 -0.5132 -0.2870 -0.9137
 1818TIP3    H126945   1.878   4.483  10.918  0.0854 -1.8877 -0.2198
 1818TIP3    H226946   1.771   4.413  10.998 -0.5774 -0.1728  0.4132
 1819TIP3   OH226947   5.688   3.417   1.240  0.3913  0.1148 -0.2939
 1819TIP3    H126948   5.630   3.474   1.291 -0.2636  0.1440 -1.0511
 1819TIP3    H226949   5.741   3.372   1.306 -0.5013  0.0798  0.4262
 1820TIP3   OH226950   3.641   3.810   4.116  0.1582 -0.4546 -0.1273
 1820TIP3    H126951   3.553   3.781   4.139 -0.2450 -0.4761 -1.5757
 1820TIP3    H226952   3.654   3.891   4.166 -1.6626  0.9064 -1.6994
 1821TIP3   OH226953   1.649   4.579  12.305 -0.1845 -0.4316 -0.4599
 1821TIP3    H126954   1.682   4.507  12.252 -2.0005 -1.4024 -0.3427
 1821TIP3    H226955   1.665   4.552  12.395 -0.4560 -0.4951 -0.4289
 1822TIP3   OH226956   1.138   2.745  13.115  0.2633 -0.0713 -0.4524
 1822TIP3    H126957   1.052   2.761  13.155  1.6711  2.4788  1.8559
 1822TIP3    H226958   1.183   2.687  13.177 -0.0277 -2.2327 -2.1415
 1823TIP3   OH226959   5.522   6.170  12.815 -0.3902 -0.3303 -0.1024
 1823TIP3    H126960   5.463   6.223  12.761 -1.4435 -0.2555  1.0824
 1823TIP3    H226961   5.468   6.097  12.846  0.4166 -0.8193  0.2007
 1824TIP3   OH226962   4.076   5.524   2.822  0.9213 -0.5325 -0.3642
 1824TIP3    H126963   4.064   5.492   2.912  0.3343  2.0432  0.5575
 1824TIP3    H226964   4.151   5.473   2.789  0.7372 -2.0157  1.3209
 1825TIP3   OH226965   2.452   0.650   1.916 -0.2712  0.6127 -0.3087
 1825TIP3    H126966   2.412   0.571   1.953 -1.3370  0.7949 -1.0046
 1825TIP3    H226967   2.519   0.617   1.857 -0.8059  0.2012 -0.7053
 1826TIP3   OH226968   1.874   1.661  14.440 -0.7490  0.4189  0.5139
 1826TIP3    H126969   1.848   1.704  14.359 -0.0668 -1.6724 -0.8999
 1826TIP3    H226970   1.801   1.676  14.500 -0.1384  4.2522  0.5050
 1827TIP3   OH226971   2.579   2.030  13.474  0.1822  0.0727 -0.3986
 1827TIP3    H126972   2.517   2.102  13.476  0.5391  0.3823  0.6411
 1827TIP3    H226973   2.647   2.056  13.537  1.4707 -0.1571 -1.6507
 1828TIP3   OH226974   3.364   1.770   2.026 -0.1698  0.0658 -0.7255
 1828TIP3    H126975   3.438   1.807   1.977  1.2847 -0.6634  0.8238
 1828TIP3    H226976   3.366   1.676   2.006 -0.6361  0.0236 -0.6001
 1829TIP3   OH226977   1.318   5.938   2.313  0.3515 -0.0912 -0.2652
 1829TIP3    H126978   1.237   5.889   2.324 -0.6462  1.2564 -1.3237
 1829TIP3    H226979   1.336   5.934   2.219  0.5678  1.0782 -0.2832
 1830TIP3   OH226980   2.446   0.310   0.360  0.1008  0.1584  0.5905
 1830TIP3    H126981   2.477   0.388   0.406  1.9849 -0.0582 -0.2389
 1830TIP3    H226982   2.469   0.325   0.269  4.2573 -2.9370  0.8331
 1831TIP3   OH226983   3.089   4.775   5.346 -0.0401 -0.4137  0.2870
 1831TIP3    H126984   3.057   4.843   5.287  2.0291 -0.7181 -1.2686
 1831TIP3    H226985   3.121   4.823   5.423 -3.1928 -0.0471  1.5190
 1832TIP3   OH226986   2.532   3.876  12.892  0.8183  0.0130 -0.2812
 1832TIP3    H126987   2.615   3.914  12.863  0.4629 -0.2167 -1.6591
 1832TIP3    H226988   2.493   3.944  12.947  3.0459 -0.8265  2.6555
 1833TIP3   OH226989   4.749   5.701   4.612 -0.0181  0.1560  0.3308
 1833TIP3    H126990   4.679   5.657   4.564 -1.9472  0.7333  2.3858
 1833TIP3    H226991   4.747   5.662   4.699 -0.3098  2.6468  1.5544
 1834TIP3   OH226992   5.160   5.907  14.312  0.3549 -0.1924  0.0559
 1834TIP3    H126993   5.171   5.814  14.293  1.1323 -0.1973  0.4951
 1834TIP3    H226994   5.076   5.930  14.273 -1.1641 -1.7175  2.1785
 1835TIP3   OH226995   1.584   6.669  16.995  0.3297  0.1066 -0.1164
 1835TIP3    H126996   1.567   6.743  16.938 -1.1248 -0.1885 -0.1062
 1835TIP3    H226997   1.647   6.702  17.059 -0.5528  1.4422  0.0958
 1836TIP3   OH226998   3.042   5.881   0.094  0.0882  0.2636  0.0852
 1836TIP3    H126999   2.989   5.811   0.131 -0.5294 -0.3446 -1.8187
 1836TIP3    H227000   3.059   5.940   0.167 -2.0571 -0.2329  1.0555
 1837TIP3   OH227001   4.383   3.333  12.950 -0.2968  0.2747 -0.1777
 1837TIP3    H127002   4.349   3.373  13.030 -1.2030  1.3700 -1.0661
 1837TIP3    H227003   4.311   3.341  12.887  0.4366 -0.4402 -1.1377
 1838TIP3   OH227004   0.961   4.056   0.747 -0.6121  0.3470  0.0533
 1838TIP3    H127005   0.883   4.017   0.786 -1.3673  0.8931 -0.8545
 1838TIP3    H227006   1.031   3.993   0.763 -1.2596 -0.1858  0.8190
 1839TIP3   OH227007   0.740   2.506   1.135 -0.0204 -0.0516 -0.3825
 1839TIP3    H127008   0.750   2.450   1.212 -1.2587 -0.3421 -0.4060
 1839TIP3    H227009   0.765   2.593   1.165  1.0043 -0.4234 -0.0865
 1840TIP3   OH227010   0.820   1.550  15.457  0.2005 -0.3954 -0.0024
 1840TIP3    H127011   0.898   1.556  15.513  0.4903 -0.2780 -0.4119
 1840TIP3    H227012   0.846   1.593  15.376  0.2369 -1.7242 -0.7213
 1841TIP3   OH227013   5.258   5.250   4.400  0.4347  0.7052 -0.4371
 1841TIP3    H127014   5.270   5.334   4.445 -1.2488  1.0927 -0.6398
 1841TIP3    H227015   5.298   5.185   4.458  1.3974  1.5880 -0.0777
 1842TIP3   OH227016   2.700   6.032   5.976  0.0106  0.3078  0.6310
 1842TIP3    H127017   2.793   6.015   5.962 -0.1253  0.6105 -0.7735
 1842TIP3    H227018   2.698   6.117   6.018  0.3877 -0.0342  1.3712
 1843TIP3   OH227019   2.715   4.534   2.375 -0.0305 -0.3810 -0.1056
 1843TIP3    H127020   2.623   4.511   2.385 -0.6271  1.2683 -1.3829
 1843TIP3    H227021   2.748   4.471   2.311 -0.7522  0.1498 -1.0187
 1844TIP3   OH227022   2.603   4.723  16.513  0.5144 -0.1237  0.8222
 1844TIP3    H127023   2.528   4.781  16.502  0.8136 -0.1026 -1.6494
 1844TIP3    H227024   2.660   4.742  16.439  2.1263 -1.3914  1.6575
 1845TIP3   OH227025   5.575   5.002   3.774 -0.3451 -0.3489 -0.1898
 1845TIP3    H127026   5.589   5.067   3.705 -2.4875 -1.0597 -1.3906
 1845TIP3    H227027   5.552   5.054   3.851 -0.6237  0.3748 -0.7508
 1846TIP3   OH227028   5.099   1.955  15.514 -0.0175 -0.2116 -0.0874
 1846TIP3    H127029   5.062   1.871  15.541  0.9347 -0.4446  0.5222
 1846TIP3    H227030   5.049   2.021  15.563 -2.8717 -0.1289 -2.7664
 1847TIP3   OH227031   2.747   4.665   2.615  0.2415 -0.2721  0.4790
 1847TIP3    H127032   2.675   4.729   2.612  1.3512  1.0006 -0.0116
 1847TIP3    H227033   2.742   4.619   2.531 -0.6647 -0.9776  0.9011
 1848TIP3   OH227034   2.501   6.802  10.748 -0.7363 -0.1978  0.5030
 1848TIP3    H127035   2.461   6.857  10.815 -1.9015 -0.5497  0.1232
 1848TIP3    H227036   2.543   6.731  10.797 -0.7536  0.0676  0.9018
 1849TIP3   OH227037   1.576   0.580   1.359 -0.2317  0.5784  0.0917
 1849TIP3    H127038   1.553   0.487   1.368  1.0808  0.3183  1.0461
 1849TIP3    H227039   1.517   0.613   1.291  1.4414 -1.7180 -2.7141
 1850TIP3   OH227040   1.731   4.594  12.789 -0.0123  0.1387 -0.1946
 1850TIP3    H127041   1.668   4.661  12.819  1.6486  1.3251  0.7955
 1850TIP3    H227042   1.790   4.582  12.863  1.0310 -0.8467 -1.1461
 1851TIP3   OH227043   0.238   2.784  12.247  0.2509  0.1594 -0.2275
 1851TIP3    H127044   0.284   2.851  12.297 -1.0447 -0.0505  1.2999
 1851TIP3    H227045   0.302   2.713  12.237  0.8890  0.6748  0.1265
 1852TIP3   OH227046   0.166   2.062   2.794 -0.1579  0.1607  0.1587
 1852TIP3    H127047   0.150   2.098   2.882 -0.2954  2.1177 -0.6115
 1852TIP3    H227048   0.261   2.058   2.787 -0.1481 -1.0278  0.7654
 1853TIP3   OH227049   2.498   1.158   2.941 -0.2637  0.0935 -0.4453
 1853TIP3    H127050   2.507   1.065   2.925 -0.9372  0.1498 -1.2141
 1853TIP3    H227051   2.485   1.197   2.854  1.4889  1.0974 -0.3059
 1854TIP3   OH227052   3.652   6.122  10.798  0.7679  0.3254 -0.0642
 1854TIP3    H127053   3.602   6.184  10.746  1.8205 -0.6495 -2.3720
 1854TIP3    H227054   3.743   6.152  10.791  1.0786 -0.5093  0.2150
 1855TIP3   OH227055   0.138   5.520   1.875  0.1101 -0.6549 -0.0136
 1855TIP3    H127056   0.095   5.509   1.960 -0.1735  2.6130  0.3856
 1855TIP3    H227057   0.067   5.514   1.811 -0.0340 -0.8506  0.1620
 1856TIP3   OH227058   3.533   6.806  13.081  0.0224  0.2288  0.1030
 1856TIP3    H127059   3.554   6.882  13.027  1.2936  0.7553  1.3025
 1856TIP3    H227060   3.450   6.775  13.046  1.2542 -0.0727 -2.8364
 1857TIP3   OH227061   2.175   3.318  11.052 -0.4276 -0.0245 -0.1028
 1857TIP3    H127062   2.263   3.336  11.018 -0.4782  0.1986 -0.1189
 1857TIP3    H227063   2.189   3.254  11.122  0.0589  1.9217  1.6839
 1858TIP3   OH227064   2.517   0.113  14.891 -0.2704 -0.1531  0.7345
 1858TIP3    H127065   2.487   0.204  14.892 -2.3359 -0.7654  1.8497
 1858TIP3    H227066   2.438   0.063  14.871  0.4101 -1.8017  1.9497
 1859TIP3   OH227067   5.619   2.287  15.631  0.5078  0.1952  0.7725
 1859TIP3    H127068   5.574   2.245  15.704 -0.9546  1.5615  0.7177
 1859TIP3    H227069   5.657   2.215  15.581 -2.1090 -1.1242  0.5295
 1860TIP3   OH227070   5.344   5.465  13.546  0.0331 -0.3774  0.8028
 1860TIP3    H127071   5.430   5.424  13.544  0.0043 -0.4052 -0.3084
 1860TIP3    H227072   5.344   5.518  13.626  0.9496 -0.6389  0.9825
 1861TIP3   OH227073   4.779   2.369   5.487 -0.1524  0.1531 -0.2206
 1861TIP3    H127074   4.693   2.338   5.515 -0.2711 -0.4818 -1.2483
 1861TIP3    H227075   4.801   2.438   5.549 -1.6994  0.7864 -0.3376
 1862TIP3   OH227076   4.871   2.911   5.084  0.3011  0.1670  0.1085
 1862TIP3    H127077   4.828   2.934   5.166 -0.9069 -1.2496 -0.0787
 1862TIP3    H227078   4.858   2.817   5.076  0.7976  0.2065 -1.4934
 1863TIP3   OH227079   2.520   2.294   5.887  0.3589 -0.0951 -0.2285
 1863TIP3    H127080   2.448   2.340   5.931 -0.7732 -0.7060 -1.3647
 1863TIP3    H227081   2.491   2.203   5.882  1.6826 -0.5565  0.2041
 1864TIP3   OH227082   4.647   6.092   2.187  0.0252  0.1418  0.9334
 1864TIP3    H127083   4.625   6.020   2.127  0.0142 -0.4143  1.5893
 1864TIP3    H227084   4.588   6.163   2.162 -0.5502 -0.3655  0.8147
 1865TIP3   OH227085   3.080   2.238  15.888 -0.2521  0.4662  0.0170
 1865TIP3    H127086   3.057   2.328  15.912  0.3813  0.3293  1.2507
 1865TIP3    H227087   3.167   2.225  15.927 -0.1289 -0.5258 -0.5621
 1866TIP3   OH227088   2.537   0.762  12.445 -0.2075 -0.1319  0.2350
 1866TIP3    H127089   2.565   0.734  12.532 -0.4105  0.7800  0.6121
 1866TIP3    H227090   2.617   0.758  12.392 -0.0140 -0.4003  0.5419
 1867TIP3   OH227091   3.084   2.402  11.502 -0.5136 -0.1605  0.3962
 1867TIP3    H127092   3.161   2.456  11.485  0.9083 -1.9819  0.6784
 1867TIP3    H227093   3.081   2.394  11.598 -1.0435 -0.1266  0.3846
 1868TIP3   OH227094   0.721   2.516   2.863  0.9107  0.2806  0.2476
 1868TIP3    H127095   0.650   2.576   2.885  0.8167  0.2868 -0.0597
 1868TIP3    H227096   0.716   2.507   2.767  0.3621 -0.9036  0.3706
 1869TIP3   OH227097   4.322   3.643  14.192  0.1120  0.1737 -0.3023
 1869TIP3    H127098   4.412   3.608  14.194  0.3283  0.7216 -0.3861
 1869TIP3    H227099   4.323   3.706  14.120 -1.1395 -1.9524 -2.3188
 1870TIP3   OH227100   1.780   4.271   6.662 -0.1119  0.2420  0.0504
 1870TIP3    H127101   1.693   4.307   6.644 -1.0846 -0.8611  2.2220
 1870TIP3    H227102   1.779   4.184   6.623 -0.0981  0.0949  0.3784
 1871TIP3   OH227103   4.442   6.650   1.563 -0.0033  0.3893  0.2651
 1871TIP3    H127104   4.416   6.732   1.606 -1.7393 -0.6549  1.3462
 1871TIP3    H227105   4.361   6.599   1.559  0.8233 -0.8997 -1.3024
 1872TIP3   OH227106   2.401   4.575   0.180  0.2701  0.4649  0.3077
 1872TIP3    H127107   2.454   4.646   0.216 -0.3545  0.6437  0.9092
 1872TIP3    H227108   2.436   4.561   0.092  1.2533  0.6228  0.6608
 1873TIP3   OH227109   6.493   0.130  13.171  0.1428  0.1068  1.1567
 1873TIP3    H127110   6.541   0.128  13.088  2.4655  0.1397  2.4157
 1873TIP3    H227111   6.472   0.038  13.189 -1.4663  0.2058 -0.0056
 1874TIP3   OH227112   1.375   6.175  16.157 -0.2703 -0.0150  0.6184
 1874TIP3    H127113   1.320   6.167  16.235 -0.3441  1.4410  0.7402
 1874TIP3    H227114   1.372   6.268  16.134  2.2995  0.1704  0.7385
 1875TIP3   OH227115   6.799   1.623  10.760  0.0525 -0.3776 -0.1546
 1875TIP3    H127116   6.815   1.529  10.770  1.6613 -0.3720 -2.1124
 1875TIP3    H227117   6.773   1.633  10.669 -1.2083  0.9697  0.3268
 1876TIP3   OH227118   5.026   1.903  16.391 -0.1951  0.4522 -0.1364
 1876TIP3    H127119   4.953   1.920  16.332  0.5347 -0.3329 -1.3096
 1876TIP3    H227120   5.046   1.810  16.379 -0.0750  0.2520  1.4311
 1877TIP3   OH227121   5.823   0.834   5.128  0.4283 -0.6214  0.5059
 1877TIP3    H127122   5.906   0.825   5.175 -0.0066 -1.9938  1.0717
 1877TIP3    H227123   5.758   0.850   5.197 -0.3330 -3.4006  0.5516
 1878TIP3   OH227124   3.676   2.623   4.207  0.7209  0.2684  0.2941
 1878TIP3    H127125   3.631   2.616   4.123  0.7500  2.3323  0.0565
 1878TIP3    H227126   3.724   2.705   4.202  0.8812  0.3554  2.2788
 1879TIP3   OH227127   0.384   3.074  13.246 -0.0414 -0.0404  0.3604
 1879TIP3    H127128   0.444   3.056  13.319  0.4383  0.3115  0.0649
 1879TIP3    H227129   0.442   3.104  13.176 -0.2720 -2.2370 -0.8156
 1880TIP3   OH227130   4.795   3.287  12.532 -0.2923  0.2124 -0.2013
 1880TIP3    H127131   4.847   3.226  12.479 -0.3131  0.1605 -0.1619
 1880TIP3    H227132   4.803   3.253  12.621 -1.7666 -0.7767 -0.4185
 1881TIP3   OH227133   5.730   2.328  11.942  0.3860 -0.6979 -0.2013
 1881TIP3    H127134   5.672   2.360  12.011  1.2184 -1.1284  0.7161
 1881TIP3    H227135   5.712   2.235  11.935  0.9348 -0.8274  0.0623
 1882TIP3   OH227136   5.676   6.256   0.252 -0.2355 -0.0470  0.2346
 1882TIP3    H127137   5.667   6.171   0.209 -1.1423  0.5986 -0.9282
 1882TIP3    H227138   5.767   6.260   0.281  0.6213 -0.2851 -2.1987
 1883TIP3   OH227139   2.926   2.377  13.558  0.3897  0.4124 -0.7016
 1883TIP3    H127140   2.965   2.290  13.563  0.9576  0.6628 -0.6107
 1883TIP3    H227141   2.991   2.434  13.600 -0.1252  0.8295 -0.4614
 1884TIP3   OH227142   4.574   0.551   5.261 -0.1948  0.1669 -0.0283
 1884TIP3    H127143   4.659   0.540   5.216  1.2244  0.2583  2.4708
 1884TIP3    H227144   4.534   0.627   5.218  1.9335  1.4068  0.0455
 1885TIP3   OH227145   3.326   0.233   1.261  0.3564 -0.1255 -0.4046
 1885TIP3    H127146   3.331   0.220   1.167  1.2424  1.3050 -0.5941
 1885TIP3    H227147   3.417   0.236   1.290  0.1198  0.6443  0.3001
 1886TIP3   OH227148   5.075   6.490   5.947  0.5461 -0.5070 -0.0098
 1886TIP3    H127149   5.171   6.492   5.945  0.5613  1.1123  0.8328
 1886TIP3    H227150   5.051   6.561   6.006 -1.2640  1.6281 -2.9860
 1887TIP3   OH227151   6.275   6.019   3.437 -0.1580 -0.2595  0.6385
 1887TIP3    H127152   6.356   5.980   3.404 -1.2142  0.4005 -3.2328
 1887TIP3    H227153   6.209   5.950   3.429 -0.6746  0.2633  0.2702
 1888TIP3   OH227154   2.396   5.694  16.850  0.2072  0.2155  0.7031
 1888TIP3    H127155   2.445   5.616  16.825  0.8471  0.6725  0.4854
 1888TIP3    H227156   2.326   5.701  16.786 -0.6509 -0.8976  1.4870
 1889TIP3   OH227157   3.989   5.207   3.561 -0.4472 -0.2501 -0.0269
 1889TIP3    H127158   4.084   5.210   3.573 -0.5344 -0.0116  0.6454
 1889TIP3    H227159   3.959   5.295   3.581 -0.9496 -0.6502  1.0584
 1890TIP3   OH227160   3.538   4.489  15.521  0.3938  0.4735 -0.3441
 1890TIP3    H127161   3.536   4.405  15.565  0.1529 -0.0773 -1.3693
 1890TIP3    H227162   3.484   4.477  15.443 -1.0641  2.0847  0.3446
 1891TIP3   OH227163   5.498   5.531   5.757  0.0594  0.0160  0.1890
 1891TIP3    H127164   5.439   5.456   5.767 -0.1641  0.1641 -0.0335
 1891TIP3    H227165   5.472   5.591   5.827 -0.5127  0.3848 -0.3253
 1892TIP3   OH227166   6.109   0.888  14.317  0.1107  0.3298 -0.0052
 1892TIP3    H127167   6.134   0.880  14.409 -1.1646 -0.8780  0.2666
 1892TIP3    H227168   6.160   0.962  14.284  1.7980 -0.2302  1.2439
 1893TIP3   OH227169   2.019   4.850   0.943 -0.2420  0.2904 -0.0212
 1893TIP3    H127170   2.001   4.756   0.942  1.4851 -0.0934  1.0489
 1893TIP3    H227171   2.114   4.856   0.953 -0.4488  2.1411  1.2083
 1894TIP3   OH227172   1.501   1.537   0.278 -0.5653 -0.3927 -0.0856
 1894TIP3    H127173   1.561   1.571   0.345 -0.4606  0.4114 -0.5696
 1894TIP3    H227174   1.545   1.556   0.195 -1.4742  0.1951 -0.4491
 1895TIP3   OH227175   2.088   3.580   6.345  0.0005  0.4655 -0.4981
 1895TIP3    H127176   2.087   3.554   6.437  0.4018 -2.1338 -1.1414
 1895TIP3    H227177   2.008   3.542   6.308  0.0468  1.1317 -1.3036
 1896TIP3   OH227178   1.540   4.213   1.559  0.3031 -0.1275 -0.1155
 1896TIP3    H127179   1.582   4.136   1.599  2.7189  1.0599 -0.1763
 1896TIP3    H227180   1.501   4.259   1.633  0.7586 -0.2956  0.2370
 1897TIP3   OH227181   0.975   1.525   0.431  0.1075 -0.3137 -0.7074
 1897TIP3    H127182   1.056   1.553   0.388 -0.1776  1.8891  0.0660
 1897TIP3    H227183   0.950   1.600   0.485 -2.2453 -1.0876 -0.6306
 1898TIP3   OH227184   3.424   0.132   3.393  0.2590  0.2025  0.4281
 1898TIP3    H127185   3.514   0.157   3.370 -0.0939  1.1599  0.0317
 1898TIP3    H227186   3.405   0.057   3.336  1.0802 -0.5345  1.1025
 1899TIP3   OH227187   3.835   5.921  12.562 -0.0876  0.4665  0.2495
 1899TIP3    H127188   3.822   5.908  12.468  0.6065  2.2583 -0.1363
 1899TIP3    H227189   3.929   5.916  12.574 -0.2369 -0.9292  1.0931
 1900TIP3   OH227190   0.832   3.480  12.679  0.2024 -0.6348  0.0127
 1900TIP3    H127191   0.865   3.548  12.619  0.3593 -0.4765  0.2767
 1900TIP3    H227192   0.791   3.415  12.621 -0.2273 -0.1640 -0.2217
 1901TIP3   OH227193   1.178   0.474  12.125  0.3370  0.1677 -0.2239
 1901TIP3    H127194   1.199   0.474  12.218 -0.9289 -1.7870  0.1290
 1901TIP3    H227195   1.137   0.389  12.109  0.1880  0.5819 -2.5022
 1902TIP3   OH227196   5.398   0.226  16.884  0.0863  0.1252  0.0765
 1902TIP3    H127197   5.375   0.138  16.914 -0.7580  0.6461  1.0048
 1902TIP3    H227198   5.449   0.264  16.956 -1.0807  1.0242  0.4503
 1903TIP3   OH227199   5.122   2.850  10.955  0.9102  0.2291 -0.0032
 1903TIP3    H127200   5.038   2.892  10.937  0.6766 -0.4876 -0.6017
 1903TIP3    H227201   5.177   2.872  10.880  0.5389 -1.1585 -0.7179
 1904TIP3   OH227202   3.419   1.329   0.851 -0.5235  0.1537  0.4341
 1904TIP3    H127203   3.507   1.316   0.885 -1.0070 -0.2901  1.5492
 1904TIP3    H227204   3.421   1.291   0.763 -0.2639 -2.1754  1.3750
 1905TIP3   OH227205   2.792   5.510   1.263 -0.0881  0.2744  0.1820
 1905TIP3    H127206   2.714   5.471   1.300  0.0514  0.6229  0.8513
 1905TIP3    H227207   2.823   5.445   1.199  0.7189 -1.2244  1.9879
 1906TIP3   OH227208   6.018   5.389  14.725 -0.3143  0.2381 -0.0061
 1906TIP3    H127209   6.096   5.369  14.776 -0.5410  0.4262  0.4175
 1906TIP3    H227210   6.009   5.315  14.665  1.0045  0.8942 -1.0625
 1907TIP3   OH227211   6.809   2.398  13.769 -0.4332  0.1461  0.8479
 1907TIP3    H127212   6.899   2.416  13.744 -0.9643  0.7302 -0.7433
 1907TIP3    H227213   6.816   2.356  13.855  1.3641 -0.1503  0.5963
 1908TIP3   OH227214   0.176   4.736  11.801  0.0472  0.1936 -0.7669
 1908TIP3    H127215   0.118   4.791  11.748 -0.7543 -0.9443 -1.1114
 1908TIP3    H227216   0.260   4.738  11.755 -0.2455  0.3578 -1.2973
 1909TIP3   OH227217   0.982   2.266  15.751 -0.2530 -0.3508 -0.3544
 1909TIP3    H127218   0.952   2.353  15.723 -2.1420 -0.5033  0.9807
 1909TIP3    H227219   1.075   2.277  15.767 -0.5152  1.5559  0.1228
 1910TIP3   OH227220   1.547   4.753  13.442 -0.1141  0.1551  0.3753
 1910TIP3    H127221   1.495   4.725  13.517  1.1890  0.1316  1.3005
 1910TIP3    H227222   1.634   4.716  13.458  1.7730  4.4605  1.6843
 1911TIP3   OH227223   2.461   5.288  11.642  0.1777 -0.2327 -0.8748
 1911TIP3    H127224   2.466   5.230  11.718 -0.7197  0.0334 -0.6096
 1911TIP3    H227225   2.518   5.246  11.577  1.9673  0.1937  0.3577
 1912TIP3   OH227226   0.741   6.743  11.494 -0.0073  0.0582 -0.7797
 1912TIP3    H127227   0.721   6.802  11.567 -0.8859 -0.0439 -0.9207
 1912TIP3    H227228   0.812   6.688  11.526  1.4340  1.7246 -0.9342
 1913TIP3   OH227229   4.989   1.082   2.597 -0.2386  0.4295 -0.4370
 1913TIP3    H127230   4.903   1.085   2.639 -1.0595  1.2488 -2.0521
 1913TIP3    H227231   4.970   1.060   2.506  0.9801  3.0020 -1.4097
 1914TIP3   OH227232   5.203   1.423   5.682 -0.2990 -0.2872  0.3229
 1914TIP3    H127233   5.264   1.494   5.668 -1.8137  0.9614 -0.2315
 1914TIP3    H227234   5.211   1.368   5.604 -1.4421  1.0971 -0.8196
 1915TIP3   OH227235   6.170   2.322  16.647 -0.1791  0.3551  0.1843
 1915TIP3    H127236   6.081   2.294  16.625 -0.5023  0.8377  0.8198
 1915TIP3    H227237   6.161   2.415  16.670  0.2676  0.1152  1.4207
 1916TIP3   OH227238   0.891   3.857   3.144  0.2235  0.0902  0.0498
 1916TIP3    H127239   0.874   3.859   3.050 -0.3457 -1.9843  0.0573
 1916TIP3    H227240   0.987   3.861   3.151  0.2302  1.4530 -0.5307
 1917TIP3   OH227241   3.634   2.485  16.944  0.1365 -0.4239  0.1203
 1917TIP3    H127242   3.648   2.474  17.038  1.4246 -1.4022 -0.1458
 1917TIP3    H227243   3.583   2.408  16.918  0.5261 -0.6053 -0.1168
 1918TIP3   OH227244   5.391   5.324  10.613 -0.0707  0.3402 -0.3052
 1918TIP3    H127245   5.450   5.253  10.638 -0.1310  0.2248 -0.4876
 1918TIP3    H227246   5.312   5.280  10.582  0.7016  0.3964 -2.5374
 1919TIP3   OH227247   0.200   0.995  13.072 -0.2229 -0.0834  0.1874
 1919TIP3    H127248   0.275   1.054  13.080  0.3314 -1.0424  2.8658
 1919TIP3    H227249   0.126   1.054  13.052  0.5014  1.4284  1.6950
 1920TIP3   OH227250   3.395   5.399   4.983 -0.2872 -0.0707  0.3866
 1920TIP3    H127251   3.444   5.361   4.910  2.0496  1.0489  1.2844
 1920TIP3    H227252   3.410   5.339   5.056  0.9728  0.9892  1.0317
 1921TIP3   OH227253   6.165   4.264  12.109  0.4621 -0.0985 -0.2536
 1921TIP3    H127254   6.230   4.330  12.087 -0.5840  0.1034 -3.3205
 1921TIP3    H227255   6.142   4.225  12.024 -2.8110 -0.6916  0.7811
 1922TIP3   OH227256   3.264   4.572   3.563  0.4335 -0.7148  0.2304
 1922TIP3    H127257   3.257   4.612   3.476  0.7348 -0.3075  0.3921
 1922TIP3    H227258   3.303   4.486   3.546  1.9124 -0.0570  0.0984
 1923TIP3   OH227259   5.346   2.973  13.088 -0.0870 -0.3136 -0.1959
 1923TIP3    H127260   5.368   3.024  13.167 -1.0338 -0.1897  0.0053
 1923TIP3    H227261   5.322   3.039  13.023 -1.3834 -0.4763  0.0840
 1924TIP3   OH227262   1.993   1.054   2.676  0.0069  0.1839 -0.5478
 1924TIP3    H127263   1.953   0.980   2.722  0.4146 -0.4216 -1.1326
 1924TIP3    H227264   1.936   1.068   2.600  1.4742 -1.4576 -2.0398
 1925TIP3   OH227265   4.178   0.512  13.847  0.0909 -0.7773 -0.2122
 1925TIP3    H127266   4.263   0.479  13.874  0.1076 -1.4646 -1.0346
 1925TIP3    H227267   4.117   0.483  13.915  0.4578 -0.5554  0.2127
 1926TIP3   OH227268   3.751   6.395   2.470  0.0281  0.2471  0.4732
 1926TIP3    H127269   3.659   6.417   2.483 -0.1923  2.3238 -3.1297
 1926TIP3    H227270   3.799   6.467   2.509  0.2129 -0.7849  2.2595
 1927TIP3   OH227271   2.000   6.024  15.274 -0.3597  0.0354  0.0125
 1927TIP3    H127272   1.933   5.956  15.262 -0.0568 -0.1743 -0.5444
 1927TIP3    H227273   1.959   6.088  15.332 -1.3820  0.3259 -0.9806
 1928TIP3   OH227274   5.413   2.669   3.717 -0.4698  0.2342 -0.4941
 1928TIP3    H127275   5.392   2.579   3.743  0.4317  0.3031  0.5799
 1928TIP3    H227276   5.329   2.708   3.695 -1.1027 -0.3705  0.7179
 1929TIP3   OH227277   1.853   1.242   1.283 -0.2611  0.4308 -0.6553
 1929TIP3    H127278   1.913   1.250   1.357 -0.3732  2.4009 -0.7358
 1929TIP3    H227279   1.894   1.294   1.214 -1.9903  1.7718 -0.7323
 1930TIP3   OH227280   2.936   6.003   2.853  0.4121  0.4325 -0.0100
 1930TIP3    H127281   2.913   5.931   2.794 -0.9932 -1.5588  2.7288
 1930TIP3    H227282   2.974   5.960   2.930  0.9555  2.7666  1.1192
 1931TIP3   OH227283   6.490   1.677   5.898 -0.1951  0.0033 -0.1881
 1931TIP3    H127284   6.463   1.601   5.847 -1.2530 -0.2932  0.7800
 1931TIP3    H227285   6.496   1.645   5.988  2.1979  0.3710 -0.1568
 1932TIP3   OH227286   3.795   5.525  10.594  0.1249  0.1002  0.3147
 1932TIP3    H127287   3.725   5.482  10.644  0.9763 -1.1553  0.4786
 1932TIP3    H227288   3.770   5.617  10.593 -1.0852 -0.1850  1.1039
 1933TIP3   OH227289   0.172   4.927  15.595  0.2447  0.2368  0.4558
 1933TIP3    H127290   0.203   4.936  15.505  1.1451  1.0347  0.8250
 1933TIP3    H227291   0.239   4.972  15.647 -0.4444  0.0832  1.4860
 1934TIP3   OH227292   6.272   5.732  16.853 -0.8294  0.0430  0.3387
 1934TIP3    H127293   6.280   5.637  16.843 -4.4175 -0.6314  2.2398
 1934TIP3    H227294   6.345   5.756  16.911 -0.1777 -1.6298  0.2713
 1935TIP3   OH227295   4.543   5.470   0.638  0.2426  0.8319 -0.1713
 1935TIP3    H127296   4.593   5.413   0.580 -0.1409 -0.3650  0.6368
 1935TIP3    H227297   4.590   5.465   0.722 -2.3672 -2.2204  1.3420
 1936TIP3   OH227298   3.336   1.800  14.756 -0.6300 -0.6405  0.5239
 1936TIP3    H127299   3.371   1.783  14.843  2.8637  1.3139 -0.2916
 1936TIP3    H227300   3.271   1.869  14.770 -0.8339 -1.0335  1.6527
 1937TIP3   OH227301   3.160   5.523   6.003  0.1896  0.4015  0.5049
 1937TIP3    H127302   3.147   5.445   6.057 -0.2772  0.3012  0.2562
 1937TIP3    H227303   3.071   5.549   5.977  0.2468  1.5776  1.3769
 1938TIP3   OH227304   0.716   2.194  15.637  0.4623 -0.0192 -0.8509
 1938TIP3    H127305   0.804   2.195  15.674  0.7565 -1.6606 -1.4173
 1938TIP3    H227306   0.720   2.256  15.564  0.1482  2.4958  1.1390
 1939TIP3   OH227307   5.556   1.586   3.437  0.0167 -0.2723  0.6170
 1939TIP3    H127308   5.549   1.496   3.470 -1.4494 -0.3392  0.1554
 1939TIP3    H227309   5.518   1.583   3.350  1.6836  0.4223 -0.1898
 1940TIP3   OH227310   6.709   4.403  17.263  0.5795 -0.2634 -0.4632
 1940TIP3    H127311   6.722   4.495  17.285  0.2692 -0.1697 -0.6610
 1940TIP3    H227312   6.615   4.388  17.277  0.4561 -0.3077 -1.3126
 1941TIP3   OH227313   4.660   0.765  11.650  0.0379 -0.0527 -0.1909
 1941TIP3    H127314   4.673   0.826  11.577  0.0047  0.2905  0.0870
 1941TIP3    H227315   4.710   0.804  11.722 -1.3487  0.5268  0.4835
 1942TIP3   OH227316   5.909   2.958  13.347  0.5275 -0.6552 -0.1345
 1942TIP3    H127317   6.003   2.945  13.360  0.6370 -0.6436 -0.9075
 1942TIP3    H227318   5.877   2.980  13.434  1.5210  1.0526 -0.1513
 1943TIP3   OH227319   1.845   0.329  16.065  0.5544  0.4968  0.0055
 1943TIP3    H127320   1.795   0.264  16.114  1.3618 -0.9804 -1.0256
 1943TIP3    H227321   1.826   0.412  16.108 -0.9366 -0.3374  1.0559
 1944TIP3   OH227322   5.596   3.788   3.236 -0.6126  0.3791 -0.5406
 1944TIP3    H127323   5.641   3.834   3.165  1.1216 -1.4190 -0.6686
 1944TIP3    H227324   5.665   3.765   3.298 -1.6552 -0.6745  0.2788
 1945TIP3   OH227325   4.175   0.824  13.101 -0.2596 -0.4092  0.4948
 1945TIP3    H127326   4.163   0.904  13.050 -0.0689 -0.1737  0.8134
 1945TIP3    H227327   4.127   0.840  13.183 -0.9998 -0.9885  0.1831
 1946TIP3   OH227328   6.405   6.088  12.817 -0.1448  0.1764  0.4976
 1946TIP3    H127329   6.383   6.012  12.764 -0.7085  0.2829  0.5684
 1946TIP3    H227330   6.476   6.058  12.874 -0.5342 -0.3760  0.7057
 1947TIP3   OH227331   3.988   5.494   4.759 -0.1425 -0.4537  0.1008
 1947TIP3    H127332   3.910   5.440   4.741 -1.0003  0.4310  1.0174
 1947TIP3    H227333   3.953   5.579   4.783  1.1252 -0.0589  0.6173
 1948TIP3   OH227334   3.139   5.422  11.238  0.2229 -0.7847 -0.2877
 1948TIP3    H127335   3.071   5.485  11.262  0.3400 -0.6389 -0.3336
 1948TIP3    H227336   3.150   5.435  11.143 -1.2181 -2.3190 -0.7059
 1949TIP3   OH227337   3.778   6.336   6.539 -0.9203 -0.4082  0.4197
 1949TIP3    H127338   3.752   6.300   6.624  1.0593  1.0900  1.7428
 1949TIP3    H227339   3.824   6.417   6.560 -0.3456  0.0047 -2.1043
 1950TIP3   OH227340   4.668   6.364   4.776 -0.6337  0.1428 -0.0324
 1950TIP3    H127341   4.592   6.356   4.833 -1.4529  0.0697 -1.1068
 1950TIP3    H227342   4.640   6.328   4.692 -0.7723  3.5978 -1.6624
 1951TIP3   OH227343   4.966   0.393  11.956  0.2631  0.4506  0.7247
 1951TIP3    H127344   4.899   0.348  11.904 -1.0293  1.7383  1.2028
 1951TIP3    H227345   4.969   0.482  11.920  2.6412  0.1151 -0.0955
 1952TIP3   OH227346   6.183   3.913   6.024  0.3558 -0.3267  0.2276
 1952TIP3    H127347   6.146   3.871   5.947 -1.5184  2.1215 -0.3144
 1952TIP3    H227348   6.173   3.848   6.094 -0.7410 -1.4515 -0.9341
 1953TIP3   OH227349   4.468   1.245  15.421  0.3854 -0.0811  0.0932
 1953TIP3    H127350   4.455   1.199  15.503  1.2327  0.6007  0.6264
 1953TIP3    H227351   4.509   1.180  15.364  1.2092 -0.1264  0.7150
 1954TIP3   OH227352   4.257   3.951  12.113 -0.0907  0.5145 -0.2396
 1954TIP3    H127353   4.171   3.984  12.139 -0.6154 -1.1395  0.3059
 1954TIP3    H227354   4.239   3.896  12.036  0.5787  0.6581 -0.5046
 1955TIP3   OH227355   1.545   2.349   4.660 -0.0047  0.5772 -0.2328
 1955TIP3    H127356   1.516   2.417   4.599  1.9783  0.6698 -1.1478
 1955TIP3    H227357   1.494   2.364   4.739 -3.4436 -0.1490 -2.0950
 1956TIP3   OH227358   3.450   4.166  15.190 -0.2551  0.4705  0.5196
 1956TIP3    H127359   3.445   4.080  15.232  0.7314 -0.2486 -0.7440
 1956TIP3    H227360   3.519   4.155  15.123 -1.0529  1.8497 -0.5702
 1957TIP3   OH227361   4.963   0.235   3.666  0.3600 -0.2162  0.0805
 1957TIP3    H127362   4.979   0.287   3.745 -0.8869 -0.8675  0.8011
 1957TIP3    H227363   5.008   0.282   3.596  1.0278  0.6761  1.0811
 1958TIP3   OH227364   4.334   0.917   0.750 -0.0776 -0.6407  0.2324
 1958TIP3    H127365   4.323   0.886   0.840  1.7782  1.4605  1.2940
 1958TIP3    H227366   4.428   0.931   0.741 -0.4235  1.0068 -1.3778
 1959TIP3   OH227367   3.414   1.140   1.133 -0.0889 -0.4739  0.0141
 1959TIP3    H127368   3.345   1.206   1.127  1.2447  0.8484 -2.1816
 1959TIP3    H227369   3.490   1.188   1.168  0.9496 -0.7333 -1.7813
 1960TIP3   OH227370   4.993   5.290  13.325 -0.3184  0.0263 -0.0089
 1960TIP3    H127371   5.013   5.383  13.336 -0.2431 -0.0694  0.7181
 1960TIP3    H227372   5.079   5.248  13.320 -0.3309 -0.1415  0.9532
 1961TIP3   OH227373   5.498   4.953  11.566  0.1834  0.1456  0.9731
 1961TIP3    H127374   5.546   5.019  11.517  0.2874  2.3408  3.7456
 1961TIP3    H227375   5.408   4.986  11.570 -0.1002 -0.6238  1.1957
 1962TIP3   OH227376   5.286   5.413  16.763  0.3111 -0.2325 -0.0969
 1962TIP3    H127377   5.205   5.383  16.722 -1.3975 -0.2892  2.9686
 1962TIP3    H227378   5.307   5.495  16.719 -0.4658 -1.0108 -2.0266
 1963TIP3   OH227379   2.416   2.812   1.635 -0.3233 -0.1990 -0.2623
 1963TIP3    H127380   2.408   2.749   1.707  1.4078 -1.4302 -1.0447
 1963TIP3    H227381   2.473   2.881   1.670  0.3754 -0.7085 -0.3644
 1964TIP3   OH227382   5.622   0.091  11.309  0.0160  0.1581  0.5219
 1964TIP3    H127383   5.703   0.076  11.260  0.1657  0.9528  0.5168
 1964TIP3    H227384   5.637   0.173  11.355 -1.5356  1.3978 -1.0641
 1965TIP3   OH227385   1.822   1.844  15.931  0.1259  0.2771 -0.1755
 1965TIP3    H127386   1.837   1.827  15.838 -0.7685  0.3818 -0.3483
 1965TIP3    H227387   1.856   1.933  15.944 -0.0513  0.3905 -0.4734
 1966TIP3   OH227388   6.353   0.750  12.399  0.0681 -0.7101 -0.0026
 1966TIP3    H127389   6.315   0.678  12.348 -1.7171 -0.5792  1.0452
 1966TIP3    H227390   6.310   0.828  12.366  0.3998 -0.3927  0.3138
 1967TIP3   OH227391   3.150   1.378   4.119  0.2005  0.1493 -0.6018
 1967TIP3    H127392   3.183   1.340   4.201 -0.4694  2.0968  0.6455
 1967TIP3    H227393   3.201   1.335   4.051  1.1635 -1.1665  0.8659
 1968TIP3   OH227394   2.399   2.261   1.860 -0.2250  0.4232  0.1655
 1968TIP3    H127395   2.453   2.239   1.784  0.7301 -0.7871  1.1374
 1968TIP3    H227396   2.450   2.326   1.908  0.3258 -0.5921  0.9950
 1969TIP3   OH227397   1.849   1.187  15.146  0.3861 -0.2811 -0.1782
 1969TIP3    H127398   1.798   1.248  15.199  1.9626 -0.0113  1.1107
 1969TIP3    H227399   1.813   1.196  15.058 -0.7826  0.9853  0.3907
 1970TIP3   OH227400   0.988   2.513  15.950  0.7660  0.7068 -0.2204
 1970TIP3    H127401   1.000   2.593  16.000 -1.3998  1.7835 -1.2618
 1970TIP3    H227402   0.939   2.455  16.008  1.5364  0.4632  0.2043
 1971TIP3   OH227403   2.368   3.953   5.439  0.0046 -0.2714 -0.0416
 1971TIP3    H127404   2.337   4.018   5.376  0.3888  1.8511  1.7986
 1971TIP3    H227405   2.289   3.922   5.482 -0.1625 -0.8576 -0.7577
 1972TIP3   OH227406   1.523   5.280  11.150 -0.1420  0.5564 -0.7862
 1972TIP3    H127407   1.518   5.321  11.236  1.4764 -1.3705  0.2861
 1972TIP3    H227408   1.566   5.346  11.095  1.4247  0.7435  0.6116
 1973TIP3   OH227409   0.531   4.990   0.322  0.1720 -0.0280 -0.2688
 1973TIP3    H127410   0.512   5.064   0.379 -1.3783  0.4812 -1.3839
 1973TIP3    H227411   0.554   5.029   0.238 -0.4074 -0.7808 -0.7990
 1974TIP3   OH227412   0.110   2.199   5.582  0.1714  0.0051  0.4732
 1974TIP3    H127413   0.096   2.109   5.612 -0.2384  0.3799  1.4815
 1974TIP3    H227414   0.186   2.194   5.525  1.1110 -0.7556  1.7264
 1975TIP3   OH227415   1.052   0.776   3.101  0.4041  0.2495  0.3591
 1975TIP3    H127416   1.086   0.864   3.090 -0.2303  0.3809 -0.7168
 1975TIP3    H227417   0.957   0.785   3.092  0.4363 -0.7507 -1.6120
 1976TIP3   OH227418   6.253   2.075   4.457  1.2566 -0.7251 -0.1519
 1976TIP3    H127419   6.292   2.161   4.467  2.1302 -0.9834 -1.1670
 1976TIP3    H227420   6.183   2.087   4.393 -0.9083 -0.1185  2.1711
 1977TIP3   OH227421   4.731   6.032   1.242  0.1204  0.1471  0.2370
 1977TIP3    H127422   4.734   5.947   1.285  0.9468 -0.3632 -0.7832
 1977TIP3    H227423   4.822   6.059   1.235 -0.1397  1.2340  0.7406
 1978TIP3   OH227424   4.595   6.352   1.956  0.2583 -0.3704 -0.2262
 1978TIP3    H127425   4.562   6.441   1.956 -0.7592 -0.7104 -1.3692
 1978TIP3    H227426   4.537   6.304   2.016  2.2059  0.1537  2.2220
 1979TIP3   OH227427   4.750   4.390  16.788  0.0513 -0.4120  0.4233
 1979TIP3    H127428   4.753   4.485  16.784  2.9594 -0.4272 -0.6599
 1979TIP3    H227429   4.696   4.364  16.714  0.4155  0.3835 -0.1349
 1980TIP3   OH227430   3.050   0.162   2.925 -0.8099  0.4021  0.3986
 1980TIP3    H127431   3.081   0.147   3.014 -0.8134  1.6238  0.6252
 1980TIP3    H227432   2.971   0.216   2.935 -1.0221  0.2403 -0.3215
 1981TIP3   OH227433   3.551   5.791  15.205 -0.3594 -0.0789  0.2419
 1981TIP3    H127434   3.519   5.789  15.115 -0.2543  1.8254  0.1098
 1981TIP3    H227435   3.475   5.819  15.257 -0.3271 -0.8208  0.7098
 1982TIP3   OH227436   3.114   2.033  15.648 -0.0706 -0.5194  0.4032
 1982TIP3    H127437   3.102   2.117  15.693  0.0281 -0.4189  0.2444
 1982TIP3    H227438   3.147   1.974  15.716  1.2575 -0.0502  0.1984
 1983TIP3   OH227439   0.668   1.537  15.042 -0.2123 -0.3758 -0.0793
 1983TIP3    H127440   0.685   1.631  15.048 -0.8398 -0.3171  1.1664
 1983TIP3    H227441   0.748   1.497  15.078 -0.2709 -0.2907  0.1485
 1984TIP3   OH227442   0.462   4.920   2.453  0.1819 -0.1292 -0.0764
 1984TIP3    H127443   0.551   4.942   2.482  0.3991 -0.5015 -0.4506
 1984TIP3    H227444   0.423   5.005   2.431  0.1165  0.1268  0.9894
 1985TIP3   OH227445   6.148   1.481   4.318 -0.1726  0.1952 -0.0582
 1985TIP3    H127446   6.171   1.463   4.409 -0.9715  1.2220  0.3771
 1985TIP3    H227447   6.203   1.422   4.267 -0.9855 -1.7167  1.1462
 1986TIP3   OH227448   2.253   6.292   1.639 -0.7955  0.2924  0.7025
 1986TIP3    H127449   2.348   6.294   1.626 -0.6909 -0.0331  1.3678
 1986TIP3    H227450   2.219   6.355   1.575 -0.2644 -0.6873 -0.5948
 1987TIP3   OH227451   3.267   0.237  16.423  0.4180 -0.3791  0.4907
 1987TIP3    H127452   3.332   0.283  16.475 -0.2128 -0.4656  1.3802
 1987TIP3    H227453   3.184   0.255  16.467 -0.0943 -0.7186 -0.3065
 1988TIP3   OH227454   0.267   1.360  14.377  0.2871 -0.1382 -0.0636
 1988TIP3    H127455   0.291   1.412  14.300  0.2374  1.0033  0.6721
 1988TIP3    H227456   0.183   1.321  14.354  1.1234 -1.3187 -1.2898
 1989TIP3   OH227457   0.545   2.808   2.634  0.1536  0.1911  0.3718
 1989TIP3    H127458   0.576   2.807   2.543 -2.2578  2.4304 -0.6174
 1989TIP3    H227459   0.477   2.740   2.637  0.0353  0.3113  0.4211
 1990TIP3   OH227460   0.398   6.454   1.798 -0.4279  0.4731  0.5340
 1990TIP3    H127461   0.455   6.414   1.863 -1.2409  0.7123  1.4259
 1990TIP3    H227462   0.457   6.484   1.728  0.2788 -1.5226  0.2195
 1991TIP3   OH227463   5.376   4.585   0.254  0.0172 -0.3916  0.5329
 1991TIP3    H127464   5.310   4.654   0.249 -0.2750 -0.7384 -0.8835
 1991TIP3    H227465   5.360   4.531   0.176  2.2495 -0.2145 -0.1012
 1992TIP3   OH227466   5.079   0.680   1.236 -0.2883 -0.1143 -0.0177
 1992TIP3    H127467   5.043   0.754   1.187 -1.1321 -0.7550 -0.4047
 1992TIP3    H227468   5.173   0.697   1.240 -0.6122  1.6879  1.1520
 1993TIP3   OH227469   5.054   3.733  14.139 -0.2657 -0.4128  0.2449
 1993TIP3    H127470   5.081   3.679  14.065  0.7228  0.2619  0.0943
 1993TIP3    H227471   5.124   3.723  14.203 -0.4307  0.1166  0.5145
 1994TIP3   OH227472   5.500   5.508  16.057  0.1841  0.5141 -0.0587
 1994TIP3    H127473   5.530   5.427  16.015 -1.6314 -0.1951 -0.0609
 1994TIP3    H227474   5.545   5.577  16.010  1.2401 -0.4567 -0.5234
 1995TIP3   OH227475   2.473   6.110   5.725  0.2781 -0.9495  0.0773
 1995TIP3    H127476   2.450   6.186   5.779  1.6110  1.3334 -2.3629
 1995TIP3    H227477   2.549   6.071   5.768 -0.5218 -1.0452  1.4475
 1996TIP3   OH227478   4.843   2.714   1.205  0.0268 -0.3362 -0.1832
 1996TIP3    H127479   4.896   2.635   1.199  1.4122  0.5715 -0.4698
 1996TIP3    H227480   4.832   2.742   1.115  0.3633  0.2973 -0.0363
 1997TIP3   OH227481   5.551   1.189   2.149 -0.9888 -0.1605  0.4765
 1997TIP3    H127482   5.459   1.161   2.156 -0.8802 -0.4794  0.6589
 1997TIP3    H227483   5.578   1.202   2.240 -1.4542  1.9469  0.3683
 1998TIP3   OH227484   6.135   0.067   5.342 -0.0955  0.1671 -0.5713
 1998TIP3    H127485   6.078   0.140   5.367  0.0656  0.0696  0.1010
 1998TIP3    H227486   6.093   0.029   5.264 -1.4316 -0.4414  0.3982
 1999TIP3   OH227487   3.278   6.222   2.842 -0.3986 -0.6028  0.0127
 1999TIP3    H127488   3.219   6.279   2.792 -0.8509 -0.8927  0.2056
 1999TIP3    H227489   3.307   6.277   2.915 -1.1231 -0.7157  0.4055
 2000TIP3   OH227490   5.380   5.159  16.487 -0.0171 -0.2644  0.1284
 2000TIP3    H127491   5.449   5.095  16.472 -2.7862 -3.1886 -1.1275
 2000TIP3    H227492   5.340   5.173  16.401  0.1047  2.8708  0.4405
 2001TIP3   OH227493   2.768   2.069   0.302  0.2058 -0.2878  0.5372
 2001TIP3    H127494   2.853   2.111   0.316  0.1086  0.4632 -0.8951
 2001TIP3    H227495   2.772   2.038   0.211  0.2020 -3.2597  1.4297
 2002TIP3   OH227496   0.925   0.386   2.408  0.1742 -0.1499 -0.3221
 2002TIP3    H127497   0.995   0.414   2.349 -1.5399  2.8684 -1.0959
 2002TIP3    H227498   0.971   0.344   2.481  2.7654  1.3146 -1.0022
 2003TIP3   OH227499   0.871   2.977   2.430 -0.0505 -0.2355 -0.0950
 2003TIP3    H127500   0.885   2.882   2.429  1.9735  0.0141 -1.0219
 2003TIP3    H227501   0.838   2.997   2.342  2.6912  0.2417 -1.1144
 2004TIP3   OH227502   5.839   6.749  15.802 -0.4314  0.4206  0.0284
 2004TIP3    H127503   5.813   6.672  15.751  0.8297 -0.9643  1.3789
 2004TIP3    H227504   5.821   6.724  15.893  0.7657  1.3910  0.5587
 2005TIP3   OH227505   6.628   6.453   1.061  0.1089 -0.6955  0.0522
 2005TIP3    H127506   6.691   6.414   1.000  1.0490  1.2422 -0.2754
 2005TIP3    H227507   6.546   6.408   1.042  0.8871 -1.7165 -1.0654
 2006TIP3   OH227508   1.608   3.326  16.712  0.3609 -0.2237 -0.3979
 2006TIP3    H127509   1.577   3.257  16.653  0.4247  0.0325 -0.7378
 2006TIP3    H227510   1.535   3.343  16.771  0.6013 -1.0952  0.1622
 2007TIP3   OH227511   4.185   4.424  15.845 -0.5490  0.5606  0.2683
 2007TIP3    H127512   4.278   4.441  15.828 -0.5067 -0.4010 -0.6251
 2007TIP3    H227513   4.144   4.510  15.845 -0.0338  0.8603 -1.8150
 2008TIP3   OH227514   6.735   2.173  12.560  0.7031 -0.8451 -0.6264
 2008TIP3    H127515   6.788   2.223  12.498  0.1015 -0.5958 -0.9441
 2008TIP3    H227516   6.690   2.239  12.612  1.5521 -1.0438  0.4024
 2009TIP3   OH227517   3.337   3.544  13.510  0.5138 -0.4680 -0.3029
 2009TIP3    H127518   3.307   3.473  13.452 -0.4902  0.0656 -0.4665
 2009TIP3    H227519   3.432   3.540  13.506  0.4680 -1.5580 -0.6186
 2010TIP3   OH227520   3.550   0.654  15.758 -0.4967 -0.1468  0.0133
 2010TIP3    H127521   3.478   0.635  15.698 -1.3541 -1.5910  1.4357
 2010TIP3    H227522   3.509   0.666  15.843  0.8436  0.0282  0.6632
 2011TIP3   OH227523   2.167   1.763  10.479  0.6738 -0.6338  0.3769
 2011TIP3    H127524   2.145   1.670  10.483  1.6382 -0.9520 -0.9496
 2011TIP3    H227525   2.234   1.769  10.410  0.4678  1.0713  0.2802
 2012TIP3   OH227526   5.631   1.247   3.833  0.0451 -0.3969 -0.1946
 2012TIP3    H127527   5.644   1.177   3.768  0.8059 -1.3714  0.9546
 2012TIP3    H227528   5.695   1.313   3.810  1.3909 -1.4335  0.4480
 2013TIP3   OH227529   5.664   6.156   5.652 -0.1949  0.5099 -0.0056
 2013TIP3    H127530   5.610   6.234   5.667 -0.1417  0.4437  0.5501
 2013TIP3    H227531   5.742   6.190   5.609  0.0826  0.8518  0.7460
 2014TIP3   OH227532   4.991   3.077  12.059 -0.6249 -0.6348 -0.1366
 2014TIP3    H127533   5.083   3.069  12.033 -0.3084 -0.5573  0.8949
 2014TIP3    H227534   4.952   2.992  12.038 -0.6581 -0.2495 -1.7791
 2015TIP3   OH227535   5.144   0.814  15.458 -0.5088 -0.1733 -0.0440
 2015TIP3    H127536   5.110   0.901  15.439  0.8774  0.3003 -0.5136
 2015TIP3    H227537   5.118   0.797  15.549  0.0392  1.1696  0.3919
 2016TIP3   OH227538   1.876   6.207   0.479 -0.1082 -0.1171  0.0550
 2016TIP3    H127539   1.801   6.169   0.525  0.0492  1.7821  2.0081
 2016TIP3    H227540   1.934   6.132   0.463 -1.4924 -1.2960  0.2950
 2017TIP3   OH227541   2.449   2.911   0.161 -0.1821 -0.0363  0.2114
 2017TIP3    H127542   2.540   2.888   0.180 -0.2321 -0.5197 -0.1232
 2017TIP3    H227543   2.437   2.888   0.069 -0.3785  0.8854 -0.0056
 2018TIP3   OH227544   5.743   2.840  12.461 -0.1279  0.6770  0.5579
 2018TIP3    H127545   5.702   2.788  12.530 -0.8675  1.0871  0.4415
 2018TIP3    H227546   5.678   2.844  12.391  0.9298 -0.4519 -0.5484
 2019TIP3   OH227547   6.797   2.853   4.173 -0.6967  0.4840 -0.0992
 2019TIP3    H127548   6.795   2.915   4.246 -1.8063 -0.5451  0.7804
 2019TIP3    H227549   6.863   2.788   4.199 -1.7066 -0.3653  0.4398
 2020TIP3   OH227550   3.200   4.941  15.455  0.2176 -0.1017 -0.1507
 2020TIP3    H127551   3.228   4.857  15.418  1.8050  0.0858  0.5469
 2020TIP3    H227552   3.104   4.935  15.458  0.3164 -2.1773  0.5491
 2021TIP3   OH227553   2.649   0.009   1.767 -0.1496  0.0294 -0.0747
 2021TIP3    H127554   2.691   0.064   1.701 -0.5325  0.8409  0.3521
 2021TIP3    H227555   2.559   0.041   1.773 -0.1431 -0.0828  0.7828
 2022TIP3   OH227556   5.847   4.171  16.077 -1.2796  0.5152  0.0569
 2022TIP3    H127557   5.847   4.107  16.006 -0.8077  1.6738 -1.0356
 2022TIP3    H227558   5.766   4.154  16.125 -0.7635 -1.4151  0.3165
 2023TIP3   OH227559   4.207   6.729   5.992  0.2749 -0.4045  0.6583
 2023TIP3    H127560   4.139   6.767   5.936 -2.4433 -1.4645  2.9783
 2023TIP3    H227561   4.215   6.790   6.065  0.0831 -1.4188  1.5475
 2024TIP3   OH227562   6.206   3.917   4.800 -0.3840 -0.3335  0.1059
 2024TIP3    H127563   6.145   3.964   4.743  0.3313  0.8288  0.2529
 2024TIP3    H227564   6.274   3.885   4.742 -0.0926  0.1224  0.1911
 2025TIP3   OH227565   0.597   3.827  17.038  0.2265  0.3162 -0.4402
 2025TIP3    H127566   0.669   3.764  17.047  0.4631  0.7066  0.4640
 2025TIP3    H227567   0.577   3.827  16.944  2.5312  1.4480 -1.0034
 2026TIP3   OH227568   1.723   6.276   2.715 -0.4832  0.4842 -0.1009
 2026TIP3    H127569   1.706   6.309   2.627  0.3603  0.0298 -0.4413
 2026TIP3    H227570   1.639   6.284   2.760 -1.4422 -1.0100 -1.5004
 2027TIP3   OH227571   1.049   0.296   1.130  0.5529  0.5222 -0.4772
 2027TIP3    H127572   1.129   0.245   1.120  0.0736  0.1107 -2.7410
 2027TIP3    H227573   1.077   0.387   1.122  1.1865  0.5978  1.9601
 2028TIP3   OH227574   6.703   1.720  11.066  0.3629 -0.1037  0.0396
 2028TIP3    H127575   6.780   1.739  11.012 -1.4803  0.0081 -2.7409
 2028TIP3    H227576   6.671   1.637  11.032  0.4305 -1.3099  2.6844
 2029TIP3   OH227577   3.115   5.734   0.977  0.6519 -0.0025 -0.2167
 2029TIP3    H127578   3.158   5.685   1.047 -0.2465 -0.7810 -0.1952
 2029TIP3    H227579   3.043   5.780   1.020 -1.9981 -3.0343 -1.0154
 2030TIP3   OH227580   0.856   2.264  11.489 -0.0563  0.2362  0.4583
 2030TIP3    H127581   0.937   2.272  11.539  2.4227 -1.3114 -2.8883
 2030TIP3    H227582   0.867   2.323  11.415 -0.8248 -1.7266 -1.3425
 2031TIP3   OH227583   3.126   2.019   5.509 -0.1054  0.4181  0.4320
 2031TIP3    H127584   3.125   2.115   5.498  2.2800  0.8072  2.7471
 2031TIP3    H227585   3.113   2.005   5.602 -0.2924 -1.5284  0.1492
 2032TIP3   OH227586   1.637   1.329  16.017 -0.4578 -0.3088 -0.0571
 2032TIP3    H127587   1.704   1.384  15.977 -1.2532  1.0090  0.3658
 2032TIP3    H227588   1.665   1.321  16.108 -1.1910  0.7985  0.2838
 2033TIP3   OH227589   1.066   2.023   0.914 -0.2475  0.4273  0.3162
 2033TIP3    H127590   0.995   2.028   0.850  0.6372  0.9843 -0.6500
 2033TIP3    H227591   1.022   2.018   0.999 -1.4982  4.0151  0.0384
 2034TIP3   OH227592   1.473   6.481   6.010 -0.0575 -0.4477 -0.0001
 2034TIP3    H127593   1.508   6.539   5.943 -1.4392  2.5774  1.6628
 2034TIP3    H227594   1.398   6.439   5.969  0.1396  0.0244 -0.8628
 2035TIP3   OH227595   6.790   2.011  13.556  0.2357 -0.1493 -0.3650
 2035TIP3    H127596   6.885   2.003  13.553  0.1677 -1.6160  0.3605
 2035TIP3    H227597   6.758   1.937  13.505 -0.4986 -0.9771  1.2247
 2036TIP3   OH227598   4.520   6.026  17.059 -0.3779 -0.1149 -0.2843
 2036TIP3    H127599   4.594   5.988  17.106  0.4107  1.3178 -0.3203
 2036TIP3    H227600   4.559   6.090  16.999 -1.7201  2.0645  1.0261
 2037TIP3   OH227601   2.966   6.609   1.897 -0.0728 -0.2093  0.1295
 2037TIP3    H127602   2.876   6.600   1.928 -0.1453  0.8166  0.2542
 2037TIP3    H227603   2.964   6.577   1.807 -0.2284 -1.6024  0.6072
 2038TIP3   OH227604   1.217   6.592  11.557 -0.2124 -0.6255 -0.5164
 2038TIP3    H127605   1.198   6.593  11.651  0.8860 -0.7010 -0.2797
 2038TIP3    H227606   1.131   6.592  11.515 -0.7158 -0.1222  0.4813
 2039TIP3   OH227607   4.105   2.535   3.092 -0.3201 -0.3544 -0.3462
 2039TIP3    H127608   4.143   2.487   3.165 -0.4299 -0.1829 -0.1739
 2039TIP3    H227609   4.041   2.594   3.132  1.8438  2.0962 -0.1685
 2040TIP3   OH227610   4.450   4.647   1.735 -0.0604  0.7254  0.0623
 2040TIP3    H127611   4.541   4.626   1.712  0.7626  1.3885  2.3885
 2040TIP3    H227612   4.398   4.602   1.669  1.8707 -1.9130  0.1603
 2041TIP3   OH227613   2.744   3.155  11.580  0.1511  0.0089  0.8700
 2041TIP3    H127614   2.695   3.126  11.657 -0.1117  0.8822  1.0381
 2041TIP3    H227615   2.693   3.227  11.544  1.0630  0.6338  0.7759
 2042TIP3   OH227616   1.922   6.777   6.025 -0.3508 -0.5218  0.6032
 2042TIP3    H127617   1.996   6.756   5.967 -2.5248 -0.4766 -2.3820
 2042TIP3    H227618   1.940   6.727   6.105  2.3302 -1.3530 -0.3966
 2043TIP3   OH227619   1.959   1.509  11.103  0.1626 -0.2751 -0.5099
 2043TIP3    H127620   1.889   1.456  11.140 -0.7108  2.8209  2.8974
 2043TIP3    H227621   1.917   1.560  11.034 -1.0113  1.2836  1.2559
 2044TIP3   OH227622   6.390   0.650  16.273 -0.2241 -0.0194 -0.7160
 2044TIP3    H127623   6.408   0.740  16.245 -1.0452  0.0659 -1.0088
 2044TIP3    H227624   6.469   0.623  16.319 -1.3814  2.2766  3.0189
 2045TIP3   OH227625   3.602   5.069  16.936  0.2130 -0.7860  0.5811
 2045TIP3    H127626   3.609   4.982  16.897 -0.1852  0.1622 -1.8055
 2045TIP3    H227627   3.604   5.129  16.861 -1.4786  1.1629  1.9667
 2046TIP3   OH227628   6.539   2.471  13.213 -0.3081  0.7272 -0.0667
 2046TIP3    H127629   6.496   2.387  13.199 -1.9579  1.6646 -0.9084
 2046TIP3    H227630   6.483   2.534  13.168  1.5986  2.1170 -0.6097
 2047TIP3   OH227631   0.129   0.678  12.145 -0.7511 -0.3534  0.6119
 2047TIP3    H127632   0.105   0.671  12.053 -1.3569 -0.8318  0.7989
 2047TIP3    H227633   0.218   0.642  12.150  0.4627  2.2653 -0.2397
 2048TIP3   OH227634   3.802   1.455   3.390 -0.2270  0.1261 -0.2341
 2048TIP3    H127635   3.725   1.440   3.446  1.1850 -0.1054  1.7610
 2048TIP3    H227636   3.842   1.368   3.381  0.3794  0.4157 -0.3730
 2049TIP3   OH227637   3.445   5.351  11.780  0.0621  0.1051  0.2328
 2049TIP3    H127638   3.350   5.341  11.779 -0.1207  1.4277  1.2119
 2049TIP3    H227639   3.463   5.417  11.713  0.2494  0.0506  0.2281
 2050TIP3   OH227640   4.105   2.178  13.347 -0.2293 -0.2921 -0.0315
 2050TIP3    H127641   4.091   2.194  13.441  1.1072 -1.3463  0.3777
 2050TIP3    H227642   4.084   2.262  13.306 -1.2214  0.0769  1.1608
 2051TIP3   OH227643   2.135   6.046  16.273  0.0967 -0.0672  0.2369
 2051TIP3    H127644   2.216   6.028  16.225 -0.7576 -0.8841 -0.9460
 2051TIP3    H227645   2.136   5.983  16.345  0.5515 -0.0189  0.2781
 2052TIP3   OH227646   4.653   1.305   5.045 -0.0990  0.4905 -0.3744
 2052TIP3    H127647   4.744   1.294   5.018 -0.1560 -3.4468  0.4739
 2052TIP3    H227648   4.658   1.344   5.132  0.7769  0.2493 -0.3059
 2053TIP3   OH227649   5.446   1.444   3.204 -0.1301 -0.0708 -0.3738
 2053TIP3    H127650   5.426   1.367   3.257 -0.7131 -0.6223 -1.3792
 2053TIP3    H227651   5.457   1.410   3.115  0.7575  0.8510 -0.6401
 2054TIP3   OH227652   0.020   1.675   1.642 -0.4356  0.1691  0.2049
 2054TIP3    H127653   0.032   1.648   1.733 -0.0957  0.1705  0.1597
 2054TIP3    H227654  -0.065   1.720   1.642  0.1290  1.2897  0.7804
 2055TIP3   OH227655   4.491   6.085  11.849 -0.7337  0.2757  0.5848
 2055TIP3    H127656   4.580   6.050  11.840 -0.8661 -0.7776  2.6920
 2055TIP3    H227657   4.502   6.180  11.847  0.5967  0.1823  1.7505
 2056TIP3   OH227658   3.173   4.731   1.564  0.5008 -0.1584 -0.4420
 2056TIP3    H127659   3.141   4.734   1.654  2.9516  0.0428  0.4990
 2056TIP3    H227660   3.132   4.806   1.521  0.2528  0.4882  0.8840
 2057TIP3   OH227661   3.482   0.251   3.908 -0.3928  0.0960  0.2169
 2057TIP3    H127662   3.575   0.270   3.923 -0.4124 -0.1425  0.6619
 2057TIP3    H227663   3.474   0.243   3.813 -0.0318  0.4959  0.1514
 2058TIP3   OH227664   3.905   3.270  15.831  0.5130  0.2051  0.5653
 2058TIP3    H127665   3.857   3.207  15.885  0.4178 -0.3950 -0.2098
 2058TIP3    H227666   3.901   3.351  15.881  0.4565 -0.3422  1.4823
 2059TIP3   OH227667   1.207   3.809  14.799  0.1742 -0.0654 -0.1374
 2059TIP3    H127668   1.144   3.863  14.847 -0.7127 -1.8889  0.8809
 2059TIP3    H227669   1.167   3.796  14.713 -1.0499 -1.4236  0.5880
 2060TIP3   OH227670   5.940   4.600   2.876  0.0491 -0.4390  0.2451
 2060TIP3    H127671   5.848   4.624   2.891  0.3190 -0.7322  2.7614
 2060TIP3    H227672   5.985   4.684   2.866 -0.2255 -0.1953  0.9485
 2061TIP3   OH227673   2.727   6.190  14.980  0.2319 -1.3337 -0.1963
 2061TIP3    H127674   2.666   6.132  15.026 -0.1115 -1.2140 -0.4967
 2061TIP3    H227675   2.808   6.183  15.030 -0.4457 -0.3628  1.1056
 2062TIP3   OH227676   0.588   5.793  11.562  0.2123  0.3077 -0.1817
 2062TIP3    H127677   0.666   5.738  11.576 -0.4266 -0.4836  0.4035
 2062TIP3    H227678   0.570   5.786  11.468 -0.0374 -0.7457 -0.0659
 2063TIP3   OH227679   4.910   0.493  14.334 -0.0655 -0.3964  0.4292
 2063TIP3    H127680   4.897   0.582  14.368  1.8597  0.7107 -1.4808
 2063TIP3    H227681   4.822   0.464  14.312 -0.6113  1.7871 -0.5685
 2064TIP3   OH227682   4.647   0.440   2.959 -0.4847 -0.1982  0.7168
 2064TIP3    H127683   4.721   0.383   2.937 -2.8130 -2.1306 -3.1213
 2064TIP3    H227684   4.612   0.404   3.041  1.0084 -1.0769  1.0130
 2065TIP3   OH227685   1.077   1.198   4.756 -0.2451  0.1019 -0.2045
 2065TIP3    H127686   1.163   1.163   4.735  0.7561  3.0623 -1.5080
 2065TIP3    H227687   1.056   1.161   4.842  2.5735 -0.2500  0.4274
 2066TIP3   OH227688   1.946   3.382  11.244  0.0243  0.1744  0.3466
 2066TIP3    H127689   1.924   3.379  11.337 -1.3977 -1.3514  0.0076
 2066TIP3    H227690   2.035   3.346  11.240  0.5981  1.4258  1.2135
 2067TIP3   OH227691   2.737   5.155  16.314 -0.0237 -0.3476  0.4446
 2067TIP3    H127692   2.698   5.068  16.299 -1.3172  0.3043 -0.1112
 2067TIP3    H227693   2.725   5.201  16.231  1.8227 -0.0435  0.3063
 2068TIP3   OH227694   4.204   1.501  17.039  0.6277 -0.1572  0.3826
 2068TIP3    H127695   4.183   1.409  17.052  0.6633 -0.2602 -0.2741
 2068TIP3    H227696   4.128   1.549  17.073  0.1073 -0.4670 -0.3320
 2069TIP3   OH227697   1.544   3.030   0.006  0.2043 -0.1679  0.9254
 2069TIP3    H127698   1.451   3.049   0.023  0.5288  2.0492  0.4174
 2069TIP3    H227699   1.550   3.021  -0.089  0.6669  0.5850  0.8824
 2070TIP3   OH227700   5.120   5.901   3.469  0.2335 -0.0455 -0.3837
 2070TIP3    H127701   5.186   5.843   3.508 -1.0554  0.3067  2.6099
 2070TIP3    H227702   5.165   5.942   3.395  2.1376 -2.5630 -0.7450
 2071TIP3   OH227703   1.240   5.906  15.017 -0.5650 -0.5603  0.5066
 2071TIP3    H127704   1.185   5.875  14.945  0.2242 -0.5752 -0.0979
 2071TIP3    H227705   1.186   5.970  15.063 -1.5171 -1.4169  0.6193
 2072TIP3   OH227706   0.403   1.808  13.383  0.0165 -0.2830 -0.0926
 2072TIP3    H127707   0.348   1.740  13.421  1.4102 -0.8415  1.0261
 2072TIP3    H227708   0.438   1.856  13.459  0.6722  0.3608 -0.7801
 2073TIP3   OH227709   6.689   1.461  14.080 -0.1320 -0.3009  0.1970
 2073TIP3    H127710   6.659   1.549  14.056  0.9346 -0.1768 -0.7518
 2073TIP3    H227711   6.753   1.477  14.150 -1.6289 -0.5141  1.6819
 2074TIP3   OH227712   0.639   6.150  13.968  0.0672  0.1326  0.2528
 2074TIP3    H127713   0.641   6.130  14.062  0.4276 -1.6247 -0.0810
 2074TIP3    H227714   0.559   6.201  13.956 -1.2029 -1.5224  1.2111
 2075TIP3   OH227715   3.607   0.111  12.860 -0.2818  0.1925  0.3939
 2075TIP3    H127716   3.648   0.182  12.910 -1.2498  1.8648 -1.1135
 2075TIP3    H227717   3.673   0.086  12.795  0.1305 -0.4790  1.0413
 2076TIP3   OH227718   5.354   2.475  16.774  0.5568 -0.6076 -0.5886
 2076TIP3    H127719   5.275   2.489  16.723 -0.0124 -1.0183  0.1618
 2076TIP3    H227720   5.340   2.527  16.854  0.9765 -0.8093 -0.3823
 2077TIP3   OH227721   6.748   2.191  14.354  0.1913 -0.1433 -0.7847
 2077TIP3    H127722   6.819   2.128  14.368  0.1967  0.4002  2.4718
 2077TIP3    H227723   6.792   2.275  14.342  0.1148 -0.2075 -1.5749
 2078TIP3   OH227724   3.522   6.707   5.994 -0.3415 -0.2576  0.9181
 2078TIP3    H127725   3.557   6.618   5.991 -0.4750 -0.2941  0.2913
 2078TIP3    H227726   3.599   6.763   6.002 -0.2931 -0.4527  2.0063
 2079TIP3   OH227727   6.021   3.545   4.600 -0.0216  0.7416 -0.3172
 2079TIP3    H127728   6.020   3.484   4.526  0.4278  2.2646 -1.6143
 2079TIP3    H227729   6.109   3.536   4.637  0.2705  1.0898 -0.9225
 2080TIP3   OH227730   5.157   6.689   2.595  0.2602  0.6065  0.3703
 2080TIP3    H127731   5.123   6.651   2.676  2.2211 -2.3289 -0.0466
 2080TIP3    H227732   5.106   6.646   2.526  1.2068  0.1400 -0.0531
 2081TIP3   OH227733   5.629   1.218  13.691  0.4152  0.4762  0.3698
 2081TIP3    H127734   5.577   1.298  13.675  1.4114  1.2338  0.8426
 2081TIP3    H227735   5.576   1.167  13.752 -0.0343  0.9749  0.4084
 2082TIP3   OH227736   6.437   1.432   2.749 -0.0903  0.0094  0.3690
 2082TIP3    H127737   6.408   1.368   2.814 -1.6036 -1.3401 -1.4976
 2082TIP3    H227738   6.475   1.378   2.679 -2.5807  0.9265 -1.8678
 2083TIP3   OH227739   4.977   3.914  13.732 -0.1299 -0.2114 -0.0460
 2083TIP3    H127740   4.922   3.867  13.795 -1.9561  0.0985 -1.3290
 2083TIP3    H227741   5.015   3.845  13.678 -0.2338 -0.3691  0.0788
 2084TIP3   OH227742   3.437   4.463  16.197 -0.2404 -0.0987 -0.5706
 2084TIP3    H127743   3.434   4.439  16.104  0.6561  0.4016 -0.7503
 2084TIP3    H227744   3.458   4.381  16.242 -1.1849 -0.4520 -0.7434
 2085TIP3   OH227745   5.688   1.761   3.591 -0.1913 -0.2663  0.4478
 2085TIP3    H127746   5.673   1.773   3.684  0.2388 -1.6379  0.7189
 2085TIP3    H227747   5.632   1.688   3.566 -0.6270  0.3576 -0.4754
 2086TIP3   OH227748   5.457   0.095  11.583 -0.1002 -0.1758 -0.7056
 2086TIP3    H127749   5.533   0.102  11.526  0.8406  0.2305  0.5494
 2086TIP3    H227750   5.470   0.013  11.631 -0.7955 -0.4332 -0.9427
 2087TIP3   OH227751   5.100   0.154  14.956  0.1789 -0.7011  0.3215
 2087TIP3    H127752   5.043   0.102  15.013 -1.0578 -0.8862 -1.0381
 2087TIP3    H227753   5.117   0.234  15.006  0.1693 -1.3809  1.4595
 2088TIP3   OH227754   1.502   6.655  15.549  0.0638  0.2264 -0.4516
 2088TIP3    H127755   1.472   6.623  15.634  0.5048 -1.0114 -0.7404
 2088TIP3    H227756   1.423   6.664  15.496 -0.0533 -0.6995 -0.4507
 2089TIP3   OH227757   6.282   3.780  16.985  0.0315  0.2069 -0.0733
 2089TIP3    H127758   6.299   3.867  17.022 -0.5230  0.1601  0.3085
 2089TIP3    H227759   6.186   3.775  16.980 -0.0419 -1.0578  1.6129
 2090TIP3   OH227760   0.374   2.984  14.225  0.7257 -0.1300  0.0649
 2090TIP3    H127761   0.380   2.928  14.302  1.9405  0.1929  0.2200
 2090TIP3    H227762   0.426   2.940  14.158 -1.1412 -0.9315 -0.9423
 2091TIP3   OH227763   5.935   0.831  14.785  0.2297 -0.0588 -0.1974
 2091TIP3    H127764   6.008   0.888  14.812  0.6593 -0.0199 -1.3814
 2091TIP3    H227765   5.978   0.753  14.749 -0.2916  0.1460 -1.2993
 2092TIP3   OH227766   0.054   5.309   2.842  0.3531 -0.1498  0.5916
 2092TIP3    H127767   0.063   5.275   2.752  1.7653 -0.4785  0.8352
 2092TIP3    H227768   0.030   5.401   2.831 -2.2912 -0.8165 -0.0882
 2093TIP3   OH227769   3.651   6.440  14.689  0.0792  0.0738  0.1999
 2093TIP3    H127770   3.656   6.353  14.649 -1.6079 -0.6175  1.3692
 2093TIP3    H227771   3.689   6.429  14.776  0.4049  0.6581  0.1366
 2094TIP3   OH227772   2.454   4.020  12.501  0.7248 -0.5140 -0.6494
 2094TIP3    H127773   2.379   4.049  12.553  0.8926 -2.2353  0.6577
 2094TIP3    H227774   2.428   4.035  12.410 -0.6680  0.1432 -0.1633
 2095TIP3   OH227775   2.121   1.437  12.788 -0.3447 -0.4054  0.2778
 2095TIP3    H127776   2.053   1.391  12.838 -1.3856 -0.3539 -1.0399
 2095TIP3    H227777   2.072   1.487  12.722  1.0298 -1.5862 -1.7167
 2096TIP3   OH227778   2.289   0.675   0.439 -0.5409 -0.0246 -0.4007
 2096TIP3    H127779   2.345   0.711   0.370 -0.5903  0.7284 -0.0633
 2096TIP3    H227780   2.251   0.596   0.401 -0.7977  0.5361 -1.3438
 2097TIP3   OH227781   4.473   4.031  16.550  0.2582 -0.0436  0.3673
 2097TIP3    H127782   4.543   3.970  16.528  1.1637  0.4639  1.7291
 2097TIP3    H227783   4.407   4.017  16.481  1.2918 -1.1446 -0.4520
 2098TIP3   OH227784   6.795   2.458   3.786  0.6601  0.5365  0.3357
 2098TIP3    H127785   6.819   2.538   3.832 -0.3648  0.7011  0.6194
 2098TIP3    H227786   6.811   2.477   3.694  0.3101  1.1242  0.3878
 2099TIP3   OH227787   2.505   3.276  13.035 -0.3390  0.4687  0.2856
 2099TIP3    H127788   2.464   3.335  12.972  0.2958  0.4543 -0.1437
 2099TIP3    H227789   2.443   3.203  13.044 -1.0300  1.0938  0.6630
 2100TIP3   OH227790   4.522   4.908  13.954 -0.2544 -0.6254  0.4642
 2100TIP3    H127791   4.466   4.963  14.008  0.5632  1.1075 -0.3709
 2100TIP3    H227792   4.464   4.841  13.918 -1.8113  1.1042 -0.3813
 2101TIP3   OH227793   2.579   4.961   1.903  0.2731 -0.7369 -0.7693
 2101TIP3    H127794   2.617   4.895   1.844 -1.1983 -0.8717 -1.6187
 2101TIP3    H227795   2.526   5.016   1.846 -1.9316 -1.4025  0.5353
 2102TIP3   OH227796   4.559   1.173   5.937 -0.1634 -0.1035  0.3604
 2102TIP3    H127797   4.644   1.165   5.893 -0.3229  0.4539 -0.0679
 2102TIP3    H227798   4.550   1.092   5.987 -0.3229 -1.1339 -1.2609
 2103TIP3   OH227799   5.161   5.164  10.636 -0.0814  0.0743 -0.2131
 2103TIP3    H127800   5.204   5.178  10.720 -0.0135  0.3059 -0.2862
 2103TIP3    H227801   5.083   5.112  10.657 -0.0095  0.0445 -0.0214
 2104TIP3   OH227802   5.482   5.791  10.888  0.4697 -0.5871  0.8353
 2104TIP3    H127803   5.418   5.771  10.956  0.1114 -1.3174  0.2975
 2104TIP3    H227804   5.432   5.786  10.806  1.1951 -1.0874  0.4122
 2105TIP3   OH227805   3.580   3.472  13.456  0.0336 -0.0277  0.3405
 2105TIP3    H127806   3.651   3.509  13.404 -1.4982  1.7577 -0.6080
 2105TIP3    H227807   3.546   3.400  13.402 -0.6625  0.9329 -0.5292
 2106TIP3   OH227808   1.765   4.632  13.358 -0.1313  0.1042  0.1485
 2106TIP3    H127809   1.749   4.649  13.265 -0.1587  1.9083  0.4369
 2106TIP3    H227810   1.723   4.548  13.375 -1.0417  0.2389 -1.2392
 2107TIP3   OH227811   5.301   6.701  15.885  0.2526 -0.0408  0.2012
 2107TIP3    H127812   5.320   6.744  15.802  2.3920 -1.4725 -0.1094
 2107TIP3    H227813   5.270   6.614  15.862  1.6974 -0.7596  0.8891
 2108TIP3   OH227814   1.425   0.288  15.997  0.5940  0.5927 -0.1294
 2108TIP3    H127815   1.486   0.358  16.019  2.5802 -1.3763  0.9680
 2108TIP3    H227816   1.423   0.286  15.901  1.5600  1.2673 -0.1661
 2109TIP3   OH227817   5.738   2.343   3.441 -0.2252  0.5811 -0.0061
 2109TIP3    H127818   5.741   2.271   3.378  2.3949  0.4373  0.1951
 2109TIP3    H227819   5.686   2.411   3.397  0.8527  0.1836 -1.9959
 2110TIP3   OH227820   1.352   3.743  10.841  0.1666  0.2129 -0.5357
 2110TIP3    H127821   1.442   3.710  10.850  0.0390 -0.0540 -0.2227
 2110TIP3    H227822   1.348   3.775  10.751  0.5933  0.2757 -0.5378
 2111TIP3   OH227823   4.856   1.181  12.705  1.0804 -0.0408 -0.1582
 2111TIP3    H127824   4.890   1.249  12.646 -1.7591  0.5951 -1.2826
 2111TIP3    H227825   4.823   1.113  12.646 -1.0833  0.2224  0.6641
 2112TIP3   OH227826   1.212   0.075  15.942  0.1206  0.5569 -0.2341
 2112TIP3    H127827   1.298   0.036  15.926 -0.6163 -1.1098 -0.3419
 2112TIP3    H227828   1.227   0.139  16.011  0.7233 -3.0385  3.3189
 2113TIP3   OH227829   0.309   1.493   4.321  0.5781 -0.4691  0.5678
 2113TIP3    H127830   0.331   1.547   4.397  1.1823  1.0412 -0.6502
 2113TIP3    H227831   0.214   1.478   4.329  0.5273  0.1674  1.2892
 2114TIP3   OH227832   0.860   5.315   1.195  1.0799 -0.1816  0.3303
 2114TIP3    H127833   0.931   5.269   1.149  1.0002  0.1466 -0.1322
 2114TIP3    H227834   0.803   5.346   1.125  1.4569  1.1672  0.5891
 2115TIP3   OH227835   6.191   4.802   3.396  0.3845  0.0307  0.7866
 2115TIP3    H127836   6.277   4.816   3.356  0.5705 -0.8039  0.8693
 2115TIP3    H227837   6.137   4.875   3.365  0.4973 -0.6362 -1.1104
 2116TIP3   OH227838   4.972   5.269   4.168 -0.5044  0.3327 -0.6532
 2116TIP3    H127839   4.914   5.302   4.099  0.8014  2.4518 -0.8164
 2116TIP3    H227840   4.945   5.316   4.247  0.5182  0.8038 -0.5762
 2117TIP3   OH227841   5.561   6.393   4.986 -1.0937  0.1638 -0.1163
 2117TIP3    H127842   5.578   6.464   5.048 -2.1682 -0.4855  0.9632
 2117TIP3    H227843   5.634   6.333   4.997 -0.7970  0.5174 -0.1587
 2118TIP3   OH227844   0.711   1.148   0.313 -0.1197 -0.2291 -0.2403
 2118TIP3    H127845   0.716   1.241   0.336 -0.5816  0.0202 -1.1008
 2118TIP3    H227846   0.620   1.124   0.330  0.1548 -0.7009  0.5994
 2119TIP3   OH227847   1.978   4.885   6.109 -0.5998 -0.1741 -0.0500
 2119TIP3    H127848   2.010   4.943   6.179 -0.1094  0.4607 -0.7916
 2119TIP3    H227849   2.000   4.797   6.139  0.8703  0.1818 -0.0377
 2120TIP3   OH227850   6.715   6.390   5.102 -0.1894 -0.0372 -0.4132
 2120TIP3    H127851   6.679   6.469   5.141 -0.9108 -0.2242 -0.6654
 2120TIP3    H227852   6.662   6.376   5.023 -0.9236 -1.4512  0.2849
 2121TIP3   OH227853   2.436   3.525  11.805  0.3507  0.2382 -1.0597
 2121TIP3    H127854   2.422   3.437  11.771  0.4619  0.5824 -2.0539
 2121TIP3    H227855   2.486   3.569  11.736 -0.1867  1.2430 -0.8310
 2122TIP3   OH227856   0.962   6.590  14.893  0.0637  0.3165  0.6969
 2122TIP3    H127857   0.923   6.503  14.905  1.1923 -0.1560  1.1207
 2122TIP3    H227858   0.893   6.651  14.919 -0.2480 -0.5051  1.9115
 2123TIP3   OH227859   3.044   4.488  13.697 -0.8956 -0.3122  0.2661
 2123TIP3    H127860   3.008   4.507  13.611 -1.2227  1.5498  0.7671
 2123TIP3    H227861   3.118   4.549  13.706  1.6795 -3.1070 -0.2060
 2124TIP3   OH227862   4.766   2.054   3.426 -0.2277  0.3863 -0.2906
 2124TIP3    H127863   4.763   2.018   3.515 -0.7209  0.8042 -0.1281
 2124TIP3    H227864   4.841   2.113   3.426 -1.7535  2.4349  0.6809
 2125TIP3   OH227865   3.268   6.120   4.060 -0.3262  0.0551  0.2055
 2125TIP3    H127866   3.331   6.116   3.988  1.6573  1.9084  1.6820
 2125TIP3    H227867   3.309   6.071   4.131 -0.4466  1.3424  1.2189
 2126TIP3   OH227868   4.838   2.864  12.030  0.2022 -0.3518 -0.1676
 2126TIP3    H127869   4.773   2.819  11.976  2.3028 -1.5061 -1.9277
 2126TIP3    H227870   4.881   2.794  12.079 -0.5749  0.5134  1.8209
 2127TIP3   OH227871   0.279   6.521   2.385  0.6040 -0.3305 -0.0623
 2127TIP3    H127872   0.211   6.581   2.355  0.7934 -0.7279 -1.3533
 2127TIP3    H227873   0.361   6.568   2.369  0.6831  0.5024  2.2716
 2128TIP3   OH227874   1.902   2.419   4.371 -0.2360 -0.3187  0.0388
 2128TIP3    H127875   1.913   2.514   4.371 -1.3882 -0.1630 -0.1988
 2128TIP3    H227876   1.807   2.406   4.365 -0.0679 -1.4854 -0.4935
 2129TIP3   OH227877   5.731   4.686   5.905  0.4478 -0.5124  0.0885
 2129TIP3    H127878   5.681   4.713   5.982  0.9075  0.6149 -0.0044
 2129TIP3    H227879   5.667   4.687   5.834  0.5059  0.5772  0.0402
 2130TIP3   OH227880   3.619   5.970   5.151  0.3817  0.0506  0.8833
 2130TIP3    H127881   3.586   5.967   5.241  0.8409  1.7188  1.1389
 2130TIP3    H227882   3.710   5.998   5.160  1.0176 -1.5630 -0.0120
 2131TIP3   OH227883   2.656   4.096  15.903 -0.1753 -0.3922  0.8169
 2131TIP3    H127884   2.724   4.163  15.898  0.7086 -1.1871  1.7555
 2131TIP3    H227885   2.583   4.139  15.947 -0.4688  0.5951 -0.5598
 2132TIP3   OH227886   4.469   4.171   2.942  0.1325  0.5970 -0.1838
 2132TIP3    H127887   4.500   4.081   2.941 -2.8131 -0.5165 -1.1886
 2132TIP3    H227888   4.427   4.182   3.027 -1.2971  0.2794 -0.8135
 2133TIP3   OH227889   6.569   0.837   5.578  0.4748  0.3316 -0.8007
 2133TIP3    H127890   6.530   0.896   5.642  0.5584 -0.7447  0.2801
 2133TIP3    H227891   6.514   0.847   5.500  0.6794  2.0502 -0.7693
 2134TIP3   OH227892   3.990   3.300   0.660  0.4838  0.2916 -0.2911
 2134TIP3    H127893   3.965   3.391   0.671 -0.6008 -0.1332  0.9816
 2134TIP3    H227894   3.930   3.265   0.594 -1.1037 -0.2345  1.3741
 2135TIP3   OH227895   6.167   5.504   6.360  0.3661  0.2234  0.3284
 2135TIP3    H127896   6.244   5.560   6.350  0.1233  0.3713 -1.0399
 2135TIP3    H227897   6.202   5.416   6.370  0.7331  0.4693  1.1986
 2136TIP3   OH227898   5.063   0.480   1.684 -0.1725 -0.5582 -0.5746
 2136TIP3    H127899   5.110   0.555   1.721 -1.5676 -0.9907  2.3682
 2136TIP3    H227900   4.996   0.520   1.627  0.5180  0.2847 -0.8191
 2137TIP3   OH227901   0.261   0.189  11.711 -0.6061 -0.4212 -0.3439
 2137TIP3    H127902   0.316   0.206  11.788 -1.1631 -3.2503  0.8164
 2137TIP3    H227903   0.322   0.156  11.645 -0.5545 -1.2984  0.1236
 2138TIP3   OH227904   2.367   5.015   2.829 -0.3230 -0.7647  0.0890
 2138TIP3    H127905   2.405   4.999   2.916  1.5825  0.5702 -0.4302
 2138TIP3    H227906   2.280   4.974   2.833 -0.0358 -1.3082  2.3861
 2139TIP3   OH227907   5.516   6.630  14.001 -0.0884 -0.2549  0.5198
 2139TIP3    H127908   5.492   6.554  14.054  0.2530 -1.7190 -1.3203
 2139TIP3    H227909   5.445   6.639  13.938 -0.4762  1.4463  1.1324
 2140TIP3   OH227910   0.303   4.578  11.201 -0.2455 -0.5246  0.4554
 2140TIP3    H127911   0.211   4.564  11.226 -0.7354  0.0723 -0.9202
 2140TIP3    H227912   0.315   4.524  11.123  1.2172 -2.2702  1.7979
 2141TIP3   OH227913   6.042   4.824  11.089 -0.3086  0.1488 -0.5315
 2141TIP3    H127914   6.124   4.802  11.135 -0.7544  1.7956  1.2005
 2141TIP3    H227915   6.069   4.839  10.999  1.0322 -0.8500 -0.3451
 2142TIP3   OH227916   0.487   4.663   0.777 -0.0359  0.4151  0.5014
 2142TIP3    H127917   0.507   4.590   0.835  0.2193 -0.0916 -0.2079
 2142TIP3    H227918   0.521   4.635   0.691 -2.7987 -0.0433 -0.5416
 2143TIP3   OH227919   0.634   6.771   6.814 -0.3597 -0.2482  0.3211
 2143TIP3    H127920   0.660   6.862   6.801 -0.6999  0.0525  1.5916
 2143TIP3    H227921   0.619   6.764   6.908 -0.8859 -1.4761  0.1614
 2144TIP3   OH227922   3.100   3.337   1.784  0.5292  0.1068  0.4332
 2144TIP3    H127923   3.109   3.245   1.807  4.2501  0.1390 -0.1661
 2144TIP3    H227924   3.076   3.380   1.866 -0.1018 -1.2645  0.9922
 2145TIP3   OH227925   3.353   6.292  15.072  0.8321 -0.4102 -0.2005
 2145TIP3    H127926   3.336   6.331  15.157 -2.1270  0.4231 -1.0627
 2145TIP3    H227927   3.338   6.199  15.084  2.3208 -0.5885  0.5592
 2146TIP3   OH227928   4.249   2.607   4.463  0.3561  0.5270  0.2187
 2146TIP3    H127929   4.266   2.656   4.543 -0.1513 -0.8743  1.2259
 2146TIP3    H227930   4.194   2.534   4.491  0.2282 -0.0347 -1.4021
 2147TIP3   OH227931   5.072   4.046   6.091  0.1965  0.5842  0.7468
 2147TIP3    H127932   5.021   4.113   6.136 -1.2690 -1.1976  1.8664
 2147TIP3    H227933   5.006   3.987   6.053  1.2536 -2.4613  3.2145
 2148TIP3   OH227934   5.363   5.146   0.404 -0.0056 -0.0966 -0.4510
 2148TIP3    H127935   5.391   5.072   0.350  2.8255 -0.2411  1.0586
 2148TIP3    H227936   5.420   5.218   0.378 -1.2263  0.9645 -0.3243
 2149TIP3   OH227937   4.793   4.099   4.440  0.3310 -0.3117  0.0104
 2149TIP3    H127938   4.742   4.098   4.522  1.2259 -0.6701  0.5820
 2149TIP3    H227939   4.739   4.051   4.378  0.7077 -2.2251  1.0824
 2150TIP3   OH227940   0.119   1.902   3.971  0.1386  0.5401 -0.2814
 2150TIP3    H127941   0.042   1.959   3.968  0.6261  1.1823 -1.6630
 2150TIP3    H227942   0.173   1.939   4.041  0.4344  1.7752 -1.1458
 2151TIP3   OH227943   4.759   3.986   2.657  0.7055  0.4296  0.1781
 2151TIP3    H127944   4.851   3.961   2.657  0.6275  0.0753  1.4149
 2151TIP3    H227945   4.750   4.046   2.730 -0.1543  0.0094  0.4357
 2152TIP3   OH227946   0.675   0.511   3.061 -0.2867  0.5822 -0.2660
 2152TIP3    H127947   0.684   0.419   3.038  0.1269  0.5965 -0.1575
 2152TIP3    H227948   0.761   0.549   3.045  0.1071  0.5404  1.5224
 2153TIP3   OH227949   3.056   5.312   6.175 -0.3336 -0.3108 -0.1962
 2153TIP3    H127950   3.136   5.269   6.205  0.3335 -0.2402 -1.7455
 2153TIP3    H227951   2.986   5.249   6.193  0.2010 -0.7527  0.3594
 2154TIP3   OH227952   4.260   3.339   0.307 -0.5719  0.2300 -0.7149
 2154TIP3    H127953   4.307   3.257   0.321 -0.4278 -0.0972 -2.8177
 2154TIP3    H227954   4.260   3.382   0.393  0.7252 -1.2386  0.0623
 2155TIP3   OH227955   3.962   6.107  14.463 -0.1242  0.5900  0.3531
 2155TIP3    H127956   4.009   6.027  14.489 -2.8463 -0.4344  2.6500
 2155TIP3    H227957   3.883   6.075  14.420 -1.2352  2.0177  1.2556
 2156TIP3   OH227958   3.342   1.755  12.646  0.0741  0.1528 -0.0331
 2156TIP3    H127959   3.414   1.800  12.690 -0.6787  0.3106  1.0774
 2156TIP3    H227960   3.366   1.663  12.648 -0.9440 -0.1476  2.7924
 2157TIP3   OH227961   3.739   0.388  10.843 -0.1908  0.6005 -0.2160
 2157TIP3    H127962   3.665   0.424  10.794  1.3727  1.9860 -1.6689
 2157TIP3    H227963   3.746   0.298  10.813  0.5980  1.3469 -2.5384
 2158TIP3   OH227964   6.274   4.809  14.045 -0.5358 -0.1214  0.2502
 2158TIP3    H127965   6.193   4.817  13.993 -0.1598 -0.8971 -0.4738
 2158TIP3    H227966   6.243   4.791  14.134 -1.2069  1.7837  0.4509
 2159TIP3   OH227967   2.934   3.532   2.404  0.1892 -0.0063  0.8440
 2159TIP3    H127968   2.857   3.510   2.457  0.8793 -1.3681  1.3227
 2159TIP3    H227969   3.008   3.516   2.461  0.8573  1.5111  0.4595
 2160TIP3   OH227970   1.483   2.877  15.732  0.0948  0.3423 -0.4388
 2160TIP3    H127971   1.475   2.968  15.702  1.6034  0.0434 -1.9655
 2160TIP3    H227972   1.394   2.844  15.733 -0.4151  1.6474 -0.5359
 2161TIP3   OH227973   1.366   1.786  10.355 -0.5284 -0.0431  0.2685
 2161TIP3    H127974   1.452   1.804  10.317 -0.8510 -0.9304 -0.9634
 2161TIP3    H227975   1.310   1.854  10.320 -0.6187 -0.2887 -0.0690
 2162TIP3   OH227976   2.321   1.340   0.201  0.6341 -0.4656  0.5624
 2162TIP3    H127977   2.379   1.412   0.226  0.4777  0.9774 -2.7032
 2162TIP3    H227978   2.234   1.379   0.202  0.0797 -1.6246  1.9262
 2163TIP3   OH227979   0.758   0.426   0.326  0.2018 -0.1344 -0.1082
 2163TIP3    H127980   0.663   0.429   0.327  0.2066  1.2645  1.0037
 2163TIP3    H227981   0.780   0.333   0.321 -1.2416 -0.6177  1.6092
 2164TIP3   OH227982   4.371   0.713   3.680  0.2017  0.4550  0.2421
 2164TIP3    H127983   4.345   0.682   3.767  0.0594  0.9930  0.4020
 2164TIP3    H227984   4.458   0.677   3.666  0.4726  0.8521  0.8663
 2165TIP3   OH227985   4.947   1.267  14.822 -0.3341 -0.2155 -0.1211
 2165TIP3    H127986   4.961   1.355  14.857 -0.7629 -1.0298  2.2929
 2165TIP3    H227987   5.033   1.226  14.824 -0.2048 -0.0031 -0.8895
 2166TIP3   OH227988   5.243   2.413   4.644  0.0296 -0.0981 -0.5907
 2166TIP3    H127989   5.232   2.407   4.549 -2.6448 -0.7874 -0.3187
 2166TIP3    H227990   5.333   2.444   4.655  0.3617  0.2399 -3.3336
 2167TIP3   OH227991   2.153   0.062  15.807 -0.0585 -0.2416 -0.1363
 2167TIP3    H127992   2.067   0.051  15.766 -1.5727  1.7601  2.1961
 2167TIP3    H227993   2.184   0.147  15.775  1.0014 -0.8806 -0.8389
 2168TIP3   OH227994   3.168   6.079   1.201 -0.1383 -0.0923  0.0310
 2168TIP3    H127995   3.086   6.031   1.208 -0.0765 -0.0593  1.1917
 2168TIP3    H227996   3.169   6.112   1.112 -0.2004 -2.1901 -0.8011
 2169TIP3   OH227997   0.461   1.082   0.420  0.4034 -0.3195  0.3849
 2169TIP3    H127998   0.446   0.990   0.442 -0.9025 -0.6030 -1.4805
 2169TIP3    H227999   0.378   1.113   0.385  0.6179  1.8048  1.5949
 2170TIP3   OH228000   1.450   5.232   6.272 -0.1657 -0.1065  0.2420
 2170TIP3    H128001   1.441   5.140   6.246 -0.6429  0.8124 -3.4179
 2170TIP3    H228002   1.540   5.239   6.305 -0.3311 -1.9551  1.1966
 2171TIP3   OH228003   0.424   0.023   4.745  0.1708  0.2260  0.3890
 2171TIP3    H128004   0.420  -0.073   4.739 -0.1366  0.1707  1.2831
 2171TIP3    H228005   0.453   0.040   4.834 -1.7384  0.9856  0.9077
 2172TIP3   OH228006   1.246   0.140  13.227  0.0688  0.2308 -0.5425
 2172TIP3    H128007   1.340   0.154  13.223  0.0378  0.3765 -0.7322
 2172TIP3    H228008   1.236   0.046  13.239  0.2421  0.2338 -0.3684
 2173TIP3   OH228009   2.363   2.045  11.055 -0.2914 -0.3742 -0.3293
 2173TIP3    H128010   2.335   2.043  11.147  0.2017 -1.7863 -0.1869
 2173TIP3    H228011   2.446   1.999  11.054 -0.6927 -1.1176 -1.6182
 2174TIP3   OH228012   6.496   2.288   5.820 -0.4039  0.1488  0.4796
 2174TIP3    H128013   6.425   2.352   5.829  0.2840  1.0077 -0.0607
 2174TIP3    H228014   6.572   2.331   5.859  0.2721  0.0253 -0.6453
 2175TIP3   OH228015   5.497   2.359   0.950  0.3852 -0.2976  0.0583
 2175TIP3    H128016   5.409   2.365   0.989  0.6125  0.4999  0.4646
 2175TIP3    H228017   5.499   2.272   0.910 -1.5875  0.6996 -2.4315
 2176TIP3   OH228018   0.911   5.434  14.536 -0.3003 -0.0823 -0.6871
 2176TIP3    H128019   0.896   5.354  14.586 -0.3160  0.2410 -0.1701
 2176TIP3    H228020   0.945   5.496  14.600 -1.6264  0.7579 -0.7752
 2177TIP3   OH228021   3.895   0.363  15.895 -0.7337  0.0332  0.2839
 2177TIP3    H128022   3.822   0.397  15.946  0.6391  0.4081  2.0767
 2177TIP3    H228023   3.900   0.270  15.917 -1.2599 -0.2299 -0.6259
 2178TIP3   OH228024   1.890   6.360  11.843 -0.6596  0.2660  0.1438
 2178TIP3    H128025   1.900   6.362  11.748  0.2644 -0.8660  0.1888
 2178TIP3    H228026   1.799   6.336  11.856 -0.2245 -2.0168 -0.5320
 2179TIP3   OH228027   4.605   0.650   3.586 -0.1496  0.2412 -0.1769
 2179TIP3    H128028   4.567   0.672   3.501  0.4914  2.4133  0.0591
 2179TIP3    H228029   4.684   0.600   3.565 -0.2351  0.3703 -0.8283
 2180TIP3   OH228030   1.441   2.175   2.264 -0.1253  0.2149  0.2344
 2180TIP3    H128031   1.486   2.143   2.342 -0.4356  1.8210  1.1221
 2180TIP3    H228032   1.455   2.270   2.265  1.1857  0.1385 -2.5461
 2181TIP3   OH228033   4.085   3.953   0.636 -0.0158  0.2958  0.2867
 2181TIP3    H128034   4.134   4.035   0.640 -0.7139  0.6637  2.1844
 2181TIP3    H228035   4.092   3.925   0.544  2.0311  1.3572  0.0647
 2182TIP3   OH228036   6.500   4.365  16.349  0.0331  0.0780  0.0459
 2182TIP3    H128037   6.532   4.307  16.280 -0.5537  1.4955 -1.4963
 2182TIP3    H228038   6.463   4.306  16.415  3.4933 -1.4889  0.7835
 2183TIP3   OH228039   4.629   6.011   4.615 -0.3888  0.3737 -0.0883
 2183TIP3    H128040   4.640   5.923   4.653  0.3557  0.7651  0.6190
 2183TIP3    H228041   4.556   6.049   4.663  0.8767  1.0595  1.3513
 2184TIP3   OH228042   0.126   1.673   5.755  0.5111 -0.1839 -0.4857
 2184TIP3    H128043   0.149   1.691   5.846 -0.6462 -0.5116 -0.1076
 2184TIP3    H228044   0.100   1.758   5.719 -3.1142 -0.5800  0.7531
 2185TIP3   OH228045   6.588   0.687  13.421 -0.7745 -0.3378 -0.1402
 2185TIP3    H128046   6.615   0.727  13.504  0.0906 -0.8230 -0.1844
 2185TIP3    H228047   6.501   0.651  13.439 -1.4993  1.3646 -0.0369
 2186TIP3   OH228048   2.032   1.578  16.851 -0.4595 -0.2764 -0.2258
 2186TIP3    H128049   2.106   1.533  16.810  1.2268  1.2180  0.9950
 2186TIP3    H228050   2.057   1.585  16.943 -0.7914  2.6598 -0.2594
 2187TIP3   OH228051   0.292   1.766   3.516 -0.1124 -0.4368 -0.2076
 2187TIP3    H128052   0.310   1.702   3.586 -1.4526  0.7465  1.2994
 2187TIP3    H228053   0.306   1.717   3.435  2.6877 -1.5331  0.8197
 2188TIP3   OH228054   3.484   6.092  16.480  0.0050  0.6015 -0.1136
 2188TIP3    H128055   3.450   6.180  16.493 -1.3200  0.1156 -0.1218
 2188TIP3    H228056   3.542   6.100  16.404 -0.4157  1.3867 -0.3627
 2189TIP3   OH228057   5.988   3.282   2.599 -0.6054 -0.0153  0.0161
 2189TIP3    H128058   5.931   3.244   2.667 -1.6068 -0.9912 -1.3077
 2189TIP3    H228059   5.989   3.216   2.530  0.7554  0.7667 -0.7456
 2190TIP3   OH228060   1.358   5.668   2.135  0.2010 -0.3905  0.6261
 2190TIP3    H128061   1.267   5.685   2.112 -0.3346  0.3319  3.0397
 2190TIP3    H228062   1.406   5.744   2.100  0.0162 -0.9990 -1.0652
 2191TIP3   OH228063   5.862   6.068   3.704 -0.3281 -0.1334  0.1120
 2191TIP3    H128064   5.899   6.155   3.721 -0.2733 -0.1401  0.0246
 2191TIP3    H228065   5.769   6.077   3.726 -0.5343  0.2272 -0.8841
 2192TIP3   OH228066   0.013   4.885   5.036 -0.0068 -0.5381  0.2037
 2192TIP3    H128067   0.030   4.819   4.968  0.7216  0.0202 -0.1741
 2192TIP3    H228068   0.092   4.940   5.036 -1.1105  1.1306 -0.4159
 2193TIP3   OH228069   0.703   2.951  16.910 -0.3764  0.2751 -0.2143
 2193TIP3    H128070   0.719   2.965  17.003  0.6515  0.2024 -0.3665
 2193TIP3    H228071   0.676   3.036  16.876  1.6320  0.9389 -0.3008
 2194TIP3   OH228072   5.524   0.238   3.061  0.3132  0.4476 -0.1742
 2194TIP3    H128073   5.459   0.177   3.097 -0.6760  0.1403 -2.3237
 2194TIP3    H228074   5.551   0.198   2.978  2.2120  1.2992 -0.0099
 2195TIP3   OH228075   1.409   3.641  13.050  0.0069  0.0588 -0.1843
 2195TIP3    H128076   1.419   3.678  12.963 -1.9238  1.9719  0.3077
 2195TIP3    H228077   1.394   3.717  13.107 -0.7216 -1.2572  1.4800
 2196TIP3   OH228078   5.702   4.861  15.702 -0.5080 -0.1374  0.3007
 2196TIP3    H128079   5.643   4.814  15.642 -0.9852  1.3411 -0.4395
 2196TIP3    H228080   5.688   4.953  15.681  0.6010  0.3309  1.5283
 2197TIP3   OH228081   0.097   1.722  11.670 -0.0664  0.1596  0.2321
 2197TIP3    H128082   0.156   1.711  11.744  1.5446 -1.7784 -1.2037
 2197TIP3    H228083   0.019   1.763  11.706  0.4575 -1.1372  3.0686
 2198TIP3   OH228084   5.700   3.986   3.069  0.0806 -0.4078  0.1002
 2198TIP3    H128085   5.766   3.932   3.027  0.9656  0.2594  0.6006
 2198TIP3    H228086   5.629   3.992   3.005  1.4165  0.6542 -1.3603
 2199TIP3   OH228087   2.171   5.244  15.388  0.1340 -0.8526 -0.3235
 2199TIP3    H128088   2.151   5.162  15.432  0.5766 -1.1294 -0.6216
 2199TIP3    H228089   2.117   5.310  15.432 -3.0680 -1.8556 -2.4262
 2200TIP3   OH228090   6.009   2.845   2.816  0.0439 -0.0385  0.7942
 2200TIP3    H128091   5.918   2.870   2.833 -0.0875 -0.8844  1.3693
 2200TIP3    H228092   6.015   2.842   2.720  0.0147  1.9521  0.6891
 2201TIP3   OH228093   3.546   0.142   1.073  0.0243 -0.0636  0.4815
 2201TIP3    H128094   3.613   0.186   1.021  0.0786 -0.8976 -0.1903
 2201TIP3    H228095   3.595   0.095   1.140  0.2999 -1.8288 -0.8564
 2202TIP3   OH228096   4.083   5.524   1.744  0.2108 -0.3128  0.1483
 2202TIP3    H128097   4.086   5.606   1.695  0.7523  0.7334  1.8597
 2202TIP3    H228098   4.048   5.460   1.682  0.4905  1.0355 -1.4543
 2203TIP3   OH228099   2.015   2.693  11.658  0.0685 -0.0771 -0.2796
 2203TIP3    H128100   1.922   2.669  11.666 -0.0158  0.4751  0.5195
 2203TIP3    H228101   2.019   2.744  11.577 -0.3463 -0.0052 -0.2599
 2204TIP3   OH228102   0.208   1.415  12.096 -0.2571  0.2840 -0.2817
 2204TIP3    H128103   0.167   1.499  12.117 -0.5672  0.0463  0.0677
 2204TIP3    H228104   0.135   1.360  12.066  0.0304  0.3218 -1.0881
 2205TIP3   OH228105   6.738   3.565  14.422  0.4048 -0.2598 -0.2047
 2205TIP3    H128106   6.796   3.499  14.459  0.9687  0.1305 -0.3853
 2205TIP3    H228107   6.765   3.572  14.331  0.6993  0.5935 -0.0591
 2206TIP3   OH228108   5.474   6.108  16.936 -0.2149 -0.0811 -0.0396
 2206TIP3    H128109   5.393   6.154  16.955  0.1752 -0.0002  1.5712
 2206TIP3    H228110   5.501   6.071  17.020  2.2507  1.2433 -0.1710
 2207TIP3   OH228111   1.664   0.125   0.526 -0.2516 -0.0758 -0.0918
 2207TIP3    H128112   1.730   0.062   0.556 -0.9631 -0.0087  1.7852
 2207TIP3    H228113   1.583   0.098   0.570 -0.6945  1.7930  0.3372
 2208TIP3   OH228114   0.908   5.123  14.143  0.5341 -0.4011  0.0481
 2208TIP3    H128115   0.874   5.203  14.104 -1.7575 -0.3310  1.9727
 2208TIP3    H228116   0.962   5.153  14.216  1.2494 -0.5895 -0.4009
 2209TIP3   OH228117   3.169   1.515  16.840  0.3729  0.6151 -0.2026
 2209TIP3    H128118   3.151   1.605  16.868  1.2529  1.3227 -1.7866
 2209TIP3    H228119   3.165   1.518  16.745  0.1047 -1.1153 -0.2783
 2210TIP3   OH228120   3.315   3.281   2.055  0.1929  0.3836 -0.3216
 2210TIP3    H128121   3.236   3.333   2.067 -0.2864 -0.1625 -0.9958
 2210TIP3    H228122   3.369   3.301   2.131 -1.1020 -0.1459  0.7913
 2211TIP3   OH228123   4.230   2.017  15.262  0.4092 -0.2888 -0.1750
 2211TIP3    H128124   4.210   2.108  15.242  0.6450  0.0359  0.9799
 2211TIP3    H228125   4.302   2.022  15.325 -0.2193 -1.2295  0.6461
 2212TIP3   OH228126   3.518   3.324   0.714  0.4106 -0.2004 -0.0191
 2212TIP3    H128127   3.519   3.235   0.749  2.0038 -0.4337 -0.5733
 2212TIP3    H228128   3.557   3.378   0.783 -1.6422  0.3156  0.8090
 2213TIP3   OH228129   4.716   0.850   3.752  0.2429 -0.2029  0.0313
 2213TIP3    H128130   4.680   0.769   3.715 -1.5291  0.5436  0.0127
 2213TIP3    H228131   4.805   0.828   3.777 -0.0264 -2.0043 -0.4814
 2214TIP3   OH228132   5.060   3.283  15.799 -0.0741 -0.0291 -0.0335
 2214TIP3    H128133   5.086   3.228  15.872 -1.0100  0.5529  0.7601
 2214TIP3    H228134   4.975   3.249  15.771 -0.1672  0.3461 -0.2271
 2215TIP3   OH228135   4.206   0.186   0.349 -0.6771  0.2958  0.1429
 2215TIP3    H128136   4.159   0.206   0.269  0.2999 -0.2890 -0.5937
 2215TIP3    H228137   4.163   0.240   0.416 -0.3970  2.1018 -1.0764
 2216TIP3   OH228138   6.562   0.020  14.119  0.1305  0.3540 -0.5089
 2216TIP3    H128139   6.506  -0.018  14.187 -0.7359 -0.1317 -1.4511
 2216TIP3    H228140   6.514   0.097  14.088  0.1219  0.1152 -1.1104
 2217TIP3   OH228141   1.042   1.151  14.652 -0.1774 -0.4534  0.4155
 2217TIP3    H128142   1.116   1.094  14.671 -0.4988 -0.1210  2.9166
 2217TIP3    H228143   1.024   1.197  14.734 -1.9550  0.8890 -0.6398
 2218TIP3   OH228144   2.699   4.833  15.332  0.8902 -0.2678  0.0703
 2218TIP3    H128145   2.653   4.875  15.260  0.8164 -0.2692  0.1164
 2218TIP3    H228146   2.788   4.868  15.328  1.1723 -1.0331 -0.6502
 2219TIP3   OH228147   5.714   4.401   4.108  0.0442  0.3321  0.5185
 2219TIP3    H128148   5.677   4.478   4.150 -0.5273  0.5214 -0.3002
 2219TIP3    H228149   5.709   4.420   4.014  0.3914 -0.4733  0.3273
 2220TIP3   OH228150   0.150   2.513   0.870  0.2828 -0.1198 -0.2668
 2220TIP3    H128151   0.148   2.520   0.775 -0.9760  0.8023 -0.1963
 2220TIP3    H228152   0.188   2.595   0.900  2.2315 -1.0582  0.0118
 2221TIP3   OH228153   0.894   0.343  14.412 -0.8113  0.1906  0.3270
 2221TIP3    H128154   0.915   0.427  14.452  1.4504 -0.2133  0.1193
 2221TIP3    H228155   0.936   0.278  14.469 -1.1401 -0.6703 -0.3897
 2222TIP3   OH228156   2.780   5.681   3.933  0.5569 -0.1254  0.2009
 2222TIP3    H128157   2.870   5.657   3.910  0.6463 -0.2492  0.6679
 2222TIP3    H228158   2.761   5.629   4.011  0.4052  0.6023  0.6587
 2223TIP3   OH228159   4.021   2.175  11.973  0.0167 -0.6085 -0.6892
 2223TIP3    H128160   4.011   2.221  11.889 -0.6010  1.8775  0.6453
 2223TIP3    H228161   3.938   2.129  11.984 -0.0970 -0.5436 -1.2209
 2224TIP3   OH228162   1.696   3.708  12.859 -0.5511 -0.0174 -0.2929
 2224TIP3    H128163   1.717   3.616  12.874  0.0942  0.3045  0.8450
 2224TIP3    H228164   1.745   3.731  12.779  1.6622  0.0865  1.0062
 2225TIP3   OH228165   3.725   6.781  11.833 -0.0166  0.1731  0.2710
 2225TIP3    H128166   3.708   6.751  11.922  0.4524  0.3571  0.4266
 2225TIP3    H228167   3.728   6.702  11.780  0.1864  0.0265  0.5024
 2226TIP3   OH228168   6.663   4.624  11.695  0.6870  0.2208  0.2330
 2226TIP3    H128169   6.645   4.717  11.710  1.7826  0.5849 -0.5521
 2226TIP3    H228170   6.631   4.608  11.606  2.0563  0.3018 -0.2919
 2227TIP3   OH228171   3.750   5.857  12.269  0.0329  0.8832 -0.3511
 2227TIP3    H128172   3.780   5.775  12.309  1.4776  1.5546  0.0253
 2227TIP3    H228173   3.691   5.830  12.199 -0.6254 -0.4145  0.6718
 2228TIP3   OH228174   0.451   6.064   3.052  0.2957  0.0978 -0.5738
 2228TIP3    H128175   0.453   6.042   2.959  0.4305 -0.3051 -0.4751
 2228TIP3    H228176   0.504   6.144   3.058  1.6975 -0.7809 -0.6104
 2229TIP3   OH228177   1.628   3.968  13.355  0.3159 -0.2540 -0.8717
 2229TIP3    H128178   1.607   4.004  13.269  2.1803  0.6717 -0.9981
 2229TIP3    H228179   1.674   3.886  13.336  0.3210 -0.2833 -0.7348
 2230TIP3   OH228180   3.845   0.631  15.763 -0.2999  0.7722 -0.1671
 2230TIP3    H128181   3.868   0.538  15.764 -0.4707  0.7105 -1.1565
 2230TIP3    H228182   3.749   0.632  15.767 -0.2674  0.9408  0.7786
 2231TIP3   OH228183   0.098   0.084  13.532 -0.1320 -0.1127 -0.2516
 2231TIP3    H128184   0.095   0.175  13.501 -1.9540  0.2276  0.7787
 2231TIP3    H228185   0.006   0.060  13.545 -0.0317 -3.4100 -3.9415
 2232TIP3   OH228186   0.320   6.643   1.146  0.9752  0.5294  0.6934
 2232TIP3    H128187   0.259   6.697   1.196  2.1865  0.6236  2.1288
 2232TIP3    H228188   0.268   6.566   1.121 -0.5719  1.9591 -0.8027
 2233TIP3   OH228189   2.121   3.492   1.069 -0.4168 -0.2001 -0.2862
 2233TIP3    H128190   2.063   3.568   1.076  0.3792  0.3793  0.1208
 2233TIP3    H228191   2.084   3.429   1.131  1.3301  1.4775  2.7466
 2234TIP3   OH228192   1.788   2.915   0.811 -0.1279 -0.1473  0.2778
 2234TIP3    H128193   1.834   2.992   0.778 -0.2582 -0.3314 -0.3630
 2234TIP3    H228194   1.846   2.879   0.878  0.6446 -0.3371 -0.4622
 2235TIP3   OH228195   3.158   3.459   5.951 -0.0744  0.3453 -0.0028
 2235TIP3    H128196   3.155   3.377   5.902  4.5707 -0.1578  0.1223
 2235TIP3    H228197   3.129   3.436   6.039 -3.4753  0.0966 -1.0438
 2236TIP3   OH228198   6.570   1.267  15.265 -0.0402 -0.2209  0.5545
 2236TIP3    H128199   6.631   1.203  15.302 -1.3994 -1.8723  0.0562
 2236TIP3    H228200   6.626   1.341  15.240  1.8632 -1.8253 -0.2779
 2237TIP3   OH228201   5.458   3.733   5.738 -0.1009  0.0667  0.3437
 2237TIP3    H128202   5.546   3.718   5.774  0.6621 -1.5042 -1.9101
 2237TIP3    H228203   5.439   3.653   5.689 -3.0318  0.1949  1.1318
 2238TIP3   OH228204   1.801   1.386  17.157 -0.0575  0.3620 -0.6745
 2238TIP3    H128205   1.891   1.356  17.146  0.2767  1.5218 -1.1819
 2238TIP3    H228206   1.779   1.427  17.073 -0.9493  0.3768 -0.4448
 2239TIP3   OH228207   5.584   5.522  10.589 -0.2130 -0.6125  0.4987
 2239TIP3    H128208   5.652   5.481  10.644 -0.1005 -0.0551  0.7860
 2239TIP3    H228209   5.514   5.458  10.586 -0.3591 -0.5335  1.5762
 2240TIP3   OH228210   5.066   2.312  14.501  0.1595  0.0839 -0.3565
 2240TIP3    H128211   5.068   2.323  14.406 -2.4639 -0.6174 -0.5712
 2240TIP3    H228212   5.098   2.224  14.516  1.3266  0.4724 -0.4991
 2241TIP3   OH228213   0.205   2.239  12.743 -0.4561 -0.2147  0.2340
 2241TIP3    H128214   0.227   2.236  12.836 -1.5469 -0.3071  0.5060
 2241TIP3    H228215   0.247   2.319  12.711 -0.8113  0.3027  1.0166
 2242TIP3   OH228216   3.728   5.800  14.633 -0.1843  0.3803 -0.0466
 2242TIP3    H128217   3.786   5.837  14.699  0.9876 -0.8049 -0.3526
 2242TIP3    H228218   3.640   5.810  14.669  0.4765 -1.4096  2.3594
 2243TIP3   OH228219   2.692   6.644  13.708  0.4639  0.1766 -0.0640
 2243TIP3    H128220   2.722   6.621  13.796  0.3874 -0.7447 -0.2672
 2243TIP3    H228221   2.768   6.684  13.666  0.2303  1.4945  0.7159
 2244TIP3   OH228222   3.003   1.702  15.688 -0.1211 -0.1132 -0.0693
 2244TIP3    H128223   3.025   1.757  15.614  0.1598 -0.4354 -0.2290
 2244TIP3    H228224   2.922   1.658  15.662 -1.9627  2.3157  1.1744
 2245TIP3   OH228225   5.864   3.912  15.415 -0.1832  0.5591 -0.2258
 2245TIP3    H128226   5.922   3.979  15.450 -0.6387  0.5132  0.6717
 2245TIP3    H228227   5.896   3.895  15.327  0.0016  1.8735 -0.4265
 2246TIP3   OH228228   4.893   5.190   1.173 -0.8537  0.0858  0.3910
 2246TIP3    H128229   4.962   5.253   1.153  1.7009 -2.3427  1.0243
 2246TIP3    H228230   4.857   5.166   1.087 -0.0608  0.4867 -0.0686
 2247TIP3   OH228231   4.899   4.201  14.711 -0.4382  0.2911  0.2397
 2247TIP3    H128232   4.985   4.174  14.744  0.1015  0.1944 -1.1819
 2247TIP3    H228233   4.900   4.296  14.718 -1.6689  0.1996  3.6131
 2248TIP3   OH228234   2.465   5.487   3.645 -0.1740 -0.0576 -0.2344
 2248TIP3    H128235   2.375   5.518   3.655 -0.5096  0.1205 -2.9735
 2248TIP3    H228236   2.519   5.554   3.688 -1.2788  0.3704  0.5288
 2249TIP3   OH228237   1.463   5.810  12.846 -0.6434  0.3035  0.0506
 2249TIP3    H128238   1.479   5.891  12.799 -1.8155 -0.5631 -2.0024
 2249TIP3    H228239   1.530   5.749  12.814 -0.0363  0.3110  1.2517
 2250TIP3   OH228240   5.539   2.315  12.553  0.1502  0.1588  0.3570
 2250TIP3    H128241   5.510   2.391  12.502  1.3782  0.0449 -0.5457
 2250TIP3    H228242   5.537   2.346  12.644 -0.1290  1.0191  0.0722
 2251TIP3   OH228243   5.803   4.963   0.104  0.0639 -0.1251 -0.7179
 2251TIP3    H128244   5.868   4.966   0.174  0.4957  2.4605 -1.1097
 2251TIP3    H228245   5.719   4.973   0.148  0.2065 -0.0851 -0.4546
 2252TIP3   OH228246   2.614   5.573  15.850 -0.1814  0.0347  0.4294
 2252TIP3    H128247   2.546   5.609  15.793 -1.4033 -1.6286  0.7768
 2252TIP3    H228248   2.622   5.481  15.824  1.3312 -0.0225  0.9849
 2253TIP3   OH228249   1.061   0.975  16.531 -0.3640  0.2795 -0.1618
 2253TIP3    H128250   1.036   1.064  16.552  0.3734  0.4294  0.1094
 2253TIP3    H228251   1.155   0.970  16.552 -0.5569 -0.7728  0.5513
 2254TIP3   OH228252   4.800   4.421   2.968 -0.5649  0.0227  0.1082
 2254TIP3    H128253   4.707   4.401   2.953 -0.7376  0.5537  0.4579
 2254TIP3    H228254   4.822   4.486   2.901 -1.3288  2.3685  1.9991
 2255TIP3   OH228255   0.809   4.337  15.642 -0.0373 -0.3602  0.4458
 2255TIP3    H128256   0.837   4.357  15.731  0.3124  0.0451  0.2464
 2255TIP3    H228257   0.884   4.293  15.602 -0.3249 -0.8759  0.4614
 2256TIP3   OH228258   5.386   3.787   3.691  0.8368  1.0320 -0.0586
 2256TIP3    H128259   5.353   3.814   3.605  0.7317  0.1548 -0.3038
 2256TIP3    H228260   5.480   3.782   3.680  0.7784  0.4168 -0.2666
 2257TIP3   OH228261   3.374   1.549  13.718  0.1997 -0.4072 -0.1896
 2257TIP3    H128262   3.368   1.553  13.814  3.4763  1.9260  0.0872
 2257TIP3    H228263   3.410   1.461  13.701  1.0649 -0.2926  0.8962
 2258TIP3   OH228264   4.127   0.452   4.828 -0.0645 -0.4666 -0.1336
 2258TIP3    H128265   4.052   0.394   4.819  0.5968 -1.4793  0.6301
 2258TIP3    H228266   4.117   0.491   4.915 -1.3588  1.8866 -1.2214
 2259TIP3   OH228267   0.717   0.637  14.367 -0.0662  0.1236  0.4869
 2259TIP3    H128268   0.775   0.656  14.293 -1.7843  0.8528 -0.7356
 2259TIP3    H228269   0.773   0.592  14.431  1.0930 -2.1133 -1.9448
 2260TIP3   OH228270   5.728   0.707   4.411 -0.2824 -0.0929  0.1697
 2260TIP3    H128271   5.820   0.691   4.393 -0.6512 -2.6696  0.0906
 2260TIP3    H228272   5.727   0.750   4.497  0.9868  0.4395 -0.0655
 2261TIP3   OH228273   2.863   2.754  16.111 -0.1822 -0.0980 -0.3406
 2261TIP3    H128274   2.884   2.799  16.193 -1.0190  0.4575 -0.4218
 2261TIP3    H228275   2.881   2.662  16.129 -0.4259  0.0086  0.4871
 2262TIP3   OH228276   2.705   2.536   1.354  0.7748 -0.3485  0.1027
 2262TIP3    H128277   2.732   2.448   1.330  1.4638  0.1101 -0.8988
 2262TIP3    H228278   2.785   2.587   1.353  0.1696  0.6419 -1.0322
 2263TIP3   OH228279   2.254   2.332   5.480 -0.4829 -0.1349 -0.0313
 2263TIP3    H128280   2.255   2.330   5.384 -0.4880  0.2611 -0.0394
 2263TIP3    H228281   2.344   2.352   5.505 -0.2182 -1.3656  0.0819
 2264TIP3   OH228282   3.984   0.647  15.985 -0.0231  0.3183  0.3048
 2264TIP3    H128283   3.934   0.689  15.916  0.1049 -1.2883 -0.8285
 2264TIP3    H228284   3.975   0.553  15.968  2.0131 -0.0755  1.0134
 2265TIP3   OH228285   6.154   4.184  14.672 -0.0180 -0.6157 -0.7020
 2265TIP3    H128286   6.120   4.108  14.625 -3.4666  0.0260  0.4610
 2265TIP3    H228287   6.167   4.251  14.604 -1.9186 -0.6835 -1.1815
 2266TIP3   OH228288   0.297   0.394   4.341 -0.3057 -0.0058 -0.4480
 2266TIP3    H128289   0.257   0.313   4.374 -0.4766  0.2836  0.0739
 2266TIP3    H228290   0.260   0.462   4.397  1.2646  0.2247  0.3603
 2267TIP3   OH228291   2.458   1.478   5.278 -0.5077 -0.6304  0.2115
 2267TIP3    H128292   2.533   1.529   5.310 -2.0509  0.5427  2.1020
 2267TIP3    H228293   2.493   1.389   5.268  1.3457  0.0414  0.1800
 2268TIP3   OH228294   6.730   5.222  12.629 -0.1802  0.1253  0.2612
 2268TIP3    H128295   6.683   5.140  12.645 -1.1759  0.3244 -1.4111
 2268TIP3    H228296   6.673   5.289  12.666  0.6075  0.0963  1.5774
 2269TIP3   OH228297   5.629   3.047  13.871  0.0409  0.0986 -0.0403
 2269TIP3    H128298   5.596   3.058  13.960  0.4939 -2.0914  0.4405
 2269TIP3    H228299   5.695   2.978  13.877 -0.3461 -0.5426 -2.1849
 2270TIP3   OH228300   6.099   4.975   1.021 -0.0750 -0.2509  0.0542
 2270TIP3    H128301   6.160   5.034   0.978 -0.1597 -0.1143  0.1230
 2270TIP3    H228302   6.051   5.029   1.084 -0.0298 -0.4258  0.2424
 2271TIP3   OH228303   4.828   2.676  15.045 -0.2951 -0.2020 -0.7390
 2271TIP3    H128304   4.912   2.721  15.042 -0.8657  1.0505  0.8082
 2271TIP3    H228305   4.839   2.608  15.111 -0.7037  0.4403 -0.0007
 2272TIP3   OH228306   0.084   4.683  15.395 -0.8008  0.0410  0.2539
 2272TIP3    H128307   0.144   4.713  15.327  1.1165 -2.9005  0.4725
 2272TIP3    H228308   0.135   4.688  15.476 -1.2531 -1.3746  0.6484
 2273TIP3   OH228309   2.862   6.122  16.895 -0.0571 -0.0770 -0.0977
 2273TIP3    H128310   2.808   6.053  16.856 -1.7001  1.5766 -0.9027
 2273TIP3    H228311   2.898   6.169  16.821 -0.6742  1.2139  0.4023
 2274TIP3   OH228312   3.508   2.035   5.262 -0.0762 -0.1101 -0.0782
 2274TIP3    H128313   3.434   1.993   5.218 -1.1848  1.9151 -0.2778
 2274TIP3    H228314   3.474   2.121   5.288  1.9299  0.4879  0.7166
 2275TIP3   OH228315   6.602   5.347   2.092 -0.3201 -0.3253 -0.6371
 2275TIP3    H128316   6.551   5.343   2.173 -0.0754 -1.4142 -0.5232
 2275TIP3    H228317   6.605   5.440   2.070 -1.9844 -0.1912 -0.4130
 2276TIP3   OH228318   2.965   0.520   2.434 -0.2971  0.1971  0.1480
 2276TIP3    H128319   3.046   0.470   2.433 -0.6031 -0.3461  1.0647
 2276TIP3    H228320   2.976   0.585   2.365  0.8948  0.1060  0.2325
 2277TIP3   OH228321   5.537   0.546  14.460 -0.2183  0.1594 -0.3429
 2277TIP3    H128322   5.572   0.457  14.451  0.3239  0.3138  0.1923
 2277TIP3    H228323   5.554   0.588  14.376  2.3389  0.7420  0.3946
 2278TIP3   OH228324   2.234   3.329   4.608 -0.1022  0.1216  0.8769
 2278TIP3    H128325   2.287   3.251   4.592  0.9263  0.8069  0.7611
 2278TIP3    H228326   2.177   3.336   4.532  0.5241  0.0443  0.3902
 2279TIP3   OH228327   0.647   2.523   3.149 -0.1610  0.1533  0.2844
 2279TIP3    H128328   0.670   2.476   3.069  0.7253  1.2984 -0.1644
 2279TIP3    H228329   0.640   2.614   3.122 -1.2592  0.3775  1.2510
 2280TIP3   OH228330   1.863   1.430   3.705  0.6785  0.7618  0.0835
 2280TIP3    H128331   1.845   1.514   3.746 -1.7021 -0.0769  0.9832
 2280TIP3    H228332   1.900   1.376   3.775 -1.9801 -0.2098  0.8756
 2281TIP3   OH228333   0.657   6.273   3.766 -0.2805  0.3852 -0.0639
 2281TIP3    H128334   0.593   6.229   3.822 -0.0054 -0.4243 -0.3815
 2281TIP3    H228335   0.707   6.329   3.826  0.8042 -1.3605  0.7514
 2282TIP3   OH228336   3.186   4.995   5.965  0.2204  0.0846 -0.6266
 2282TIP3    H128337   3.212   5.052   6.038 -1.3809 -0.9899  0.8490
 2282TIP3    H228338   3.266   4.947   5.943  1.2197  1.7752 -0.9038
 2283TIP3   OH228339   3.682   0.775   4.306  0.2039  0.0528 -0.0409
 2283TIP3    H128340   3.726   0.759   4.389  1.6100 -1.4072 -1.0245
 2283TIP3    H228341   3.651   0.866   4.313 -0.5092 -0.3118  2.3977
 2284TIP3   OH228342   6.129   5.715   4.442  0.1399  0.3183 -0.7197
 2284TIP3    H128343   6.109   5.629   4.479  2.1003  1.2949  3.1702
 2284TIP3    H228344   6.213   5.704   4.398 -0.2576 -0.0259 -1.3935
 2285TIP3   OH228345   5.233   2.484  11.261 -0.2025 -0.1728 -0.1113
 2285TIP3    H128346   5.154   2.527  11.227 -0.5216 -0.3264  0.4229
 2285TIP3    H228347   5.208   2.392  11.270  0.2590 -0.3473 -0.5950
 2286TIP3   OH228348   1.100   5.680   5.722 -0.2434 -0.4043 -0.2903
 2286TIP3    H128349   1.033   5.656   5.658  0.6661 -0.7126 -1.1457
 2286TIP3    H228350   1.086   5.620   5.795 -1.7418  0.4123  0.1430
 2287TIP3   OH228351   0.187   5.617  11.734  0.4940  0.1287  0.2077
 2287TIP3    H128352   0.216   5.615  11.643 -0.8070 -0.4981 -0.2125
 2287TIP3    H228353   0.256   5.665  11.780  1.6371 -0.3770 -0.9264
 2288TIP3   OH228354   3.546   2.318  12.180  0.0325 -0.0852 -0.3298
 2288TIP3    H128355   3.472   2.256  12.180 -1.5204  1.6897 -0.0091
 2288TIP3    H228356   3.601   2.287  12.252 -0.7301 -1.0592 -0.1297
 2289TIP3   OH228357   6.345   5.673  10.953 -0.1544  0.3896 -0.4694
 2289TIP3    H128358   6.396   5.695  10.876  0.9439 -2.7919 -0.8009
 2289TIP3    H228359   6.260   5.715  10.939  0.5338  1.1712 -2.6247
 2290TIP3   OH228360   4.593   2.981   3.959  0.8273  0.1543  0.2825
 2290TIP3    H128361   4.597   3.020   4.047  1.1154  0.1156  0.2868
 2290TIP3    H228362   4.499   2.980   3.938  0.7134 -0.2932  0.7942
 2291TIP3   OH228363   4.156   6.092  11.692  0.2076 -0.2895  0.8117
 2291TIP3    H128364   4.200   6.144  11.624  1.7614 -3.9317 -1.2334
 2291TIP3    H228365   4.089   6.043  11.645 -1.4367 -0.0023  2.7182
 2292TIP3   OH228366   3.249   3.515  15.794 -0.0234  0.2539 -0.3045
 2292TIP3    H128367   3.266   3.440  15.852  0.1558 -0.0864 -0.7883
 2292TIP3    H228368   3.239   3.476  15.707  1.3765  0.8911 -0.7892
 2293TIP3   OH228369   3.472   5.462  14.280  0.0426  1.1019 -0.5487
 2293TIP3    H128370   3.482   5.497  14.191  0.5353  0.0009 -0.9454
 2293TIP3    H228371   3.378   5.448  14.290 -0.0724  1.7371 -0.6872
 2294TIP3   OH228372   5.647   6.619   5.126 -0.7359 -0.2370  0.1467
 2294TIP3    H128373   5.576   6.660   5.176  1.3077  2.9411  0.6960
 2294TIP3    H228374   5.707   6.585   5.192  1.0188  2.2698 -0.0264
 2295TIP3   OH228375   1.318   3.464  14.867  0.3153 -0.4944 -0.1399
 2295TIP3    H128376   1.282   3.388  14.912 -1.6471  0.1102 -0.5861
 2295TIP3    H228377   1.309   3.536  14.930 -1.4553  0.1291 -1.0182
 2296TIP3   OH228378   5.359   6.394   5.963 -0.0022 -0.3117  0.0569
 2296TIP3    H128379   5.365   6.423   5.872 -1.8788  0.0806  0.0044
 2296TIP3    H228380   5.413   6.456   6.012  0.1330  0.1469 -0.6648
 2297TIP3   OH228381   1.140   0.278  16.170  0.1470  0.1716  0.0710
 2297TIP3    H128382   1.105   0.251  16.255 -1.4886  0.5514 -0.4537
 2297TIP3    H228383   1.203   0.347  16.191 -0.8386  0.8326  0.9361
 2298TIP3   OH228384   0.761   2.038  16.503  0.0454 -0.6752  0.4095
 2298TIP3    H128385   0.723   2.033  16.415 -1.2901 -0.6567  0.9510
 2298TIP3    H228386   0.782   1.948  16.525  2.3542 -0.4736 -0.7072
 2299TIP3   OH228387   2.035   6.048   5.156  0.4249  0.3266 -0.0594
 2299TIP3    H128388   2.055   6.036   5.064  0.4798  1.3342 -0.1876
 2299TIP3    H228389   2.012   6.141   5.164 -5.3158 -0.7496 -0.1379
 2300TIP3   OH228390   3.955   0.858  15.288 -0.3182 -0.0274  0.5822
 2300TIP3    H128391   4.002   0.784  15.326  0.4471  0.1487  0.0082
 2300TIP3    H228392   3.962   0.928  15.353  1.2633  0.3780  0.0290
 2301TIP3   OH228393   3.892   1.506  13.157 -0.0155 -0.7615 -0.5572
 2301TIP3    H128394   3.873   1.560  13.233  0.3327  0.9451 -1.6174
 2301TIP3    H228395   3.809   1.463  13.136 -1.0369  1.3562 -1.1518
 2302TIP3   OH228396   6.141   4.433  14.112  0.0514 -0.2164  0.2603
 2302TIP3    H128397   6.162   4.439  14.019 -0.9293  0.3251  0.0624
 2302TIP3    H228398   6.080   4.505  14.128  0.5422 -0.0262  1.4181
 2303TIP3   OH228399   5.212   4.379  11.494  0.1002 -0.2922 -0.2713
 2303TIP3    H128400   5.197   4.385  11.400  1.0833 -0.5142 -0.4594
 2303TIP3    H228401   5.297   4.335  11.502  0.6940  0.9347  0.6767
 2304TIP3   OH228402   1.499   0.712  11.706  0.0639  0.2044 -0.1632
 2304TIP3    H128403   1.543   0.628  11.714 -0.6998 -0.1001  1.0087
 2304TIP3    H228404   1.561   0.775  11.742 -0.4934 -0.2484  1.6682
 2305TIP3   OH228405   6.763   2.606  11.571  0.3172 -0.5007  0.1848
 2305TIP3    H128406   6.835   2.650  11.527  0.3391 -0.2671  0.4535
 2305TIP3    H228407   6.695   2.597  11.504  1.3872 -2.6940 -0.7248
 2306TIP3   OH228408   4.669   6.145  13.471 -0.1538  0.0423 -0.1404
 2306TIP3    H128409   4.593   6.202  13.478 -2.4116 -2.5527 -1.6894
 2306TIP3    H228410   4.738   6.203  13.437 -2.1607  1.9604 -1.2620
 2307TIP3   OH228411   1.133   1.062  12.658  0.0410  0.2454  0.5154
 2307TIP3    H128412   1.103   0.995  12.719 -2.7230  1.9805  1.2401
 2307TIP3    H228413   1.059   1.122  12.649  1.7379  2.2571 -1.4767
 2308TIP3   OH228414   5.761   5.382   0.859 -0.6092 -0.4191  0.0878
 2308TIP3    H128415   5.836   5.424   0.818 -0.7773  0.7369  0.9024
 2308TIP3    H228416   5.731   5.318   0.795  1.6159 -1.5799  0.1167
 2309TIP3   OH228417   0.947   4.214   5.578 -0.2600 -0.4829  0.0997
 2309TIP3    H128418   0.913   4.204   5.489 -1.0670 -0.6981  0.4148
 2309TIP3    H228419   1.042   4.216   5.568 -0.3644  0.8989 -0.8994
 2310TIP3   OH228420   1.246   4.739  11.025  0.2189 -0.8050  0.3822
 2310TIP3    H128421   1.195   4.789  10.961  1.1764  0.8740  0.8531
 2310TIP3    H228422   1.310   4.692  10.972  0.2796 -0.3238  0.0124
 2311TIP3   OH228423   2.232   1.305  16.183 -0.2932 -0.6974 -0.2756
 2311TIP3    H128424   2.267   1.246  16.116 -1.2727 -0.0625 -1.3805
 2311TIP3    H228425   2.306   1.360  16.209  0.1469 -1.1110 -0.6513
 2312TIP3   OH228426   2.961   6.767  12.396  0.2043  0.0056  0.1473
 2312TIP3    H128427   2.937   6.771  12.488  0.6361 -0.9196  0.3144
 2312TIP3    H228428   3.053   6.793  12.393  0.3537 -0.5034  0.0646
 2313TIP3   OH228429   4.027   5.738  14.269  0.0486 -0.2468 -0.1571
 2313TIP3    H128430   4.080   5.670  14.310  0.5788  1.4423  2.1123
 2313TIP3    H228431   3.981   5.693  14.198  2.5316 -2.3288 -0.5726
 2314TIP3   OH228432   5.330   5.194   2.406 -0.3834 -0.0307 -0.4141
 2314TIP3    H128433   5.328   5.215   2.313 -1.7214 -0.7791 -0.5746
 2314TIP3    H228434   5.418   5.219   2.434  0.6821 -1.4295 -2.2791
 2315TIP3   OH228435   5.557   4.604   5.015  0.2612  0.2941 -0.3404
 2315TIP3    H128436   5.572   4.509   5.015 -0.3869  0.1842  0.1060
 2315TIP3    H228437   5.645   4.642   5.022  0.4423 -0.3064  0.9378
 2316TIP3   OH228438   0.731   6.508  13.297  0.1890 -0.2106 -0.2879
 2316TIP3    H128439   0.765   6.428  13.255  0.9851 -0.7729  1.3337
 2316TIP3    H228440   0.678   6.476  13.370 -0.7108  0.7498 -0.4948
 2317TIP3   OH228441   6.812   3.507   1.680 -0.4599 -0.7948 -0.5001
 2317TIP3    H128442   6.822   3.559   1.760  1.9876 -1.1839 -0.4641
 2317TIP3    H228443   6.744   3.443   1.700 -0.3434 -0.4588  1.0388
 2318TIP3   OH228444   1.358   0.137  14.065  0.7657 -0.3852 -1.2567
 2318TIP3    H128445   1.342   0.215  14.013  3.3392  0.9025 -0.3029
 2318TIP3    H228446   1.407   0.079  14.007  0.9593 -0.2559 -1.2228
 2319TIP3   OH228447   1.781   0.444  16.483  0.4969 -0.3009  0.0802
 2319TIP3    H128448   1.779   0.478  16.393  0.4818  1.1492  0.6000
 2319TIP3    H228449   1.842   0.503  16.529 -2.2682  1.3291  1.9132
 2320TIP3   OH228450   5.828   4.359  16.672 -0.4011  0.0769 -0.9602
 2320TIP3    H128451   5.768   4.393  16.605 -1.2129  1.4799  0.4169
 2320TIP3    H228452   5.787   4.278  16.702 -0.2926 -0.2920 -1.7832
 2321TIP3   OH228453   0.704   5.837   4.077 -0.1654 -0.0499 -0.0163
 2321TIP3    H128454   0.641   5.902   4.048 -0.2129  0.5172  1.2960
 2321TIP3    H228455   0.748   5.877   4.152  0.5268 -1.1275  0.1836
 2322TIP3   OH228456   6.773   0.194   2.847  0.2485 -0.1112  0.0834
 2322TIP3    H128457   6.683   0.183   2.817  0.5079 -0.0013 -0.7644
 2322TIP3    H228458   6.793   0.285   2.828  0.8126 -0.3537 -0.5219
 2323TIP3   OH228459   2.374   2.895  13.528  0.2830  0.5737 -0.1372
 2323TIP3    H128460   2.363   2.836  13.603 -1.2763 -1.5085 -1.8888
 2323TIP3    H228461   2.463   2.878  13.497  0.3044  0.1017  0.1686
 2324TIP3   OH228462   0.515   2.281  14.189 -0.4596  0.6947 -0.1363
 2324TIP3    H128463   0.493   2.259  14.279  2.0220  1.2342  0.6844
 2324TIP3    H228464   0.537   2.198  14.148  2.0654  0.7255  0.9333
 2325TIP3   OH228465   3.405   3.655   2.931 -0.2811 -0.0823  0.2075
 2325TIP3    H128466   3.495   3.682   2.952  0.1858  0.2307 -1.9806
 2325TIP3    H228467   3.352   3.733   2.946  0.3141  0.6717 -1.3406
 2326TIP3   OH228468   5.544   1.983  17.109 -0.5947 -0.4323 -0.7138
 2326TIP3    H128469   5.638   2.003  17.102 -0.2193 -1.8757 -0.1583
 2326TIP3    H228470   5.502   2.049  17.053  0.5472  1.6195  0.6958
 2327TIP3   OH228471   5.050   5.341  11.812 -0.5293  0.5278 -0.5845
 2327TIP3    H128472   5.057   5.299  11.726 -0.4391  0.3622 -0.4951
 2327TIP3    H228473   5.140   5.348  11.843 -0.6400 -0.3267 -0.0633
 2328TIP3   OH228474   1.722   2.384   2.632  0.1393 -0.4438 -0.2992
 2328TIP3    H128475   1.755   2.461   2.677  0.2004 -1.0449  0.7294
 2328TIP3    H228476   1.750   2.311   2.687 -2.6345 -1.0213  0.4725
 2329TIP3   OH228477   3.602   1.480  14.014  0.4258  0.5806  0.0780
 2329TIP3    H128478   3.642   1.485  13.927 -0.1596 -2.7418 -0.5063
 2329TIP3    H228479   3.676   1.474  14.074  0.8197  1.8408 -0.2460
 2330TIP3   OH228480   2.301   0.882  12.582 -0.4089  0.1205 -0.3287
 2330TIP3    H128481   2.391   0.896  12.551 -0.1384 -0.3821  0.1912
 2330TIP3    H228482   2.258   0.967  12.572 -0.2499  0.0510 -1.7662
 2331TIP3   OH228483   4.151   5.298   5.281  0.2842 -0.0324 -0.2062
 2331TIP3    H128484   4.096   5.310   5.204  0.0837 -1.6174 -0.3387
 2331TIP3    H228485   4.093   5.261   5.347  1.0553 -1.2418 -0.1833
 2332TIP3   OH228486   5.985   4.098  15.605 -0.0005  0.2366 -0.1171
 2332TIP3    H128487   6.015   4.187  15.589 -1.2799  0.3701 -2.0605
 2332TIP3    H228488   6.031   4.071  15.684  0.4817  2.5770  0.4694
 2333TIP3   OH228489   2.966   2.446  13.962  0.1857  0.1876 -0.0118
 2333TIP3    H128490   2.972   2.541  13.963 -0.0176  0.3795 -3.6507
 2333TIP3    H228491   3.057   2.416  13.957  0.2325  0.2020  0.7109
 2334TIP3   OH228492   1.116   1.880   4.745  0.0141 -0.1681 -0.3317
 2334TIP3    H128493   1.157   1.930   4.816  1.3107 -1.1078 -0.3834
 2334TIP3    H228494   1.152   1.792   4.754 -2.6692 -1.3061  0.1382
 2335TIP3   OH228495   2.458   5.330   5.744  0.2096  0.8322  0.0392
 2335TIP3    H128496   2.533   5.307   5.690 -0.1011  1.7064 -0.7987
 2335TIP3    H228497   2.492   5.330   5.834  0.6976 -0.7727 -0.1063
 2336TIP3   OH228498   4.233   3.772  11.667  0.2375  0.3813 -0.0949
 2336TIP3    H128499   4.308   3.775  11.607 -0.0061 -2.1433 -0.6448
 2336TIP3    H228500   4.205   3.681  11.665 -1.2168  0.7040  2.1530
 2337TIP3   OH228501   2.606   2.924   5.031  0.1796 -0.1769 -0.1817
 2337TIP3    H128502   2.539   2.934   4.963  1.1556 -0.7738 -1.2702
 2337TIP3    H228503   2.654   2.845   5.006  1.0558  0.0281  0.7794
 2338TIP3   OH228504   3.985   3.032   3.896  0.2426  0.6543 -0.5490
 2338TIP3    H128505   4.044   3.015   3.969 -0.5181  1.7349  0.3560
 2338TIP3    H228506   4.034   3.090   3.838  1.4593 -1.5004 -1.7700
 2339TIP3   OH228507   3.648   5.620  11.933  0.2481  0.0856 -0.3639
 2339TIP3    H128508   3.729   5.618  11.882  1.6466 -3.1129  1.6370
 2339TIP3    H228509   3.632   5.529  11.956 -4.4126  0.4271 -1.1724
 2340TIP3   OH228510   5.319   1.547  15.562  0.1494  0.0263 -0.0249
 2340TIP3    H128511   5.338   1.571  15.653 -0.2746 -0.0948  0.0999
 2340TIP3    H228512   5.255   1.612  15.533  0.8145  0.4931 -0.4705
 2341TIP3   OH228513   3.465   1.905  11.623 -0.0927 -0.5977 -0.1081
 2341TIP3    H128514   3.470   1.949  11.538  1.0609 -1.6756 -0.6243
 2341TIP3    H228515   3.425   1.820  11.604  1.2883 -1.3334  0.2089
 2342TIP3   OH228516   6.386   6.307  15.795 -0.6679  0.1553  0.3785
 2342TIP3    H128517   6.386   6.295  15.700 -1.0706  1.1122  0.2503
 2342TIP3    H228518   6.386   6.218  15.830 -0.4060 -0.2072 -0.5167
 2343TIP3   OH228519   4.380   2.826  15.869 -0.5019  0.1522  0.4339
 2343TIP3    H128520   4.390   2.789  15.781  1.3348  1.5344  0.0197
 2343TIP3    H228521   4.391   2.751  15.928  1.2189 -0.3347 -0.4394
 2344TIP3   OH228522   5.612   1.072   3.610 -0.3631 -0.2512 -0.3847
 2344TIP3    H128523   5.644   1.004   3.669  1.2320  1.4339  0.8091
 2344TIP3    H228524   5.658   1.056   3.527 -0.0555 -0.6473 -0.1416
 2345TIP3   OH228525   3.283   3.910  11.973  0.3534 -0.2286 -0.1534
 2345TIP3    H128526   3.231   3.990  11.970  2.0519  0.9306  0.5552
 2345TIP3    H228527   3.242   3.858  12.043 -0.4113  0.2456 -0.2335
 2346TIP3   OH228528   6.538   0.985   1.467 -0.2147 -0.1262  0.6631
 2346TIP3    H128529   6.604   1.009   1.531 -0.9978 -0.0867  1.4834
 2346TIP3    H228530   6.513   1.068   1.426  0.0536 -0.1052  0.5425
 2347TIP3   OH228531   3.375   2.086  16.170  0.4428  0.4772  0.4683
 2347TIP3    H128532   3.459   2.120  16.138  0.2767 -1.3353 -2.2977
 2347TIP3    H228533   3.399   2.021  16.236  1.3515 -0.7980 -1.0498
 2348TIP3   OH228534   5.251   0.749   3.764 -0.4134  0.5278 -0.0572
 2348TIP3    H128535   5.269   0.777   3.674  0.8849  0.4452  0.1631
 2348TIP3    H228536   5.334   0.712   3.795 -1.4347 -1.5057  0.4402
 2349TIP3   OH228537   5.522   4.728   4.150 -0.2699  0.1511  0.0006
 2349TIP3    H128538   5.593   4.738   4.087 -0.6404  3.5373 -0.0503
 2349TIP3    H228539   5.560   4.676   4.220  1.1244 -1.0685 -1.5693
 2350TIP3   OH228540   5.680   6.695   3.181 -0.7040 -0.0170 -0.0029
 2350TIP3    H128541   5.706   6.779   3.218  0.7161  0.4793 -1.9627
 2350TIP3    H228542   5.640   6.717   3.097 -0.9282 -1.2727 -0.2459
 2351TIP3   OH228543   3.595   5.242  10.947 -1.0438  0.0822 -0.6940
 2351TIP3    H128544   3.578   5.150  10.966 -0.1791 -0.1112 -0.8100
 2351TIP3    H228545   3.509   5.284  10.951 -1.3120 -0.5387  0.3641
 2352TIP3   OH228546   0.301   1.291   3.162 -0.0934 -0.3264  0.0537
 2352TIP3    H128547   0.329   1.378   3.134 -0.6423 -0.0841  0.2391
 2352TIP3    H228548   0.370   1.233   3.131 -1.1844 -0.2338 -2.8183
 2353TIP3   OH228549   1.332   4.907  14.617  0.7358 -0.4465 -0.1821
 2353TIP3    H128550   1.366   4.964  14.547  2.0303 -0.9519  0.0184
 2353TIP3    H228551   1.338   4.819  14.581  1.1866 -0.6897  0.4924
 2354TIP3   OH228552   1.842   2.124   6.372 -0.4569 -0.2029 -0.9176
 2354TIP3    H128553   1.879   2.179   6.303  0.2528 -0.5138 -0.8020
 2354TIP3    H228554   1.770   2.175   6.408 -0.0912  0.4614 -1.1031
 2355TIP3   OH228555   2.920   0.674  14.042 -0.0062  0.2463 -0.0729
 2355TIP3    H128556   2.839   0.672  13.991 -0.5911 -1.6483  0.8572
 2355TIP3    H228557   2.986   0.705  13.981 -0.6329 -2.1557 -2.0952
 2356TIP3   OH228558   6.761   5.947  11.084  0.5340  0.0806 -0.3537
 2356TIP3    H128559   6.747   5.853  11.100  0.3353  0.1616 -0.0515
 2356TIP3    H228560   6.825   5.949  11.012  0.9539 -0.2879 -0.0025
 2357TIP3   OH228561   3.091   5.413  11.606 -0.7497 -0.5941  0.4792
 2357TIP3    H128562   3.057   5.499  11.633 -0.0436 -0.0621 -0.2690
 2357TIP3    H228563   3.013   5.365  11.578 -0.9668  0.5377 -1.0066
 2358TIP3   OH228564   6.552   2.112  15.951  0.2680  0.3293  0.0472
 2358TIP3    H128565   6.535   2.021  15.925 -0.0046  0.7937 -1.4756
 2358TIP3    H228566   6.473   2.159  15.925  0.1682  0.9162  1.3617
 2359TIP3   OH228567   3.837   1.737   2.268  0.0483 -0.1065  0.3854
 2359TIP3    H128568   3.870   1.718   2.356  0.6561 -0.0949  0.1659
 2359TIP3    H228569   3.881   1.818   2.243  0.4479 -0.4971 -0.2163
 2360TIP3   OH228570   5.366   6.249   3.583  0.4723 -0.1398 -0.1495
 2360TIP3    H128571   5.337   6.249   3.674  0.0562 -0.6846 -0.2732
 2360TIP3    H228572   5.286   6.232   3.533  0.7593 -0.2003 -0.5902
 2361TIP3   OH228573   0.616   5.416  12.975 -0.0250  0.0380  0.1814
 2361TIP3    H128574   0.653   5.495  13.016  1.0584 -0.3413 -0.0339
 2361TIP3    H228575   0.615   5.437  12.882  1.0637 -0.5004  0.0330
 2362TIP3   OH228576   5.124   2.144   0.227 -0.3383 -0.4213  0.0069
 2362TIP3    H128577   5.149   2.063   0.272 -0.6429  0.2181  1.3678
 2362TIP3    H228578   5.131   2.122   0.134  1.4437 -1.4443  0.3251
 2363TIP3   OH228579   3.766   5.881  13.948  0.0494 -0.4415  0.4974
 2363TIP3    H128580   3.751   5.975  13.938  0.7509 -0.4773 -1.0863
 2363TIP3    H228581   3.858   5.874  13.975  0.0654 -0.6879  0.3827
 2364TIP3   OH228582   5.401   2.364  16.064  0.2540  0.4699 -0.1064
 2364TIP3    H128583   5.472   2.400  16.117 -0.3066  0.5380  0.6078
 2364TIP3    H228584   5.363   2.440  16.020  0.2444  0.5116 -0.0254
 2365TIP3   OH228585   4.709   3.882  11.386 -0.5035 -0.3281 -0.0108
 2365TIP3    H128586   4.790   3.832  11.392 -0.0945  0.3021 -0.1620
 2365TIP3    H228587   4.683   3.873  11.294 -0.4888 -0.3556 -0.0126
 2366TIP3   OH228588   6.003   5.253  14.159 -0.6656 -0.2805  0.1707
 2366TIP3    H128589   6.010   5.214  14.246 -0.0425 -1.3862 -0.3640
 2366TIP3    H228590   6.000   5.179  14.099 -1.0918  0.4656 -0.7681
 2367TIP3   OH228591   6.722   1.963   0.190 -0.5359 -0.2426  0.2459
 2367TIP3    H128592   6.726   2.003   0.277  0.4722  0.7965 -0.2496
 2367TIP3    H228593   6.795   1.900   0.190 -0.9002 -0.6671  0.3483
 2368TIP3   OH228594   0.136   1.057   5.236  0.0845 -0.0980 -0.2910
 2368TIP3    H128595   0.069   0.997   5.203 -1.6753  1.5032  0.1136
 2368TIP3    H228596   0.129   1.134   5.178  0.2116  0.8551  0.9177
 2369TIP3   OH228597   1.032   4.883  11.794  0.1261  0.2511 -0.5185
 2369TIP3    H128598   1.104   4.916  11.847 -0.8391 -0.4412  1.3109
 2369TIP3    H228599   1.048   4.918  11.707  2.6930  0.0767 -0.1917
 2370TIP3   OH228600   5.297   0.786   4.112  0.6126 -0.2863 -0.2737
 2370TIP3    H128601   5.370   0.820   4.060  1.8380 -0.4558  1.2408
 2370TIP3    H228602   5.337   0.717   4.165 -0.7396 -0.6162  0.3442
 2371TIP3   OH228603   2.653   4.491   1.321  0.0737  1.1626  0.1933
 2371TIP3    H128604   2.701   4.522   1.244 -0.0383  0.8905  0.0117
 2371TIP3    H228605   2.714   4.431   1.364 -0.1596  0.6796 -0.1333
 2372TIP3   OH228606   6.685   3.388   4.676  0.1767  0.6428  0.4344
 2372TIP3    H128607   6.766   3.336   4.681  0.9365  1.8169  0.8061
 2372TIP3    H228608   6.695   3.441   4.598 -0.3231  0.6720  0.3862
 2373TIP3   OH228609   6.651   3.299  13.381  0.3626 -0.0367 -0.0214
 2373TIP3    H128610   6.668   3.213  13.343 -1.6959 -0.0187 -1.1636
 2373TIP3    H228611   6.680   3.361  13.314 -0.2295  0.0686 -0.1929
 2374TIP3   OH228612   1.249   6.465  14.666  0.0362 -0.8061  0.1839
 2374TIP3    H128613   1.265   6.468  14.572  0.9896  2.0624  0.3514
 2374TIP3    H228614   1.157   6.438  14.673  0.7084 -4.1175 -1.3330
 2375TIP3   OH228615   1.850   5.242  16.481  0.2992 -0.1689  0.1996
 2375TIP3    H128616   1.818   5.152  16.490  1.9014 -0.6749  1.4205
 2375TIP3    H228617   1.854   5.274  16.571 -0.5971  1.2840 -0.2491
 2376TIP3   OH228618   2.945   4.764   0.494  0.1643 -0.4989  0.6788
 2376TIP3    H128619   2.968   4.856   0.504 -1.7282 -0.1601  2.5563
 2376TIP3    H228620   2.939   4.730   0.583 -4.3271 -1.0157  0.4195
 2377TIP3   OH228621   2.035   0.885   1.068  0.1134 -0.7922  0.3924
 2377TIP3    H128622   1.997   0.845   0.990  1.9605  0.3485 -1.1544
 2377TIP3    H228623   1.964   0.883   1.132 -1.0963 -2.8613 -0.8771
 2378TIP3   OH228624   4.508   5.956  11.096  0.0621 -0.0525  0.0628
 2378TIP3    H128625   4.546   5.868  11.098  0.9540  0.2631 -1.6243
 2378TIP3    H228626   4.564   6.007  11.155  0.6248 -0.2199 -0.3159
 2379TIP3   OH228627   0.667   4.406   6.063 -0.7228  0.0046  0.8782
 2379TIP3    H128628   0.647   4.348   6.137 -0.4382  2.3166  2.9075
 2379TIP3    H228629   0.581   4.434   6.032 -0.8393 -0.5662  0.6828
 2380TIP3   OH228630   0.634   0.990   4.712  0.6261 -0.0965  0.2819
 2380TIP3    H128631   0.685   1.003   4.633  0.9661  1.6694  0.7375
 2380TIP3    H228632   0.696   0.955   4.776  1.2225  1.6195  0.7019
 2381TIP3   OH228633   1.949   2.209  12.686  0.3670  0.0334  0.3264
 2381TIP3    H128634   2.017   2.221  12.620 -0.5401  2.3365 -0.3148
 2381TIP3    H228635   1.867   2.222  12.638 -0.4533 -1.1094  1.3781
 2382TIP3   OH228636   0.600   1.674   5.151 -0.2941 -0.3974  0.0073
 2382TIP3    H128637   0.610   1.753   5.097 -0.2574 -1.1100 -1.0565
 2382TIP3    H228638   0.562   1.706   5.233  1.5170  0.9928  0.3586
 2383TIP3   OH228639   2.574   0.560   4.638 -0.2596  0.1835 -0.1287
 2383TIP3    H128640   2.642   0.628   4.638  0.2859 -0.2733 -2.0521
 2383TIP3    H228641   2.495   0.604   4.669  0.0883  1.7173 -1.2686
 2384TIP3   OH228642   1.561   1.370   0.944  0.1936 -0.1917 -0.0969
 2384TIP3    H128643   1.467   1.384   0.944  0.2676  0.5848  1.6010
 2384TIP3    H228644   1.571   1.277   0.967 -0.1511 -1.0317 -2.9934
 2385TIP3   OH228645   2.698   2.252  16.224 -0.5436 -0.4973  0.3627
 2385TIP3    H128646   2.678   2.190  16.154 -1.5119 -0.2784  0.4325
 2385TIP3    H228647   2.624   2.245  16.284 -0.9919  1.1571  0.0600
 2386TIP3   OH228648   3.113   6.254   5.646  0.7511  0.6354  0.2186
 2386TIP3    H128649   3.076   6.304   5.574 -0.5836  0.1600  0.5462
 2386TIP3    H228650   3.175   6.314   5.687  0.5620  1.3623 -0.5276
 2387TIP3   OH228651   2.414   2.973   0.804 -0.4206 -0.1025 -0.3115
 2387TIP3    H128652   2.458   2.893   0.774  1.2275  1.1154 -1.2500
 2387TIP3    H228653   2.381   2.950   0.891 -1.0330 -2.1644 -1.0315
 2388TIP3   OH228654   6.812   6.192  13.087 -0.5755  0.0189  0.2367
 2388TIP3    H128655   6.759   6.186  13.167  1.6504 -0.2006  1.7860
 2388TIP3    H228656   6.813   6.285  13.066  1.2663  0.5675  2.3284
 2389TIP3   OH228657   2.293   0.091   4.998  0.3998  0.5562 -0.3599
 2389TIP3    H128658   2.346   0.151   4.945  1.7109  0.9455  1.2900
 2389TIP3    H228659   2.203   0.122   4.989  1.0072  2.6321  0.2108
 2390TIP3   OH228660   2.551   0.002   4.700  0.1744 -0.5953  0.4507
 2390TIP3    H128661   2.481  -0.058   4.726 -0.2633 -0.7876 -1.0473
 2390TIP3    H228662   2.526   0.030   4.612  0.7817  1.1725  0.8039
 2391TIP3   OH228663   6.135   1.618   6.429  0.5747 -0.1802 -0.3186
 2391TIP3    H128664   6.151   1.559   6.355  0.2759 -0.3360 -0.2592
 2391TIP3    H228665   6.179   1.700   6.405  2.1766 -0.8485  0.1953
 2392TIP3   OH228666   1.651   6.492  11.589 -0.0103 -0.3385  0.0012
 2392TIP3    H128667   1.586   6.510  11.657 -0.0306 -0.1768 -0.0593
 2392TIP3    H228668   1.600   6.457  11.516  0.0121 -0.5171  0.0710
 2393TIP3   OH228669   5.520   6.622   4.479 -0.4309 -0.0771 -0.1549
 2393TIP3    H128670   5.542   6.535   4.446  0.1713  0.1258 -0.3139
 2393TIP3    H228671   5.527   6.615   4.574  0.1889 -0.0612 -0.1952
 2394TIP3   OH228672   4.767   1.222   1.229  0.4622 -0.1354 -0.6721
 2394TIP3    H128673   4.793   1.314   1.226 -1.3088  0.3641 -2.3863
 2394TIP3    H228674   4.681   1.222   1.270  0.3026 -1.0005 -0.9783
 2395TIP3   OH228675   4.187   3.165  12.282 -0.9513  0.4711 -0.0921
 2395TIP3    H128676   4.178   3.255  12.312  1.1131 -0.0516  2.4204
 2395TIP3    H228677   4.273   3.162  12.240 -1.0365 -0.3212 -0.2273
 2396TIP3   OH228678   5.307   1.811  12.325 -0.2068  0.0921 -0.3221
 2396TIP3    H128679   5.220   1.821  12.363  0.2120 -0.1740  0.7548
 2396TIP3    H228680   5.311   1.720  12.298  0.0657 -0.1472  0.5037
 2397TIP3   OH228681   0.332   5.253  11.455  0.4861 -0.3748 -0.2829
 2397TIP3    H128682   0.346   5.328  11.513  1.2706 -1.7611  1.4096
 2397TIP3    H228683   0.383   5.182  11.494 -3.2492 -2.9703  0.4729
 2398TIP3   OH228684   0.544   3.893  11.278  0.1755 -0.0711  0.4022
 2398TIP3    H128685   0.533   3.864  11.187  1.9908  0.3189  0.0211
 2398TIP3    H228686   0.639   3.894  11.292 -0.0712 -0.5456  2.4628
 2399TIP3   OH228687   2.019   2.643  14.529  0.1465  0.4937  0.2367
 2399TIP3    H128688   1.990   2.623  14.440  0.8447 -0.6483  0.2446
 2399TIP3    H228689   1.948   2.696  14.565 -2.0335 -2.1481  0.2431
 2400TIP3   OH228690   6.390   3.191  10.221 -0.1549 -0.6232 -0.2675
 2400TIP3    H128691   6.378   3.236  10.137  0.3519 -1.2921 -0.7045
 2400TIP3    H228692   6.428   3.106  10.198 -0.5340 -1.0383  0.5956
 2401TIP3   OH228693   5.564   1.951  10.949 -0.4661 -0.5811 -0.3305
 2401TIP3    H128694   5.487   1.974  11.000 -1.3572 -0.8822 -1.4985
 2401TIP3    H228695   5.633   1.937  11.014 -1.0798  0.8248  0.6655
 2402TIP3   OH228696   6.174   0.529  15.918  0.2919 -0.6613 -0.3619
 2402TIP3    H128697   6.257   0.505  15.877  1.2530  1.1364  0.4197
 2402TIP3    H228698   6.107   0.492  15.860  1.5676 -3.5167 -0.1974
 2403TIP3   OH228699   0.292   4.620  13.771  0.0827 -0.1630  0.0828
 2403TIP3    H128700   0.320   4.566  13.845  0.4534 -0.2939 -0.1498
 2403TIP3    H228701   0.197   4.612  13.770  0.0442  0.1423  0.7755
 2404TIP3   OH228702   6.271   6.193  14.690  0.0381 -0.2551 -0.3242
 2404TIP3    H128703   6.281   6.134  14.764 -0.4836  1.2903  1.0537
 2404TIP3    H228704   6.332   6.159  14.624  0.6306 -1.6057  0.8542
 2405TIP3   OH228705   0.263   3.268  12.362 -0.3566  0.3871  0.5348
 2405TIP3    H128706   0.239   3.200  12.300 -1.9144  2.3624 -1.1905
 2405TIP3    H228707   0.357   3.256  12.377 -0.0557 -0.5207 -1.7753
 2406TIP3   OH228708   5.827   4.971  11.193  0.1072 -0.3452  0.1454
 2406TIP3    H128709   5.769   4.974  11.117 -1.7614 -0.7009  1.4888
 2406TIP3    H228710   5.893   4.905  11.170  0.4082  0.4905 -1.6546
 2407TIP3   OH228711   6.085   2.025   3.130 -0.1306  0.2544 -0.1510
 2407TIP3    H128712   6.080   1.979   3.213  0.4610  0.1173 -0.1863
 2407TIP3    H228713   6.065   2.116   3.151 -1.8414 -0.0715 -0.1605
 2408TIP3   OH228714   2.267   4.428   1.792 -0.2402  0.3055  1.1532
 2408TIP3    H128715   2.207   4.446   1.720 -0.8945  0.3562  1.6983
 2408TIP3    H228716   2.220   4.365   1.847  1.7658 -2.8697 -0.4524
 2409TIP3   OH228717   6.389   5.080  15.257 -0.1511 -0.3193  0.0757
 2409TIP3    H128718   6.448   5.025  15.207  0.7772 -0.6050  1.4312
 2409TIP3    H228719   6.423   5.168  15.246  1.7385 -0.6770  2.3490
 2410TIP3   OH228720   0.064   4.927  13.309  0.1381 -0.1598  0.6238
 2410TIP3    H128721  -0.010   4.919  13.249  0.6113 -0.2262  0.0401
 2410TIP3    H228722   0.025   4.954  13.393 -0.7239 -1.8043  0.7752
 2411TIP3   OH228723   4.771   3.191  16.077  0.1267  0.3130 -0.1272
 2411TIP3    H128724   4.831   3.129  16.120  0.2265 -0.2982 -1.1136
 2411TIP3    H228725   4.699   3.137  16.046  0.5548  0.5655 -1.6305
 2412TIP3   OH228726   3.804   3.447  12.366  0.2961 -1.0549  0.3484
 2412TIP3    H128727   3.769   3.518  12.313 -0.4176 -0.9385  0.9436
 2412TIP3    H228728   3.899   3.456  12.359  0.2623  0.8208  1.5017
 2413TIP3   OH228729   3.464   0.666  12.804  0.3929 -0.6288 -0.4328
 2413TIP3    H128730   3.440   0.684  12.713  0.7455 -0.4628 -0.4915
 2413TIP3    H228731   3.381   0.646  12.847  0.4129 -2.7732 -1.2502
 2414TIP3   OH228732   0.075   5.500   0.983 -0.3266  0.0146 -0.7236
 2414TIP3    H128733   0.086   5.405   0.992  0.9817  0.2357  0.2453
 2414TIP3    H228734   0.154   5.529   0.938  0.5375  0.9578  1.3053
 2415TIP3   OH228735   1.844   0.600   1.252  0.4267  0.7987 -0.1634
 2415TIP3    H128736   1.763   0.602   1.303  0.9168 -0.8868  0.7542
 2415TIP3    H228737   1.816   0.608   1.161 -0.8591 -0.5152  0.0841
 2416TIP3   OH228738   3.584   2.226  15.902  0.8896  0.4978  0.0512
 2416TIP3    H128739   3.656   2.287  15.919  0.0520  1.1538  1.3616
 2416TIP3    H228740   3.505   2.272  15.932  0.1182 -0.8391  0.1502
 2417TIP3   OH228741   0.529   6.190   5.013  0.4922 -0.0912  0.8656
 2417TIP3    H128742   0.566   6.106   4.986 -0.5215 -0.7355  1.4094
 2417TIP3    H228743   0.579   6.214   5.091  0.9581 -0.0584  0.5592
 2418TIP3   OH228744   0.323   1.671   1.873  1.1482  0.3536  0.5332
 2418TIP3    H128745   0.243   1.633   1.907 -0.6085  1.2247 -2.2736
 2418TIP3    H228746   0.383   1.597   1.863 -1.0397 -1.2642 -1.7774
 2419TIP3   OH228747   0.796   5.834   2.198  0.1225  0.0489 -0.5753
 2419TIP3    H128748   0.758   5.901   2.254  0.8284 -0.2560  0.2898
 2419TIP3    H228749   0.770   5.751   2.238  1.6181 -0.1647  0.0057
 2420TIP3   OH228750   4.545   5.842   4.960 -0.3724  0.1500 -0.4300
 2420TIP3    H128751   4.540   5.752   4.992  0.4284  0.2593  0.0082
 2420TIP3    H228752   4.638   5.862   4.957 -0.5592  1.8967  2.1261
 2421TIP3   OH228753   6.169   2.450  10.682  0.3472  0.1052  0.1968
 2421TIP3    H128754   6.257   2.422  10.706  0.0183  1.0884  2.9767
 2421TIP3    H228755   6.112   2.382  10.718 -0.1417  1.1138  1.4082
 2422TIP3   OH228756   2.745   3.258  11.190 -0.0162  0.4737  0.4994
 2422TIP3    H128757   2.667   3.233  11.240  0.6133 -0.6490  0.9561
 2422TIP3    H228758   2.742   3.203  11.112  0.4915  0.1736  0.6874
 2423TIP3   OH228759   5.834   1.359   3.509 -0.1146  0.1888 -0.0624
 2423TIP3    H128760   5.739   1.354   3.517 -0.0185 -1.2498  0.3635
 2423TIP3    H228761   5.850   1.366   3.415 -0.6463  0.9895 -0.1085
 2424TIP3   OH228762   0.072   4.629   3.292  0.0211 -0.6481 -0.3176
 2424TIP3    H128763  -0.017   4.624   3.326  0.5619 -0.9712  1.1365
 2424TIP3    H228764   0.115   4.550   3.326  1.5843  0.7819  1.2600
 2425TIP3   OH228765   6.461   6.664  11.332  0.1812 -0.2869  0.4129
 2425TIP3    H128766   6.451   6.745  11.282  0.2764 -1.1669 -1.0962
 2425TIP3    H228767   6.508   6.691  11.411  0.1842  1.1309 -0.0321
 2426TIP3   OH228768   0.650   0.633  12.976 -0.2598  0.5698  0.1808
 2426TIP3    H128769   0.722   0.602  13.030  0.3493 -0.7492 -1.3297
 2426TIP3    H228770   0.571   0.603  13.022  0.2415 -0.3648  0.4472
 2427TIP3   OH228771   6.068   1.320   3.815  0.1640 -0.1193  0.7973
 2427TIP3    H128772   6.146   1.313   3.760 -1.2501 -3.2136 -1.0878
 2427TIP3    H228773   6.094   1.281   3.898  0.4733 -1.9394 -0.1078
 2428TIP3   OH228774   1.629   2.239   5.021  0.0135 -0.2282 -0.1339
 2428TIP3    H128775   1.634   2.328   5.056 -0.2995 -0.0667 -0.4998
 2428TIP3    H228776   1.715   2.224   4.981  0.2795 -0.3160  0.4632
 2429TIP3   OH228777   4.083   0.011  15.771 -0.4237 -0.6241  0.2353
 2429TIP3    H128778   4.145   0.078  15.800  1.0494 -2.3616  1.2619
 2429TIP3    H228779   4.091   0.012  15.675 -1.5792  1.6636  0.0818
 2430TIP3   OH228780   6.808   6.468  13.010  0.2722 -0.4410 -0.4622
 2430TIP3    H128781   6.898   6.498  12.995  0.4311 -1.2735 -1.2431
 2430TIP3    H228782   6.766   6.472  12.924  0.1050 -1.7997 -0.4555
 2431TIP3   OH228783   3.652   0.057  13.335 -0.3939 -0.1569  0.2226
 2431TIP3    H128784   3.637   0.013  13.251  0.4164 -0.6761  0.3403
 2431TIP3    H228785   3.661  -0.015  13.398 -0.2575  0.2123  0.6239
 2432TIP3   OH228786   0.234   2.831  11.184  0.1200  0.2844  0.1922
 2432TIP3    H128787   0.317   2.807  11.143 -0.0815 -1.3398  0.6721
 2432TIP3    H228788   0.172   2.764  11.155 -0.7906  0.9193  0.6110
 2433TIP3   OH228789   6.028   0.303   3.877 -0.0926  0.2417 -0.4417
 2433TIP3    H128790   6.075   0.365   3.933  1.2493 -0.5867 -0.5909
 2433TIP3    H228791   5.956   0.272   3.930 -0.9317  2.0662 -0.4358
 2434TIP3   OH228792   1.159   0.873  12.458  0.0539 -1.0630  0.7095
 2434TIP3    H128793   1.153   0.953  12.511 -0.6127 -0.3585 -0.3799
 2434TIP3    H228794   1.224   0.820  12.502  0.1808 -0.1037  1.7202
 2435TIP3   OH228795   4.496   1.472   5.229  0.0875  0.0677 -0.3396
 2435TIP3    H128796   4.531   1.451   5.316  0.0968  1.2718 -0.0301
 2435TIP3    H228797   4.416   1.420   5.223  0.1717 -0.1589  0.3279
 2436TIP3   OH228798   5.445   5.838  11.224  0.0827 -0.4887  0.5511
 2436TIP3    H128799   5.481   5.751  11.240 -0.3780 -0.5178  1.4731
 2436TIP3    H228800   5.377   5.824  11.157  1.5531 -0.4662 -1.0248
 2437TIP3   OH228801   4.906   6.151   4.578  0.2251 -0.2223 -0.0826
 2437TIP3    H128802   4.881   6.190   4.662 -0.4489  0.7158 -0.7089
 2437TIP3    H228803   4.833   6.170   4.520  1.0775 -0.0971 -1.1323
 2438TIP3   OH228804   3.058   6.221   1.939  0.3963 -0.6286  0.1249
 2438TIP3    H128805   3.119   6.150   1.920  0.7607 -0.3610  0.2888
 2438TIP3    H228806   3.058   6.274   1.859  0.1864 -0.7682  0.0324
 2439TIP3   OH228807   5.558   6.264  12.540 -0.0595 -0.4388  0.2065
 2439TIP3    H128808   5.464   6.266  12.558 -0.1140 -0.8196 -0.0244
 2439TIP3    H228809   5.576   6.174  12.516  0.3840 -0.3875  0.3260
 2440TIP3   OH228810   0.045   5.915   4.938 -0.1333  0.2989 -0.8212
 2440TIP3    H128811   0.133   5.883   4.958 -0.0805  1.0843  0.2828
 2440TIP3    H228812  -0.013   5.859   4.989 -0.3167 -0.4405 -1.8131
 2441TIP3   OH228813   3.380   0.888  11.697  0.4875 -0.6471  0.2003
 2441TIP3    H128814   3.373   0.972  11.743 -0.5593 -0.7623  0.2891
 2441TIP3    H228815   3.349   0.823  11.761  0.5385 -0.9973 -0.1279
 2442TIP3   OH228816   2.334   1.411  17.141  0.0346  0.0372 -0.0656
 2442TIP3    H128817   2.347   1.505  17.153  0.9811 -0.1908  0.8457
 2442TIP3    H228818   2.422   1.374  17.142 -0.3183 -0.8384 -0.6360
 2443TIP3   OH228819   6.364   4.461  12.029  0.4327 -0.2491  0.3844
 2443TIP3    H128820   6.292   4.487  11.972  2.2818  2.2274 -1.0343
 2443TIP3    H228821   6.430   4.426  11.970  1.3162 -0.2831  1.3580
 2444TIP3   OH228822   2.363   3.402  15.074 -0.2246 -0.4157  0.2241
 2444TIP3    H128823   2.413   3.412  15.155 -0.4772 -0.4596  0.3891
 2444TIP3    H228824   2.374   3.485  15.028 -0.7708 -0.0681  0.7008
 2445TIP3   OH228825   1.576   1.810   1.664  0.3674  0.4696 -0.3917
 2445TIP3    H128826   1.525   1.802   1.584  1.1190  1.3811 -0.9753
 2445TIP3    H228827   1.627   1.730   1.668  1.5805  1.1384 -1.7295
 2446TIP3   OH228828   1.862   4.786  15.983 -0.2556  0.1171  0.1593
 2446TIP3    H128829   1.860   4.851  16.053  1.8864 -0.2538  0.6456
 2446TIP3    H228830   1.777   4.742  15.988 -1.5638  2.4473  0.1620
 2447TIP3   OH228831   2.014   2.692   2.048  0.1334 -0.1522  0.1840
 2447TIP3    H128832   2.054   2.765   2.001 -0.0245 -0.3422 -0.2492
 2447TIP3    H228833   1.956   2.650   1.983 -0.0669 -0.4288  0.5383
 2448TIP3   OH228834   6.168   6.809   5.936 -0.1715 -0.2608  0.0013
 2448TIP3    H128835   6.216   6.745   5.884  0.1626 -1.6581  1.9055
 2448TIP3    H228836   6.180   6.781   6.027 -1.7361  1.3371  0.7885
 2449TIP3   OH228837   6.685   1.045  14.409 -0.1595 -0.0403  0.7009
 2449TIP3    H128838   6.650   0.981  14.347 -0.1403 -0.3683  1.0197
 2449TIP3    H228839   6.730   0.992  14.474  0.7291  0.3649  0.4258
 2450TIP3   OH228840   0.810   5.404  15.384  0.1657  0.2076 -0.0682
 2450TIP3    H128841   0.858   5.328  15.417  0.8471  0.5015 -0.3760
 2450TIP3    H228842   0.871   5.478  15.394  0.0595  0.4577 -1.1565
 2451TIP3   OH228843   5.072   4.120   4.157 -0.1842 -0.4103  0.3299
 2451TIP3    H128844   5.039   4.031   4.167 -0.1813 -0.3072  1.5163
 2451TIP3    H228845   5.097   4.146   4.246  1.4489  0.1486 -0.2522
 2452TIP3   OH228846   3.314   4.538   4.806 -0.1219 -0.7337  0.4465
 2452TIP3    H128847   3.365   4.457   4.808  1.4891  0.2023  3.3338
 2452TIP3    H228848   3.260   4.535   4.885 -1.4941  0.1780 -0.4049
 2453TIP3   OH228849   2.025   4.443   4.598 -0.0470  0.0053  0.2108
 2453TIP3    H128850   2.039   4.411   4.509 -3.6596 -0.0557 -0.4916
 2453TIP3    H228851   2.106   4.421   4.644  1.4242 -1.2279 -2.6795
 2454TIP3   OH228852   1.113   3.357   0.687 -0.3140  0.0446  0.4420
 2454TIP3    H128853   1.198   3.401   0.686 -1.0038  1.4061 -0.3629
 2454TIP3    H228854   1.051   3.425   0.712 -1.1139 -1.0711  1.5861
 2455TIP3   OH228855   2.371   5.005   1.245  0.3621  0.3720  0.1151
 2455TIP3    H128856   2.292   4.983   1.294 -1.2990  0.5831 -2.3395
 2455TIP3    H228857   2.439   5.010   1.312 -1.6173 -0.0612  2.2925
 2456TIP3   OH228858   6.144   2.157  11.310  0.1182 -0.5812 -0.0224
 2456TIP3    H128859   6.176   2.187  11.395  0.0003 -1.6344  0.4055
 2456TIP3    H228860   6.223   2.129  11.264  0.1114 -0.6042 -0.0202
 2457TIP3   OH228861   2.232   3.831  13.498 -0.1193 -0.2171 -0.6673
 2457TIP3    H128862   2.182   3.753  13.470 -0.7454 -0.5210  1.1611
 2457TIP3    H228863   2.306   3.796  13.547 -0.2438  0.3211 -0.0789
 2458TIP3   OH228864   5.539   0.129  12.550  0.2197  0.2261  0.0163
 2458TIP3    H128865   5.545   0.122  12.645 -0.4362  0.1572  0.0567
 2458TIP3    H228866   5.618   0.086  12.518  0.9861  1.1612  0.5572
 2459TIP3   OH228867   4.192   6.007   2.881 -0.1033  0.0179  0.7753
 2459TIP3    H128868   4.264   6.037   2.935  0.9115 -2.8447  1.1972
 2459TIP3    H228869   4.131   5.965   2.942 -0.7431 -0.0715  0.1013
 2460TIP3   OH228870   6.302   5.562   3.097 -0.1453  0.0181  0.1205
 2460TIP3    H128871   6.390   5.554   3.135  0.1391  2.3629  0.1426
 2460TIP3    H228872   6.259   5.479   3.117  1.7651 -0.8487  0.8898
 2461TIP3   OH228873   5.940   3.335   3.931  0.3736 -0.5170 -0.3325
 2461TIP3    H128874   5.849   3.313   3.949  0.6053  0.7883  3.2098
 2461TIP3    H228875   5.940   3.429   3.915  1.0835 -0.5466 -0.5565
 2462TIP3   OH228876   1.983   1.300   2.430  0.2727  0.1702 -1.1314
 2462TIP3    H128877   2.048   1.369   2.412  1.0674  0.4334  2.0631
 2462TIP3    H228878   2.028   1.219   2.407  0.4872  0.5416 -2.0510
 2463TIP3   OH228879   6.333   2.736   1.667  0.4196 -0.2989  0.4232
 2463TIP3    H128880   6.293   2.766   1.748  0.0331  0.0745  0.1004
 2463TIP3    H228881   6.260   2.704   1.614  0.4270  0.9879 -0.4307
 2464TIP3   OH228882   3.594   0.907   0.515 -0.2348  0.2102  0.3029
 2464TIP3    H128883   3.557   0.830   0.559  2.1031 -1.8964 -1.0925
 2464TIP3    H228884   3.521   0.944   0.465 -1.3918 -1.2937  0.7927
 2465TIP3   OH228885   4.157   1.769   2.692  0.0634 -0.2842  0.0263
 2465TIP3    H128886   4.209   1.762   2.773  1.7200 -1.2016 -1.0503
 2465TIP3    H228887   4.150   1.679   2.660 -1.3905 -0.0443 -0.3695
 2466TIP3   OH228888   2.153   5.543   3.796 -0.1257 -0.0753 -0.1712
 2466TIP3    H128889   2.217   5.579   3.857  0.3163 -0.9901 -0.0870
 2466TIP3    H228890   2.071   5.587   3.820  0.3697  0.8032 -0.0179
 2467TIP3   OH228891   3.216   2.542   5.908  0.0101  0.2011 -0.3248
 2467TIP3    H128892   3.195   2.619   5.855 -1.9437 -0.2114 -0.2473
 2467TIP3    H228893   3.172   2.558   5.992  0.2192 -0.6499 -0.0406
 2468TIP3   OH228894   3.608   5.754  12.642 -0.4036 -0.6429 -0.3797
 2468TIP3    H128895   3.650   5.834  12.611 -1.9343  0.9084  1.3226
 2468TIP3    H228896   3.652   5.733  12.724 -2.6198  0.8416  1.2748
 2469TIP3   OH228897   5.509   0.003  16.002  0.3605  0.4566 -0.5407
 2469TIP3    H128898   5.458  -0.059  15.950  0.2045 -0.1982  0.3544
 2469TIP3    H228899   5.456   0.083  16.004 -1.3261 -0.5836  1.4015
 2470TIP3   OH228900   4.235   5.986  11.117  0.2056 -0.1975  0.5305
 2470TIP3    H128901   4.321   5.947  11.103  0.4502 -0.5586  2.6672
 2470TIP3    H228902   4.253   6.080  11.130  0.1394 -0.0876 -0.1614
 2471TIP3   OH228903   1.244   1.716  13.267 -0.3481  0.2162 -0.1473
 2471TIP3    H128904   1.206   1.789  13.218 -1.3512 -0.0739  0.1607
 2471TIP3    H228905   1.173   1.687  13.324  0.5512  0.0632  0.9283
 2472TIP3   OH228906   0.628   0.522  15.694  0.1387  0.1878  0.0768
 2472TIP3    H128907   0.631   0.541  15.788 -0.7653 -0.0216  0.1636
 2472TIP3    H228908   0.645   0.606  15.652  1.3073  0.1385  0.4121
 2473TIP3   OH228909   1.890   3.712  14.838 -0.0793 -0.5421 -0.1924
 2473TIP3    H128910   1.980   3.743  14.847 -0.4397  0.7895 -0.8149
 2473TIP3    H228911   1.843   3.754  14.911 -0.7285  1.1183 -1.4798
 2474TIP3   OH228912   6.718   5.100   1.637  0.6080  0.3405 -0.4115
 2474TIP3    H128913   6.729   5.179   1.690  0.4055  1.4148 -1.8898
 2474TIP3    H228914   6.639   5.059   1.672 -0.0040  1.4770 -0.3908
 2475TIP3   OH228915   4.811   1.129   2.798 -0.7637  0.3336  0.0731
 2475TIP3    H128916   4.717   1.129   2.780 -0.8802  2.0471  0.4234
 2475TIP3    H228917   4.817   1.145   2.893 -0.1112 -2.0268  0.4810
 2476TIP3   OH228918   2.535   4.449  17.262  0.0095  0.2975 -0.0694
 2476TIP3    H128919   2.463   4.455  17.199  0.8412 -0.0520 -1.0848
 2476TIP3    H228920   2.602   4.509  17.228  0.5892 -0.1063  0.3252
 2477TIP3   OH228921   0.681   2.151  15.039  0.1998  0.4275 -0.1444
 2477TIP3    H128922   0.694   2.083  15.105  1.9418  2.1975  1.4251
 2477TIP3    H228923   0.595   2.189  15.061  0.0937  0.0199  0.1613
 2478TIP3   OH228924   3.526   2.951   3.609  0.0329  0.2161  0.2162
 2478TIP3    H128925   3.450   3.008   3.599  0.2014  0.3805 -0.1488
 2478TIP3    H228926   3.532   2.903   3.527  1.0056  1.0535 -0.2384
 2479TIP3   OH228927   0.274   4.659  15.627 -0.1144  0.6512  0.1606
 2479TIP3    H128928   0.295   4.750  15.607  0.4761  0.8754  1.6682
 2479TIP3    H228929   0.224   4.664  15.709 -0.6653 -0.3421 -0.1008
 2480TIP3   OH228930   5.483   6.436   0.229  0.4518  0.1588  0.0782
 2480TIP3    H128931   5.448   6.413   0.142  0.8092  0.2323 -0.0877
 2480TIP3    H228932   5.550   6.370   0.246 -0.7956 -0.9151  1.0739
 2481TIP3   OH228933   3.754   4.334  12.683  0.0106 -0.3904  0.0691
 2481TIP3    H128934   3.806   4.412  12.703  0.6468 -0.0686 -2.5711
 2481TIP3    H228935   3.809   4.261  12.711  1.9122 -0.0442 -2.4332
 2482TIP3   OH228936   3.504   2.797  13.117  0.1823 -0.0211 -0.0901
 2482TIP3    H128937   3.523   2.862  13.185  1.5642 -0.7095  0.2082
 2482TIP3    H228938   3.588   2.785  13.072 -0.1406 -1.3301 -0.3720
 2483TIP3   OH228939   4.356   1.713  13.252 -0.2084 -0.0990 -0.0585
 2483TIP3    H128940   4.356   1.675  13.163  1.5463 -1.2685  0.3669
 2483TIP3    H228941   4.444   1.750  13.261 -0.2941 -0.1968  1.2774
 2484TIP3   OH228942   4.233   4.938   0.454  0.0418 -0.0350  0.1952
 2484TIP3    H128943   4.213   5.030   0.471 -0.9664 -0.3299  0.6706
 2484TIP3    H228944   4.308   4.919   0.510 -0.1167  0.3451  0.5444
 2485TIP3   OH228945   3.622   3.793   0.493  0.1563 -0.1085 -0.0128
 2485TIP3    H128946   3.705   3.832   0.467 -0.0372  0.6831  0.5271
 2485TIP3    H228947   3.557   3.862   0.478 -0.1967 -0.2282  0.9189
 2486TIP3   OH228948   2.578   2.316  11.852 -0.0028 -0.3893  0.2138
 2486TIP3    H128949   2.616   2.228  11.852 -2.8262 -1.9209 -4.1724
 2486TIP3    H228950   2.485   2.302  11.872 -0.4841  1.6240 -0.3610
 2487TIP3   OH228951   4.736   6.556  13.260 -0.0145 -0.1852  0.5622
 2487TIP3    H128952   4.793   6.570  13.335 -0.6538 -2.2227  1.4987
 2487TIP3    H228953   4.649   6.544  13.298 -0.2735 -1.6793 -0.4321
 2488TIP3   OH228954   0.904   2.509  11.376  0.1207  0.2588  0.3621
 2488TIP3    H128955   0.863   2.556  11.303  3.0952  0.8526 -1.0715
 2488TIP3    H228956   0.897   2.569  11.451 -2.6766 -0.2230  0.5944
 2489TIP3   OH228957   0.854   2.291   3.388  0.6166  0.1077  0.6413
 2489TIP3    H128958   0.829   2.217   3.443 -0.3469  0.5534  0.8122
 2489TIP3    H228959   0.824   2.369   3.435 -0.6445  0.4857 -0.7048
 2490TIP3   OH228960   3.433   4.267   0.537 -0.4638 -0.5141 -0.1369
 2490TIP3    H128961   3.359   4.208   0.520 -3.1640  1.7899  2.4228
 2490TIP3    H228962   3.426   4.334   0.470 -0.2797 -0.6384 -0.2814
 2491TIP3   OH228963   2.481   0.059  16.999 -0.4390  0.3824  0.5522
 2491TIP3    H128964   2.406   0.094  17.048 -0.8805  0.7036 -0.3228
 2491TIP3    H228965   2.510   0.133  16.945 -0.8927 -0.3583 -0.7464
 2492TIP3   OH228966   4.350   5.654  16.545 -0.4022 -0.2003  0.5127
 2492TIP3    H128967   4.415   5.583  16.540 -0.8340 -0.5346 -1.2705
 2492TIP3    H228968   4.392   5.722  16.597  1.7304 -0.0759 -1.2357
 2493TIP3   OH228969   6.195   0.016  12.263 -0.0889  0.5178  0.0018
 2493TIP3    H128970   6.216  -0.046  12.192 -0.3573  0.2805  0.1274
 2493TIP3    H228971   6.259   0.086  12.253  0.2204  0.2195 -0.1456
 2494TIP3   OH228972   6.725   1.764  15.990  0.2193  0.0239  0.5491
 2494TIP3    H128973   6.702   1.737  15.901 -2.1214  0.5958  0.9086
 2494TIP3    H228974   6.690   1.694  16.046  0.7643  0.1674  1.0805
 2495TIP3   OH228975   6.777   0.571   0.356  0.6105  0.5041  0.1845
 2495TIP3    H128976   6.793   0.619   0.275  0.1221 -1.3551 -1.0833
 2495TIP3    H228977   6.700   0.613   0.395  0.6166  1.1603 -0.4955
 2496TIP3   OH228978   6.773   0.487   2.380  0.4585  0.5596 -0.4820
 2496TIP3    H128979   6.776   0.455   2.290  0.2704  1.1817 -0.7137
 2496TIP3    H228980   6.684   0.465   2.410  0.3802  0.7359 -0.5883
 2497TIP3   OH228981   2.630   0.045   1.395  0.6972  0.1993 -0.3468
 2497TIP3    H128982   2.562   0.111   1.408  1.2986  0.4133  2.2113
 2497TIP3    H228983   2.595  -0.034   1.436  1.3977 -0.0879 -0.2932
 2498TIP3   OH228984   3.787   4.212  11.885 -0.1583  0.0512 -0.0470
 2498TIP3    H128985   3.754   4.235  11.972  0.8378  0.7840  0.1483
 2498TIP3    H228986   3.860   4.271  11.870  0.6459 -1.0819 -0.7598
 2499TIP3   OH228987   2.466   1.274  14.353  0.1276  0.5182  0.3285
 2499TIP3    H128988   2.392   1.229  14.395  0.5023 -0.7616 -0.3410
 2499TIP3    H228989   2.451   1.262  14.260  0.7832  0.9293  0.1655
 2500TIP3   OH228990   0.165   3.150  10.495 -0.4682  0.3770 -0.3504
 2500TIP3    H128991   0.141   3.227  10.546 -0.7925  0.7036 -0.9795
 2500TIP3    H228992   0.131   3.168  10.407  1.3514  0.4928 -1.0868
 2501TIP3   OH228993   0.370   3.271  17.229  0.4101  0.8034  0.2062
 2501TIP3    H128994   0.394   3.200  17.169  2.1078  1.2546  0.3040
 2501TIP3    H228995   0.281   3.250  17.256  0.4701 -0.6843 -0.6343
 2502TIP3   OH228996   4.856   5.993   2.845 -0.2545 -0.2113 -0.4413
 2502TIP3    H128997   4.936   6.035   2.878 -0.5980  0.0920  0.0227
 2502TIP3    H228998   4.887   5.922   2.790  0.3880 -1.8001  1.8039
 2503TIP3   OH228999   2.762   4.078   0.820  0.4192  0.4580 -0.2300
 2503TIP3    H129000   2.789   4.003   0.767  0.7275  0.6059 -0.2875
 2503TIP3    H229001   2.667   4.077   0.817  0.3953 -0.3353  0.3330
 2504TIP3   OH229002   3.514   4.061  15.872  0.0733  0.7154  0.0128
 2504TIP3    H129003   3.454   4.075  15.945 -0.4800 -0.0397 -0.2900
 2504TIP3    H229004   3.484   3.981  15.830 -0.1182  1.5540 -1.5359
 2505TIP3   OH229005   6.212   6.812   4.292 -0.1305  0.0208 -0.3039
 2505TIP3    H129006   6.252   6.738   4.246  0.2288 -1.1376  1.7097
 2505TIP3    H229007   6.123   6.816   4.258 -0.1146 -1.2848 -0.5727
 2506TIP3   OH229008   6.695   2.135   4.702  0.9802 -0.3026  0.0317
 2506TIP3    H129009   6.780   2.163   4.667  1.6767 -2.8320 -0.5393
 2506TIP3    H229010   6.693   2.169   4.791  2.1171  0.6964 -0.2955
 2507TIP3   OH229011   0.564   0.282  14.640  0.7250 -0.0606 -0.7739
 2507TIP3    H129012   0.589   0.207  14.585  0.6963 -0.6268 -0.0237
 2507TIP3    H229013   0.513   0.244  14.711  1.7135  0.5270  0.2748
 2508TIP3   OH229014   6.396   4.164  16.498 -1.0828  0.4564 -0.5332
 2508TIP3    H129015   6.334   4.127  16.560 -0.3289  1.3328  0.7727
 2508TIP3    H229016   6.469   4.102  16.496 -0.1889  1.4135  1.0348
 2509TIP3   OH229017   0.225   2.374  12.074  0.2894 -0.1416  0.2887
 2509TIP3    H129018   0.247   2.368  11.981  0.7400 -1.8219  0.4650
 2509TIP3    H229019   0.166   2.300  12.089  0.9587 -0.4522  1.5243
 2510TIP3   OH229020   6.364   0.348   1.304  0.1287 -0.3368  0.3391
 2510TIP3    H129021   6.395   0.428   1.347  1.0228 -0.1313 -0.6372
 2510TIP3    H229022   6.297   0.379   1.242 -0.7608 -0.5647  1.1698
 2511TIP3   OH229023   0.834   5.861   4.350  0.1867  0.1468 -0.5985
 2511TIP3    H129024   0.841   5.937   4.407  1.6067 -0.3084 -0.1113
 2511TIP3    H229025   0.925   5.842   4.324 -0.1464 -1.2942 -0.8176
 2512TIP3   OH229026   5.851   3.531  14.018  0.0674  0.4991 -0.4137
 2512TIP3    H129027   5.828   3.451  13.971 -2.9985  1.2057 -0.2991
 2512TIP3    H229028   5.836   3.601  13.955  3.1119  1.0821 -0.6432
 2513TIP3   OH229029   3.297   1.482   1.449 -0.3386 -0.4730  0.8321
 2513TIP3    H129030   3.300   1.487   1.545 -0.8473  0.2155  0.8254
 2513TIP3    H229031   3.211   1.445   1.430 -0.6425  0.3087  0.6308
 2514TIP3   OH229032   3.307   3.515  16.188 -0.3587 -1.2032  0.4247
 2514TIP3    H129033   3.379   3.477  16.238 -2.2271 -0.2237  4.1634
 2514TIP3    H229034   3.232   3.459  16.207 -1.6974  0.6572  0.8483
 2515TIP3   OH229035   3.624   5.660   0.903 -0.2082  0.2334  0.5381
 2515TIP3    H129036   3.668   5.609   0.836 -0.9289 -0.8996  0.8985
 2515TIP3    H229037   3.671   5.744   0.905  0.1633  0.0767 -0.9732
 2516TIP3   OH229038   2.931   1.923   2.089 -0.1450  0.3440 -0.5886
 2516TIP3    H129039   2.896   1.871   2.161  0.2100 -0.0156 -0.6727
 2516TIP3    H229040   2.854   1.951   2.040 -0.5105  1.8704  0.7786
 2517TIP3   OH229041   3.265   0.248  12.951  0.2370  0.9078 -0.1704
 2517TIP3    H129042   3.288   0.184  12.883 -0.9280  0.8342 -0.5142
 2517TIP3    H229043   3.192   0.298  12.914 -0.8451  0.4574  1.2478
 2518TIP3   OH229044   4.553   2.406   2.117  0.3237 -0.2217  0.0758
 2518TIP3    H129045   4.483   2.430   2.179 -0.8446 -0.0386 -1.2462
 2518TIP3    H229046   4.624   2.374   2.172 -0.3358  0.7303  1.5617
 2519TIP3   OH229047   4.545   0.475   3.918  0.1340  0.8036 -0.3371
 2519TIP3    H129048   4.472   0.488   3.859 -0.5536  0.4985  0.4192
 2519TIP3    H229049   4.622   0.465   3.861 -0.5718  0.0834 -1.1820
 2520TIP3   OH229050   0.177   0.375   3.785  0.4307 -0.2225  0.4624
 2520TIP3    H129051   0.093   0.340   3.814  0.6526 -2.0603 -0.9447
 2520TIP3    H229052   0.157   0.465   3.757 -1.2932 -0.9377 -0.7486
 2521TIP3   OH229053   0.103   6.346  14.739 -0.5951 -0.1812  0.1052
 2521TIP3    H129054   0.014   6.380  14.729 -0.1240  1.1727  0.2812
 2521TIP3    H229055   0.107   6.315  14.829 -0.1658  2.1409  0.9645
 2522TIP3   OH229056   1.008   1.055  11.370 -0.0727  0.3478 -0.0260
 2522TIP3    H129057   0.970   1.027  11.453 -2.5796  0.2603 -1.1363
 2522TIP3    H229058   1.039   1.144  11.387 -3.0704  1.4338  0.3680
 2523TIP3   OH229059   4.597   0.108   4.501  0.5933 -0.2768 -0.5101
 2523TIP3    H129060   4.620   0.112   4.408  1.3306 -1.0600 -0.3833
 2523TIP3    H229061   4.636   0.187   4.539 -0.6591  0.6218 -1.0382
 2524TIP3   OH229062   0.074   0.543   4.675 -0.0459  0.0648  0.3535
 2524TIP3    H129063   0.066   0.578   4.764  1.6084  0.8396  0.2398
 2524TIP3    H229064   0.095   0.450   4.688  2.3074  0.5967  0.9022
 2525TIP3   OH229065   3.158   4.467   3.128  0.4734  0.1587  0.0960
 2525TIP3    H129066   3.146   4.554   3.090 -0.1026 -0.8819 -2.2419
 2525TIP3    H229067   3.248   4.444   3.105 -0.4456 -1.2377 -2.4805
 2526TIP3   OH229068   2.321   0.130   4.551 -0.1668 -0.2104 -0.2660
 2526TIP3    H129069   2.269   0.127   4.471 -1.0714 -0.9519  0.3334
 2526TIP3    H229070   2.392   0.191   4.531 -1.5327  1.2146 -0.9356
 2527TIP3   OH229071   2.077   4.037   5.169 -0.1278 -0.0186  0.5666
 2527TIP3    H129072   2.022   4.102   5.125 -0.4304 -0.0801  0.8498
 2527TIP3    H229073   2.165   4.057   5.139 -0.4017 -0.5533 -0.6982
 2528TIP3   OH229074   4.524   5.797  15.476 -0.2700  0.4457  0.4474
 2528TIP3    H129075   4.449   5.769  15.529  0.5685 -0.6057  1.1140
 2528TIP3    H229076   4.539   5.725  15.415  1.2046 -0.1020  1.4213
 2529TIP3   OH229077   0.141   3.500  15.189 -0.1158 -0.2735 -0.6257
 2529TIP3    H129078   0.112   3.409  15.179  0.4693 -0.5447  0.0781
 2529TIP3    H229079   0.205   3.497  15.260  0.8236  0.4974 -1.4180
 2530TIP3   OH229080   4.487   5.485  11.255  0.6357  0.2227  0.6610
 2530TIP3    H129081   4.536   5.537  11.318  2.4154  1.9841 -1.9999
 2530TIP3    H229082   4.406   5.534  11.241  1.6006  1.5222 -0.6324
 2531TIP3   OH229083   3.008   6.402   4.476 -0.3956 -0.0730  0.0403
 2531TIP3    H129084   2.941   6.362   4.420 -1.0028 -0.2271  0.8573
 2531TIP3    H229085   2.979   6.383   4.565  0.8668 -0.3410  0.4089
 2532TIP3   OH229086   3.615   1.308   3.546  0.5270  0.4466 -0.2104
 2532TIP3    H129087   3.648   1.218   3.550 -0.3000  0.1691  3.0618
 2532TIP3    H229088   3.522   1.298   3.522  0.5702  0.4947 -0.4021
 2533TIP3   OH229089   3.033   2.522   0.195  0.4022  0.0514  0.3597
 2533TIP3    H129090   3.079   2.536   0.278 -1.4380 -1.4288  1.7384
 2533TIP3    H229091   2.955   2.577   0.201 -0.7854 -1.5647  0.5749
 2534TIP3   OH229092   0.504   4.973   0.755  0.3319 -0.0221  0.0068
 2534TIP3    H129093   0.463   4.932   0.679  0.5419  0.2319 -0.2490
 2534TIP3    H229094   0.513   4.903   0.819  2.5247 -0.8983 -1.1444
 2535TIP3   OH229095   4.696   2.484   4.539 -0.0423  0.4502  0.6670
 2535TIP3    H129096   4.610   2.443   4.554  0.4436 -0.6959  0.3857
 2535TIP3    H229097   4.678   2.553   4.475 -0.4343 -1.1371 -1.0244
 2536TIP3   OH229098   1.464   1.867   0.375 -0.2364  0.4078  0.4609
 2536TIP3    H129099   1.518   1.923   0.319 -1.5158  1.8966  0.6392
 2536TIP3    H229100   1.514   1.859   0.456  0.5941  0.1108 -0.0656
 2537TIP3   OH229101   0.229   0.026   1.399  0.3487 -0.6264  0.2595
 2537TIP3    H129102   0.144  -0.001   1.365 -0.8713  1.0738  1.7695
 2537TIP3    H229103   0.236  -0.016   1.484  1.2863 -1.1622 -0.0623
 2538TIP3   OH229104   6.138   0.208   3.292 -0.4054  0.1602  0.0688
 2538TIP3    H129105   6.125   0.165   3.377  2.5580  0.8352  0.9950
 2538TIP3    H229106   6.164   0.138   3.233  0.6667  0.0927  0.5945
 2539TIP3   OH229107   3.301   3.848  12.675 -0.4941 -0.2846 -0.4183
 2539TIP3    H129108   3.304   3.931  12.626 -0.9182 -0.2878 -0.4499
 2539TIP3    H229109   3.217   3.810  12.652 -0.7625 -0.2191  0.4244
 2540TIP3   OH229110   0.440   3.598   0.534  0.3614  0.3470 -0.2626
 2540TIP3    H129111   0.372   3.618   0.470 -0.3859  0.3370  0.5108
 2540TIP3    H229112   0.397   3.609   0.619  0.9763 -0.8333  0.2313
 2541TIP3   OH229113   5.392   4.463   2.011  0.5106 -0.0533  0.2505
 2541TIP3    H129114   5.418   4.414   1.933 -1.2198  0.1573 -0.4949
 2541TIP3    H229115   5.412   4.404   2.084  1.7406 -0.4253 -0.3691
 2542TIP3   OH229116   0.463   6.233   0.443  0.0582 -0.3468 -0.2896
 2542TIP3    H129117   0.453   6.242   0.349  0.4954 -1.7086 -0.4850
 2542TIP3    H229118   0.383   6.272   0.479 -0.3448 -0.2692 -1.2367
 2543TIP3   OH229119   0.728   1.923   0.415  0.2109  0.1151  0.1317
 2543TIP3    H129120   0.705   2.007   0.455 -0.3586  0.5836 -1.1240
 2543TIP3    H229121   0.822   1.928   0.398  0.4311 -0.0296  1.2235
 2544TIP3   OH229122   2.975   3.061   1.673  0.0437 -0.0334 -0.1682
 2544TIP3    H129123   2.908   3.099   1.730  0.0000  0.2779 -0.4265
 2544TIP3    H229124   3.045   3.033   1.733 -0.1944 -0.1070  0.0755
 2545TIP3   OH229125   1.511   2.967  16.049 -0.0372  0.2072 -0.0190
 2545TIP3    H129126   1.558   2.990  15.969  0.9455 -0.2895  0.4028
 2545TIP3    H229127   1.559   2.893  16.085 -0.7213  0.1500  0.8143
 2546TIP3   OH229128   2.989   4.411   1.826 -0.2035  0.2792  0.1994
 2546TIP3    H129129   2.937   4.443   1.901 -3.8304 -1.8533 -1.1550
 2546TIP3    H229130   2.966   4.471   1.755  1.0117  0.6166  0.0762
 2547TIP3   OH229131   0.397   5.494  16.724 -0.3554  0.0719 -0.1420
 2547TIP3    H129132   0.367   5.585  16.712  0.4460  0.0834 -2.7909
 2547TIP3    H229133   0.397   5.458  16.635  1.3949 -1.8800  0.5879
 2548TIP3   OH229134   1.128   2.998  15.959  0.3985 -0.2238 -0.1540
 2548TIP3    H129135   1.136   2.966  15.869 -1.2800 -0.6133 -0.2113
 2548TIP3    H229136   1.082   2.928  16.005 -1.1508  1.0333  0.3280
 2549TIP3   OH229137   5.237   0.914  16.351 -0.2817 -0.2531  0.3156
 2549TIP3    H129138   5.143   0.906  16.369 -0.0976 -0.1904  1.3666
 2549TIP3    H229139   5.241   0.956  16.265 -1.2140  0.1137  0.4342
 2550TIP3   OH229140   4.621   3.658   5.146  0.1676  0.0282 -0.0521
 2550TIP3    H129141   4.680   3.601   5.195 -1.4151  0.8229  3.0175
 2550TIP3    H229142   4.612   3.616   5.061  0.8280 -3.0613  1.2844
 2551TIP3   OH229143   2.627   5.045  12.800  0.4483 -0.0102 -0.6387
 2551TIP3    H129144   2.722   5.040  12.799  0.4861  0.5310 -2.2714
 2551TIP3    H229145   2.606   5.084  12.885  1.6475 -0.5232 -0.0897
 2552TIP3   OH229146   6.772   6.124   3.479  0.8609  0.0769 -0.1651
 2552TIP3    H129147   6.737   6.202   3.436 -0.2992 -0.0174  0.5626
 2552TIP3    H229148   6.863   6.147   3.499  1.2443  0.3576 -2.0466
 2553TIP3   OH229149   3.375   2.717  11.983  0.2017 -0.8943 -0.6381
 2553TIP3    H129150   3.308   2.742  11.919 -1.3429 -0.2579  1.1159
 2553TIP3    H229151   3.325   2.694  12.061  2.0273 -1.0275  0.5422
 2554TIP3   OH229152   0.703   4.174   1.962  0.0070 -0.1813 -0.5563
 2554TIP3    H129153   0.668   4.105   2.019 -1.5628  1.0391  0.0002
 2554TIP3    H229154   0.788   4.139   1.933 -0.8886 -2.5251 -0.6214
 2555TIP3   OH229155   0.630   1.595   0.763 -0.4837  0.5884  0.1627
 2555TIP3    H129156   0.606   1.502   0.772  3.5573 -0.6373  0.4035
 2555TIP3    H229157   0.631   1.610   0.669  1.3887 -0.5001 -0.0379
 2556TIP3   OH229158   6.079   5.026   1.932 -0.7374 -0.6819 -0.8143
 2556TIP3    H129159   6.170   5.002   1.919 -0.1336  0.2582  1.2679
 2556TIP3    H229160   6.082   5.105   1.986 -2.7597  0.2976 -2.0258
 2557TIP3   OH229161   1.181   0.973  12.984 -0.0412  0.0372  0.2743
 2557TIP3    H129162   1.101   0.972  12.931  0.4130  1.8864 -0.5422
 2557TIP3    H229163   1.230   0.896  12.955 -0.9093 -0.3516 -0.2003
 2558TIP3   OH229164   4.037   0.131  12.480 -0.5311 -0.1340  0.1732
 2558TIP3    H129165   4.083   0.071  12.539  0.7954  0.0109 -0.6829
 2558TIP3    H229166   3.998   0.073  12.413  1.7544 -0.0458 -1.3446
 2559TIP3   OH229167   1.858   3.350  15.787  0.5582  0.4953 -0.7391
 2559TIP3    H129168   1.953   3.336  15.788  0.6693  1.1420 -0.9508
 2559TIP3    H229169   1.826   3.315  15.870  0.8660 -0.4891 -1.0341
 2560TIP3   OH229170   0.761   1.828  13.203 -0.1985  0.0277  0.4801
 2560TIP3    H129171   0.717   1.827  13.288 -2.1779 -0.8874 -0.4751
 2560TIP3    H229172   0.723   1.902  13.156  0.7030  0.3871  0.2922
 2561TIP3   OH229173   2.786   1.984   5.779 -0.3133 -0.3595 -0.4137
 2561TIP3    H129174   2.879   1.974   5.757 -0.3080 -1.3556  0.0062
 2561TIP3    H229175   2.757   2.058   5.726  0.9288  0.5289  0.0903
 2562TIP3   OH229176   2.607   3.708   6.458  0.0699 -0.2862 -0.0161
 2562TIP3    H129177   2.697   3.737   6.471  0.0266  1.7064 -3.0348
 2562TIP3    H229178   2.610   3.613   6.474  2.2143 -0.0037  1.8198
 2563TIP3   OH229179   2.492   4.993   3.095  0.0437 -0.2564  0.1359
 2563TIP3    H129180   2.503   4.989   3.190 -1.9300 -1.9158  0.3751
 2563TIP3    H229181   2.554   4.929   3.061 -0.9662 -1.4955  0.5503
 2564TIP3   OH229182   5.391   5.906  16.195 -0.0517  0.4137 -0.5215
 2564TIP3    H129183   5.312   5.901  16.141  0.0028  2.0017 -0.8180
 2564TIP3    H229184   5.449   5.965  16.146  0.2799  1.3458  0.9285
 2565TIP3   OH229185   0.822   5.978  12.694 -0.0396  0.0782  0.9334
 2565TIP3    H129186   0.835   6.070  12.670  1.0498  0.4462  2.7514
 2565TIP3    H229187   0.728   5.968  12.701 -0.3374  0.4041 -1.5344
 2566TIP3   OH229188   5.177   5.772   4.931 -0.1362 -0.2134  0.1720
 2566TIP3    H129189   5.252   5.788   4.988 -0.0098 -1.6712  0.4374
 2566TIP3    H229190   5.148   5.860   4.906  1.6050  0.3929  0.1186
 2567TIP3   OH229191   5.582   6.775   4.208  0.2258 -0.2318  0.2894
 2567TIP3    H129192   5.559   6.740   4.294 -1.2075  0.3168  0.1560
 2567TIP3    H229193   5.583   6.870   4.219 -0.3345 -0.1364 -0.3666
 2568TIP3   OH229194   4.969   1.599  12.990  0.5392  0.0530 -0.1624
 2568TIP3    H129195   4.957   1.517  12.942  0.8211 -0.0881  0.0045
 2568TIP3    H229196   5.056   1.630  12.965  0.5272  0.1803 -0.0489
 2569TIP3   OH229197   6.210   1.934  17.071 -0.1138 -0.5982  0.5587
 2569TIP3    H129198   6.199   2.029  17.076 -1.1716 -0.6941  0.2967
 2569TIP3    H229199   6.268   1.919  16.996 -0.5028 -0.1924  0.1762
 2570TIP3   OH229200   3.584   3.137   4.474  0.1773  0.1243 -0.0859
 2570TIP3    H129201   3.609   3.224   4.443  1.4298  0.3671  1.4759
 2570TIP3    H229202   3.491   3.145   4.493 -0.3376  0.3299 -2.4118
 2571TIP3   OH229203   5.611   5.258  12.589  0.4106 -0.2358  0.3227
 2571TIP3    H129204   5.582   5.203  12.516  0.5373  1.0749 -0.7471
 2571TIP3    H229205   5.539   5.253  12.653  0.1870 -1.1938  0.0153
 2572TIP3   OH229206   3.701   4.723  15.664 -0.2263  0.1994 -0.4474
 2572TIP3    H129207   3.796   4.727  15.654 -0.2049 -0.9752 -0.8656
 2572TIP3    H229208   3.676   4.642  15.621 -1.2715 -0.1639  0.7739
 2573TIP3   OH229209   4.144   2.151  15.949 -0.2318  0.4040 -0.8375
 2573TIP3    H129210   4.199   2.162  15.871  0.6790  0.3152 -0.2295
 2573TIP3    H229211   4.196   2.188  16.021 -0.4029 -0.8167 -0.0361
 2574TIP3   OH229212   2.548   0.373  12.353 -0.6800  0.6454 -0.0668
 2574TIP3    H129213   2.634   0.338  12.377  0.9113  1.8212 -3.4596
 2574TIP3    H229214   2.562   0.467  12.343 -2.1026  0.7407 -1.6172
 2575TIP3   OH229215   5.813   1.110  14.630  0.1832  0.0957  0.5974
 2575TIP3    H129216   5.832   1.021  14.602  0.8408  0.6794 -0.9366
 2575TIP3    H229217   5.757   1.100  14.707  0.3091 -1.6236  0.5008
 2576TIP3   OH229218   1.268   4.534  11.476  0.1220  0.3028 -0.0894
 2576TIP3    H129219   1.290   4.441  11.481 -0.4687  0.1756  0.2164
 2576TIP3    H229220   1.324   4.567  11.405  1.8399  0.1753  1.1537
 2577TIP3   OH229221   3.861   0.158   1.736 -0.4038  0.1653  0.4011
 2577TIP3    H129222   3.840   0.106   1.814 -0.8176 -0.3530 -0.0442
 2577TIP3    H229223   3.845   0.098   1.663 -1.6379  1.1622 -0.1717
 2578TIP3   OH229224   2.937   4.710  15.894  0.2766 -0.9607 -0.1790
 2578TIP3    H129225   2.999   4.640  15.872 -0.0307 -1.4083  0.3795
 2578TIP3    H229226   2.915   4.695  15.986  0.4060  0.0231  0.0192
 2579TIP3   OH229227   4.977   2.997   6.015  0.0188  0.6873 -0.3071
 2579TIP3    H129228   5.001   3.081   6.054  0.5320 -0.8584  3.0649
 2579TIP3    H229229   5.005   2.931   6.080 -3.2286 -1.9162 -1.2593
 2580TIP3   OH229230   2.601   2.160  15.701  0.0077  0.8818 -0.2130
 2580TIP3    H129231   2.533   2.204  15.752  0.3284 -0.6863  1.6557
 2580TIP3    H229232   2.643   2.231  15.652  0.3196  2.6414  2.4214
 2581TIP3   OH229233   4.912   5.889   3.225  0.6472 -0.5786  0.1325
 2581TIP3    H129234   4.860   5.838   3.163 -0.7225  1.0053 -0.0839
 2581TIP3    H229235   4.879   5.864   3.311  0.1477 -0.2395  0.0403
 2582TIP3   OH229236   5.959   0.824   1.627  0.0867 -0.1181  0.0636
 2582TIP3    H129237   5.914   0.846   1.709 -0.3707 -0.3219 -0.1284
 2582TIP3    H229238   6.036   0.776   1.654  0.8934  1.3350  0.4787
 2583TIP3   OH229239   2.913   5.282   2.735  0.0686 -0.4526  0.4250
 2583TIP3    H129240   2.966   5.336   2.676  0.6800  0.5172  1.7936
 2583TIP3    H229241   2.837   5.258   2.683  0.7067  0.1369 -0.8396
 2584TIP3   OH229242   4.723   6.316   1.191 -0.1535 -0.4852 -0.2841
 2584TIP3    H129243   4.703   6.359   1.274 -1.7053  0.5171 -1.1426
 2584TIP3    H229244   4.723   6.222   1.213 -0.5948 -0.2391  0.8434
 2585TIP3   OH229245   0.372   4.199  17.054  0.6359  0.1969  0.5314
 2585TIP3    H129246   0.280   4.211  17.078  0.3588  1.4662 -0.9448
 2585TIP3    H229247   0.375   4.223  16.961  2.6660  1.4007  0.8348
 2586TIP3   OH229248   2.710   5.603   5.529  0.3364 -0.5332 -0.9591
 2586TIP3    H129249   2.773   5.600   5.457  0.7836  0.6960 -0.6533
 2586TIP3    H229250   2.751   5.553   5.599  1.7337  1.5088 -0.2328
 2587TIP3   OH229251   4.148   1.357  12.232  0.8980 -0.0362  1.0008
 2587TIP3    H129252   4.104   1.292  12.286  0.8597 -3.1624 -2.3751
 2587TIP3    H229253   4.237   1.361  12.267  0.3179 -0.2161  2.5778
 2588TIP3   OH229254   0.258   3.792   0.410 -0.0921  0.5899 -0.8411
 2588TIP3    H129255   0.292   3.811   0.497  1.0832  0.3969 -1.2449
 2588TIP3    H229256   0.163   3.796   0.420  0.0509  2.0021  0.1131
 2589TIP3   OH229257   2.127   4.495   0.192  0.0470 -0.1637 -0.0407
 2589TIP3    H129258   2.108   4.455   0.276 -0.2245  1.1780  0.5586
 2589TIP3    H229259   2.220   4.518   0.197 -0.1183  0.4721  0.1336
 2590TIP3   OH229260   3.174   0.825   5.791 -0.6080 -0.0037 -0.1345
 2590TIP3    H129261   3.174   0.743   5.741 -0.7374  0.8728 -1.6299
 2590TIP3    H229262   3.115   0.808   5.865  0.0401 -1.5271  0.0641
 2591TIP3   OH229263   3.707   6.442  10.918  0.1966  0.0363 -0.1211
 2591TIP3    H129264   3.700   6.416  10.827  1.5934  0.7115 -0.4466
 2591TIP3    H229265   3.801   6.449  10.934  0.0508 -1.6549  1.8319
 2592TIP3   OH229266   1.226   1.749   3.573  0.3834  0.1443  0.2489
 2592TIP3    H129267   1.210   1.839   3.601  1.7640  1.0019 -1.4912
 2592TIP3    H229268   1.299   1.720   3.628  0.0913  0.1607  0.6497
 2593TIP3   OH229269   5.973   3.879  13.273  0.6828  0.4326 -0.3512
 2593TIP3    H129270   5.888   3.835  13.281  0.1170  1.4610 -0.3973
 2593TIP3    H229271   5.967   3.928  13.191  1.4404  0.2765 -0.5054
 2594TIP3   OH229272   6.065   5.550   2.558 -0.0674 -0.2242 -0.5537
 2594TIP3    H129273   6.072   5.469   2.609  1.5394 -0.0515 -0.4562
 2594TIP3    H229274   6.021   5.611   2.617  2.0540  0.0755  0.8282
 2595TIP3   OH229275   5.817   4.611  13.670 -0.5449  0.4407 -0.2458
 2595TIP3    H129276   5.893   4.558  13.646 -1.7232 -0.5966 -1.9465
 2595TIP3    H229277   5.845   4.701  13.657  0.6932  0.1302  0.1408
 2596TIP3   OH229278   1.222   2.076  16.182  0.5328 -0.1825 -0.3829
 2596TIP3    H129279   1.159   2.057  16.251  1.1111  1.6554  0.7106
 2596TIP3    H229280   1.195   2.162  16.148  1.5827 -0.0431 -0.8982
 2597TIP3   OH229281   0.263   0.978  16.516 -0.3986 -0.2063 -0.5526
 2597TIP3    H129282   0.256   1.013  16.428  0.1489  0.2548 -0.4215
 2597TIP3    H229283   0.356   0.957  16.526 -0.2918  0.5524  0.2097
 2598TIP3   OH229284   3.520   0.320   2.805 -0.7898  0.3532  0.1588
 2598TIP3    H129285   3.436   0.284   2.776 -0.2894  0.8946 -2.2277
 2598TIP3    H229286   3.539   0.275   2.887 -3.9659  1.0968  1.4443
 2599TIP3   OH229287   2.732   6.606   5.900 -0.2076  0.6411  0.4895
 2599TIP3    H129288   2.643   6.603   5.864 -0.6680  0.8696  1.5715
 2599TIP3    H229289   2.748   6.517   5.931 -0.5089  0.8606  1.3103
 2600TIP3   OH229290   0.239   0.026  14.665  0.0001  0.0076 -0.0954
 2600TIP3    H129291   0.237   0.096  14.600  1.2410  2.5929  2.4216
 2600TIP3    H229292   0.150   0.024  14.702  0.0681  0.5746  0.1061
 2601TIP3   OH229293   4.301   5.813  14.034  0.1610 -0.5121  0.7067
 2601TIP3    H129294   4.313   5.770  14.119  0.6269 -2.0930 -0.1310
 2601TIP3    H229295   4.289   5.741  13.972  1.3414  0.5412 -0.8093
 2602TIP3   OH229296   5.315   1.811  11.700 -0.1510  0.1765  0.3926
 2602TIP3    H129297   5.310   1.792  11.794  0.0665 -0.7943  0.2195
 2602TIP3    H229298   5.307   1.906  11.695  0.3307  0.2928  1.4339
 2603TIP3   OH229299   1.808   4.404   0.162  0.1431 -0.3936 -0.4359
 2603TIP3    H129300   1.792   4.411   0.068  1.8814  1.2153 -0.6673
 2603TIP3    H229301   1.804   4.495   0.193  2.8578 -0.4915  0.4162
 2604TIP3   OH229302   0.735   0.504   5.708 -0.3428  0.2120 -0.2926
 2604TIP3    H129303   0.693   0.552   5.636 -0.3538  0.7339  0.0544
 2604TIP3    H229304   0.802   0.564   5.741  1.4232 -0.9878 -1.4965
 2605TIP3   OH229305   2.878   4.044   0.436 -0.2908  0.3799 -0.5659
 2605TIP3    H129306   2.844   4.118   0.487 -1.2797 -0.9616  0.7914
 2605TIP3    H229307   2.962   4.024   0.478 -0.4289  0.1832 -0.3852
 2606TIP3   OH229308   1.233   2.172   1.848  0.0445 -0.0599 -0.2636
 2606TIP3    H129309   1.211   2.194   1.757  1.1329  1.5589 -0.1801
 2606TIP3    H229310   1.319   2.131   1.843  0.5334  0.8964  0.1029
 2607TIP3   OH229311   0.591   6.438  10.871 -0.2675 -0.2288 -0.2957
 2607TIP3    H129312   0.524   6.468  10.810 -0.3748  0.0358 -0.0501
 2607TIP3    H229313   0.588   6.343  10.865  0.7784 -0.2125 -1.8517
 2608TIP3   OH229314   4.487   5.925   5.964 -0.8125 -0.1663  0.0215
 2608TIP3    H129315   4.444   5.865   5.903  0.7280 -0.4150 -0.8510
 2608TIP3    H229316   4.530   5.990   5.908  0.9486 -0.6134  0.7865
 2609TIP3   OH229317   6.648   6.296   6.001  0.0178  0.5276  0.4452
 2609TIP3    H129318   6.566   6.345   6.015 -0.9346 -0.3876 -1.4681
 2609TIP3    H229319   6.700   6.353   5.944  0.0881  0.4756  0.4580
 2610TIP3   OH229320   5.740   2.164  13.810  0.3928  0.4652  0.3697
 2610TIP3    H129321   5.789   2.137  13.888  1.3119  2.6388  0.6028
 2610TIP3    H229322   5.799   2.145  13.737  0.8553  1.3861  0.4947
 2611TIP3   OH229323   3.191   5.492  14.234 -0.0533 -0.2756  0.4803
 2611TIP3    H129324   3.154   5.459  14.152  0.5973  0.9400 -0.3288
 2611TIP3    H229325   3.164   5.583  14.238  1.0482  0.0482  0.9484
 2612TIP3   OH229326   0.993   0.792   6.541  0.0092  0.1381  0.0769
 2612TIP3    H129327   1.026   0.782   6.451  0.2144 -1.7930  0.3395
 2612TIP3    H229328   0.923   0.857   6.533  1.0674  1.2022 -1.1853
 2613TIP3   OH229329   2.844   4.394  13.003 -0.1055  0.5913  0.8151
 2613TIP3    H129330   2.877   4.409  13.092  0.2995  0.4047  0.6975
 2613TIP3    H229331   2.749   4.397  13.012 -0.0634  0.9138  1.1965
 2614TIP3   OH229332   4.257   1.734  15.498 -0.0367  0.1963 -0.1314
 2614TIP3    H129333   4.252   1.638  15.498 -2.6413  0.2321  1.2758
 2614TIP3    H229334   4.215   1.760  15.416  0.3932  0.1467 -0.3693
 2615TIP3   OH229335   0.255   6.323  12.972  0.0101 -0.2188  0.1329
 2615TIP3    H129336   0.201   6.302  12.896 -0.3194 -1.8314  0.7829
 2615TIP3    H229337   0.321   6.254  12.975  1.3197  0.9711  0.1484
 2616TIP3   OH229338   2.115   4.745  13.729  0.4367 -0.3585  0.2528
 2616TIP3    H129339   2.191   4.794  13.696 -0.0616 -0.2935 -0.8253
 2616TIP3    H229340   2.119   4.759  13.824  1.7482 -0.3301  0.2242
 2617TIP3   OH229341   4.456   3.969  13.406  0.4292 -0.4163  0.2741
 2617TIP3    H129342   4.547   3.941  13.412  0.5233 -0.5549 -1.2487
 2617TIP3    H229343   4.439   4.018  13.487  2.2454  0.7138  0.0225
 2618TIP3   OH229344   1.249   6.209   5.982 -0.5199  0.2984 -0.2086
 2618TIP3    H129345   1.248   6.155   5.903 -1.4609 -0.0597  0.0431
 2618TIP3    H229346   1.268   6.148   6.053 -0.7894  0.4266 -0.0234
 2619TIP3   OH229347   3.593   1.776   0.035 -0.2049 -0.2639  0.2595
 2619TIP3    H129348   3.529   1.799   0.102 -0.0568  1.2329 -0.0805
 2619TIP3    H229349   3.541   1.735  -0.034 -0.5751 -0.4131  0.6213
 2620TIP3   OH229350   5.126   5.926  11.998  1.0791 -0.2316  0.0280
 2620TIP3    H129351   5.173   5.926  12.081  0.8543 -0.2107  0.1566
 2620TIP3    H229352   5.145   6.011  11.959  2.3225 -0.7788 -0.5986
 2621TIP3   OH229353   2.072   3.914   5.416  0.2000 -0.3152  0.4238
 2621TIP3    H129354   2.005   3.846   5.412  1.2330 -1.2974 -1.6636
 2621TIP3    H229355   2.048   3.975   5.346  0.8302 -0.0396  0.4422
 2622TIP3   OH229356   6.234   1.981   0.059 -0.2013  0.2777  0.1817
 2622TIP3    H129357   6.201   1.923  -0.010  1.4901 -0.7667  0.1696
 2622TIP3    H229358   6.244   2.066   0.016 -1.1086  0.1566 -0.2864
 2623TIP3   OH229359   3.832   3.400   4.642 -0.0194  0.2590  0.1011
 2623TIP3    H129360   3.795   3.419   4.555 -1.5639 -1.0833  0.4125
 2623TIP3    H229361   3.828   3.483   4.689  0.5308  0.9292 -0.9997
 2624TIP3   OH229362   0.093   0.128  15.610  0.0331 -0.2685  0.5548
 2624TIP3    H129363   0.057   0.065  15.547  0.2127  1.4576 -1.3507
 2624TIP3    H229364   0.137   0.073  15.676 -0.1137 -2.1388 -0.8300
 2625TIP3   OH229365   5.222   2.539   6.335 -0.1995  0.0504 -0.4438
 2625TIP3    H129366   5.159   2.529   6.407  1.2261  1.6720  1.1266
 2625TIP3    H229367   5.167   2.555   6.258 -1.7496 -0.9864  0.3878
 2626TIP3   OH229368   1.087   1.260   0.973 -0.0532 -0.7019  0.0484
 2626TIP3    H129369   1.069   1.313   1.051 -1.1053  1.1539 -1.3857
 2626TIP3    H229370   1.000   1.239   0.938  0.4005 -1.6670 -0.5214
 2627TIP3   OH229371   3.462   2.803  15.971  0.3607 -0.0289  0.7034
 2627TIP3    H129372   3.507   2.854  15.904  0.8622 -1.3886 -0.0311
 2627TIP3    H229373   3.529   2.786  16.037  1.6481 -3.6136 -1.2393
 2628TIP3   OH229374   4.893   6.051  16.872  0.4732  0.6759 -0.4889
 2628TIP3    H129375   4.868   5.967  16.910  0.4764  1.4186  1.2306
 2628TIP3    H229376   4.944   6.095  16.940 -0.6253  2.6058 -0.8225
 2629TIP3   OH229377   4.105   6.025  10.812 -0.9893  0.4700  0.1641
 2629TIP3    H129378   4.193   5.999  10.841 -2.0761 -2.2399  1.2842
 2629TIP3    H229379   4.092   6.111  10.853  1.3604  1.2907 -0.6192
 2630TIP3   OH229380   2.686   4.213  12.116  0.3385 -0.2168 -0.4683
 2630TIP3    H129381   2.639   4.274  12.059 -1.2153  0.3701  1.2953
 2630TIP3    H229382   2.634   4.133  12.114  1.2166 -0.7796 -1.1642
 2631TIP3   OH229383   1.278   6.334   4.521 -0.4434  0.3505 -0.2449
 2631TIP3    H129384   1.250   6.260   4.467 -1.0710 -1.2774  2.1502
 2631TIP3    H229385   1.343   6.297   4.581 -0.8170  1.6973  1.0634
 2632TIP3   OH229386   1.332   0.187  14.543  0.7824  0.0295 -0.4190
 2632TIP3    H129387   1.338   0.118  14.478  1.6435 -3.3274  2.8921
 2632TIP3    H229388   1.422   0.199  14.574  0.0700 -0.7616  2.1904
 2633TIP3   OH229389   1.085   4.575  17.214  0.0919  0.1490 -0.1552
 2633TIP3    H129390   1.125   4.659  17.191  1.9386 -1.3112 -2.7871
 2633TIP3    H229391   0.996   4.580  17.180  0.0503  1.1560  0.0662
 2634TIP3   OH229392   4.295   3.521   4.170  0.3373  0.1864 -0.4341
 2634TIP3    H129393   4.217   3.507   4.224 -0.3892 -1.7148 -1.8442
 2634TIP3    H229394   4.348   3.582   4.220 -1.7608  1.0555  0.8847
 2635TIP3   OH229395   6.180   2.649   3.223 -0.2870  0.4749 -0.0190
 2635TIP3    H129396   6.190   2.672   3.131  1.5657  1.0642  0.2894
 2635TIP3    H229397   6.227   2.566   3.233 -0.9731  0.1127  0.2950
 2636TIP3   OH229398   2.346   4.077  10.485 -0.0053 -0.3739  0.0261
 2636TIP3    H129399   2.424   4.117  10.445 -0.9344 -0.4163 -1.9434
 2636TIP3    H229400   2.372   4.061  10.576  1.3563  2.0951  0.1708
 2637TIP3   OH229401   4.579   1.396   5.775  0.1716  0.1400  0.0900
 2637TIP3    H129402   4.516   1.350   5.830  0.3969  0.3701  0.5479
 2637TIP3    H229403   4.646   1.331   5.756  0.4527  0.2489  0.6750
 2638TIP3   OH229404   6.539   5.575  14.971 -0.0903 -0.1088  0.2623
 2638TIP3    H129405   6.499   5.509  14.915  1.6730  0.4043 -1.7280
 2638TIP3    H229406   6.470   5.641  14.983 -1.1581 -1.2148  0.4710
 2639TIP3   OH229407   3.070   0.748  14.772 -0.3641  1.0173 -0.1762
 2639TIP3    H129408   3.126   0.820  14.744  2.8057 -1.4699 -0.8353
 2639TIP3    H229409   3.015   0.784  14.841  3.7116  3.2118  2.2563
 2640TIP3   OH229410   1.376   0.554   4.816 -0.0534 -0.0900  0.2994
 2640TIP3    H129411   1.455   0.514   4.779 -1.0068 -1.4121 -0.3837
 2640TIP3    H229412   1.359   0.630   4.760 -0.9563 -1.5448 -1.5180
 2641TIP3   OH229413   5.609   2.057  12.711  0.4938 -0.2753  0.3969
 2641TIP3    H129414   5.614   2.091  12.621 -0.2865  0.1565  0.5043
 2641TIP3    H229415   5.542   1.988  12.706 -1.9847  1.8955  1.2511
 2642TIP3   OH229416   4.774   0.718  13.014  0.3275 -0.7419 -0.3658
 2642TIP3    H129417   4.810   0.785  13.073 -0.2113  1.0366 -1.9668
 2642TIP3    H229418   4.679   0.729  13.022  0.1475 -2.6519  0.7616
 2643TIP3   OH229419   0.926   3.682  16.092  0.3781 -0.5917 -0.3544
 2643TIP3    H129420   0.915   3.652  16.002 -2.2910  2.0156 -1.0532
 2643TIP3    H229421   0.853   3.643  16.140 -1.5655  2.2918 -0.7023
 2644TIP3   OH229422   4.655   5.146   4.295 -0.0225 -0.0617 -0.3812
 2644TIP3    H129423   4.685   5.236   4.289 -1.4267  0.6086  1.5409
 2644TIP3    H229424   4.606   5.131   4.214  0.5019  0.7957 -0.8571
 2645TIP3   OH229425   5.151   1.682   4.263  0.5529 -0.6301  0.1203
 2645TIP3    H129426   5.150   1.776   4.278 -0.8544  0.0407 -3.2104
 2645TIP3    H229427   5.231   1.652   4.305  1.8949  2.3394 -0.0673
 2646TIP3   OH229428   0.795   0.855   3.169  0.0851 -0.1168  0.4453
 2646TIP3    H129429   0.839   0.870   3.253  0.5560 -2.7534  0.7528
 2646TIP3    H229430   0.702   0.851   3.191  0.1650 -0.2782  0.7541
 2647TIP3   OH229431   5.588   5.003  16.437 -0.1203  1.0005  0.1969
 2647TIP3    H129432   5.567   4.925  16.386 -1.9367  0.3739  1.7958
 2647TIP3    H229433   5.669   4.981  16.482  0.3178  0.7369 -0.6895
 2648TIP3   OH229434   4.623   0.104   3.143  0.1494 -0.0744  0.1211
 2648TIP3    H129435   4.590   0.073   3.059  2.2022  0.7900 -1.0684
 2648TIP3    H229436   4.576   0.185   3.159 -0.2991 -0.2768 -0.1562
 2649TIP3   OH229437   1.693   2.770  15.863  0.4496 -0.0567 -0.5063
 2649TIP3    H129438   1.737   2.833  15.805 -1.3806  0.5608 -1.2793
 2649TIP3    H229439   1.601   2.774  15.838 -0.5343  0.5952  2.8022
 2650TIP3   OH229440   6.821   3.067   3.038  0.5218 -0.0980 -0.2889
 2650TIP3    H129441   6.763   3.135   3.004 -0.6725 -1.4213 -1.0347
 2650TIP3    H229442   6.834   3.008   2.964  1.9719 -0.4052  0.1809
 2651TIP3   OH229443   5.483   0.205  12.244 -0.1804  0.2736  1.3862
 2651TIP3    H129444   5.524   0.191  12.158 -1.1090 -0.1034  0.9910
 2651TIP3    H229445   5.557   0.206  12.305  0.6067  1.6911  0.4710
 2652TIP3   OH229446   3.337   2.590   1.398 -0.5099 -0.1272 -0.3909
 2652TIP3    H129447   3.322   2.608   1.491  1.0419  1.0898 -0.3361
 2652TIP3    H229448   3.271   2.524   1.376 -2.8491  1.5941  0.8698
 2653TIP3   OH229449   4.153   1.181   0.681 -0.4097 -0.0241 -0.2695
 2653TIP3    H129450   4.208   1.112   0.718 -0.1999 -1.5125 -3.1128
 2653TIP3    H229451   4.206   1.218   0.610 -1.6967  0.9785 -0.7358
 2654TIP3   OH229452   5.728   3.571  16.636  0.3492  0.0928  0.0993
 2654TIP3    H129453   5.757   3.548  16.724 -1.2933 -1.8782  0.2028
 2654TIP3    H229454   5.635   3.548  16.635 -0.2581  2.3454 -1.4312
 2655TIP3   OH229455   1.520   2.091  15.746 -0.6889  0.5679  0.0300
 2655TIP3    H129456   1.608   2.112  15.716 -1.2005  1.4074 -0.9442
 2655TIP3    H229457   1.525   1.999  15.770 -0.4208 -0.5291 -3.5642
 2656TIP3   OH229458   0.987   3.663  13.241  0.2166 -0.1800  0.0726
 2656TIP3    H129459   1.052   3.613  13.290  0.2985 -0.8318 -0.6809
 2656TIP3    H229460   0.920   3.599  13.218  1.0232 -0.3261 -2.1669
 2657TIP3   OH229461   3.974   3.408   2.501  0.0498 -0.2741  0.3872
 2657TIP3    H129462   3.890   3.428   2.459  1.8601  1.8215 -2.5846
 2657TIP3    H229463   3.973   3.313   2.513 -2.3544 -0.4189 -0.3446
 2658TIP3   OH229464   0.043   0.382   0.813  0.4170  0.4929 -0.2007
 2658TIP3    H129465   0.093   0.407   0.891  0.1588  1.3453 -0.3034
 2658TIP3    H229466  -0.021   0.452   0.802 -2.5885 -1.7415  1.3915
 2659TIP3   OH229467   4.890   4.016  12.977 -0.2737 -0.1363  0.3537
 2659TIP3    H129468   4.849   3.982  12.897 -1.0347  0.3197  0.5330
 2659TIP3    H229469   4.891   4.111  12.964  0.2676 -0.1125  0.5790
 2660TIP3   OH229470   2.184   0.742  11.621  0.6857 -0.3075 -0.8190
 2660TIP3    H129471   2.223   0.747  11.708  0.0439 -0.1437 -0.5349
 2660TIP3    H229472   2.091   0.764  11.634  0.7612  0.6256 -1.6638
 2661TIP3   OH229473   6.346   6.569   4.842  0.2598  0.1282  0.5345
 2661TIP3    H129474   6.318   6.594   4.754  2.0491  2.2034  0.4629
 2661TIP3    H229475   6.295   6.626   4.900 -1.1450 -1.4517  0.9098
 2662TIP3   OH229476   2.749   4.378   5.873  0.2201 -0.5028  0.0268
 2662TIP3    H129477   2.722   4.325   5.949  0.1000 -0.6081 -0.0877
 2662TIP3    H229478   2.704   4.462   5.886 -0.2563 -0.7169 -0.2200
 2663TIP3   OH229479   2.381   3.635  13.103 -0.5689  0.2462 -0.3637
 2663TIP3    H129480   2.368   3.684  13.184 -1.0014  0.4716 -0.5683
 2663TIP3    H229481   2.453   3.681  13.059 -0.1680 -0.0228  0.0025
 2664TIP3   OH229482   2.707   3.613  16.492 -0.0338 -0.5517 -0.0311
 2664TIP3    H129483   2.687   3.696  16.449  1.9796 -0.3978 -0.8058
 2664TIP3    H229484   2.686   3.628  16.584  2.1428  1.5812  0.2190
 2665TIP3   OH229485   2.546   1.622  11.891  0.2456  0.4711 -0.8498
 2665TIP3    H129486   2.481   1.686  11.921 -2.0664 -0.2613 -3.8363
 2665TIP3    H229487   2.567   1.571  11.969 -1.2059  2.0460  0.6551
 2666TIP3   OH229488   3.932   1.804   2.972 -0.3221 -0.0705 -0.7410
 2666TIP3    H129489   3.950   1.717   2.936 -0.1900 -0.6311  0.6388
 2666TIP3    H229490   3.980   1.806   3.055 -3.5946 -0.2652  1.3248
 2667TIP3   OH229491   3.338   1.190  15.849 -0.9208  0.1691  0.4547
 2667TIP3    H129492   3.401   1.119  15.837  0.2623  1.2066  0.3168
 2667TIP3    H229493   3.372   1.262  15.797 -0.3183  1.9273  3.0774
 2668TIP3   OH229494   3.573   6.060   1.958  0.7556 -0.3402  0.1115
 2668TIP3    H129495   3.499   6.111   1.990  0.8869  0.4544 -0.7980
 2668TIP3    H229496   3.540   6.016   1.879  0.7900 -1.2878  0.6102
 2669TIP3   OH229497   2.015   2.063  13.754  0.2101 -0.1759  0.1925
 2669TIP3    H129498   2.056   2.134  13.705 -0.2659 -0.7633 -1.0954
 2669TIP3    H229499   1.927   2.057  13.717 -0.5022 -0.0345  1.7630
 2670TIP3   OH229500   6.599   0.244   3.506  0.3189  0.2789 -0.1701
 2670TIP3    H129501   6.513   0.280   3.529 -0.0048 -0.8971  0.5217
 2670TIP3    H229502   6.579   0.159   3.466  1.1050  0.5274 -1.1305
 2671TIP3   OH229503   1.543   2.304  15.969 -0.2210 -0.0404 -0.1480
 2671TIP3    H129504   1.589   2.382  15.937  1.8131 -1.9599 -2.1915
 2671TIP3    H229505   1.484   2.280  15.897  1.9347 -2.4769 -1.2440
 2672TIP3   OH229506   0.508   4.506  15.854  0.6656 -0.4648 -0.2581
 2672TIP3    H129507   0.577   4.571  15.863 -0.7167  1.3275 -1.8295
 2672TIP3    H229508   0.465   4.503  15.940  0.8952  0.5419 -0.1011
 2673TIP3   OH229509   4.440   5.467  10.548  0.2965 -0.5678 -0.1109
 2673TIP3    H129510   4.395   5.550  10.564  0.5516 -0.8971  2.9444
 2673TIP3    H229511   4.527   5.479  10.586  0.0065 -2.5027  1.3487
 2674TIP3   OH229512   5.136   1.536  16.049 -0.2108  0.1913  0.4069
 2674TIP3    H129513   5.065   1.532  16.113  0.2444 -0.1919  0.8979
 2674TIP3    H229514   5.097   1.580  15.973 -0.4407  1.6935  1.3570
 2675TIP3   OH229515   0.418   2.335  13.931 -0.0879 -0.4485 -0.1609
 2675TIP3    H129516   0.352   2.403  13.946  1.1731  0.5134  1.2351
 2675TIP3    H229517   0.493   2.362  13.983  0.6512 -2.6596  0.0305
 2676TIP3   OH229518   2.306   1.163  17.293  0.5058 -0.4717 -0.1149
 2676TIP3    H129519   2.299   1.222  17.368 -0.1752 -0.0825 -0.4696
 2676TIP3    H229520   2.351   1.214  17.226  1.6578 -1.0215  0.2153
 2677TIP3   OH229521   3.497   4.518   5.108 -0.5543 -0.3591 -0.0119
 2677TIP3    H129522   3.517   4.578   5.180 -2.7235  1.3282 -0.7056
 2677TIP3    H229523   3.452   4.445   5.150  2.3239 -1.7530  0.8758
 2678TIP3   OH229524   2.871   0.893  14.645  0.6330  0.3060  0.6353
 2678TIP3    H129525   2.901   0.980  14.671  1.5731  0.7939 -1.7613
 2678TIP3    H229526   2.951   0.841  14.640  0.5455  0.2910 -1.2393
 2679TIP3   OH229527   2.425   1.242  16.825 -0.4846  0.2764  0.1941
 2679TIP3    H129528   2.386   1.210  16.907  0.5772  0.2716  0.7138
 2679TIP3    H229529   2.430   1.165  16.769 -1.6085  0.3604 -0.0575
 2680TIP3   OH229530   4.190   6.126   3.473  0.0799  0.6395 -0.4091
 2680TIP3    H129531   4.225   6.053   3.525  1.0703 -0.3718 -2.3573
 2680TIP3    H229532   4.178   6.197   3.536 -0.6072 -1.0750  1.5159
 2681TIP3   OH229533   3.398   2.725   0.426  0.6108 -0.2255 -0.1692
 2681TIP3    H129534   3.374   2.689   0.511  2.4435 -2.2082 -0.3924
 2681TIP3    H229535   3.477   2.777   0.443  2.2051 -2.2760 -0.8395
 2682TIP3   OH229536   0.818   3.347   2.165  0.1198  0.3753  0.4247
 2682TIP3    H129537   0.803   3.440   2.177  0.8230  0.6373 -0.6671
 2682TIP3    H229538   0.878   3.341   2.091  1.2244 -0.8716  1.3650
 2683TIP3   OH229539   2.799   4.242   0.220  0.1964  0.2567 -0.2289
 2683TIP3    H129540   2.837   4.159   0.249  1.3518  1.2696  1.2905
 2683TIP3    H229541   2.740   4.217   0.149  2.4399 -1.5966 -1.6027
 2684TIP3   OH229542   3.690   1.812  13.332 -0.3538  0.7721  0.5676
 2684TIP3    H129543   3.724   1.727  13.361 -1.7707  0.3030  0.9823
 2684TIP3    H229544   3.706   1.870  13.407 -0.0833  0.6719  0.5898
 2685TIP3   OH229545   0.009   4.203  15.373  0.4971  0.6778 -0.7553
 2685TIP3    H129546   0.095   4.247  15.376  0.0339  1.5338  1.3018
 2685TIP3    H229547  -0.047   4.255  15.430 -0.2281 -2.2950  1.5129
 2686TIP3   OH229548   2.224   4.664  15.156  0.4878 -0.1835 -0.1954
 2686TIP3    H129549   2.138   4.707  15.151  1.1178  1.2209  0.5167
 2686TIP3    H229550   2.286   4.732  15.130  1.5919 -0.3863  1.7682
 2687TIP3   OH229551   6.202   2.186   2.480  0.0544  0.1938 -0.1149
 2687TIP3    H129552   6.142   2.217   2.412 -0.7875 -0.5511  0.2598
 2687TIP3    H229553   6.152   2.197   2.561  0.9876  0.9291  0.3739
 2688TIP3   OH229554   4.968   5.441  15.212  0.4651 -0.4535  0.1894
 2688TIP3    H129555   4.879   5.426  15.180 -0.4367 -2.1189  3.0772
 2688TIP3    H229556   4.963   5.525  15.258 -0.1407 -1.2462  1.6723
 2689TIP3   OH229557   2.537   0.821   2.517  0.2412 -0.4821  0.3709
 2689TIP3    H129558   2.544   0.857   2.605 -0.9444 -0.5149  0.5028
 2689TIP3    H229559   2.604   0.866   2.466  1.8093 -1.3562  1.5579
 2690TIP3   OH229560   3.499   5.752  17.223  0.2592  0.3752 -0.2906
 2690TIP3    H129561   3.419   5.801  17.206  0.6892  1.1133 -0.2004
 2690TIP3    H229562   3.470   5.660  17.225 -0.5427  0.6130 -0.4753
 2691TIP3   OH229563   5.001   2.066  14.612  0.6876 -0.6107  0.2050
 2691TIP3    H129564   5.092   2.053  14.638  0.8763  1.2391  0.5689
 2691TIP3    H229565   4.966   2.129  14.675  0.4896  2.1807 -2.4611
 2692TIP3   OH229566   2.218   2.671   3.506  0.3562  0.4098  0.3738
 2692TIP3    H129567   2.147   2.732   3.527 -0.4980  0.0309 -1.2617
 2692TIP3    H229568   2.197   2.592   3.555 -0.3857  0.2893 -0.1270
 2693TIP3   OH229569   3.381   6.451   3.032 -0.0439  0.3406 -0.5470
 2693TIP3    H129570   3.338   6.432   3.116  1.7935 -2.2255 -0.0546
 2693TIP3    H229571   3.459   6.502   3.056  0.6908 -0.7237 -0.5994
 2694TIP3   OH229572   6.405   2.312   4.031 -0.3209  0.0790  0.1655
 2694TIP3    H129573   6.340   2.329   3.963  1.2350  1.4566 -1.0559
 2694TIP3    H229574   6.454   2.394   4.039  1.7860 -1.1495  0.4638
 2695TIP3   OH229575   5.967   1.576   4.087 -0.3496 -0.1176  0.4831
 2695TIP3    H129576   5.934   1.491   4.116 -0.7929 -0.5369 -1.1880
 2695TIP3    H229577   6.041   1.593   4.145  1.7466 -3.1079 -1.0769
 2696TIP3   OH229578   1.807   3.840  16.910 -0.0566  0.2731  0.3610
 2696TIP3    H129579   1.888   3.889  16.926 -1.2519  2.6201 -0.3228
 2696TIP3    H229580   1.739   3.907  16.905 -1.7057 -1.4112 -1.4432
 2697TIP3   OH229581   3.745   6.586  15.657  0.0762  0.3996 -0.7183
 2697TIP3    H129582   3.714   6.672  15.627  2.0502  1.8040  0.8972
 2697TIP3    H229583   3.757   6.597  15.752  3.7693 -0.4271 -0.9456
 2698TIP3   OH229584   4.971   3.163   1.530 -0.0440  0.0292 -0.4673
 2698TIP3    H129585   5.008   3.244   1.565 -1.2125 -0.6853  2.7585
 2698TIP3    H229586   4.888   3.153   1.575 -0.5472 -2.3332 -1.7535
 2699TIP3   OH229587   4.189   0.982   0.094  0.5119 -0.7786 -0.0860
 2699TIP3    H129588   4.133   0.921   0.046 -1.2787  0.0151  0.9256
 2699TIP3    H229589   4.162   0.973   0.185  1.7958 -0.0879  0.3923
 2700TIP3   OH229590   3.069   5.225  11.813  0.0314  0.4350  0.0990
 2700TIP3    H129591   3.083   5.281  11.737 -1.6277  2.4465  1.1937
 2700TIP3    H229592   3.103   5.276  11.887 -0.5185 -0.4748  1.0007
 2701TIP3   OH229593   3.570   3.720   4.805  0.2402  0.0829 -0.1071
 2701TIP3    H129594   3.484   3.680   4.800  0.2585  0.1499 -1.2432
 2701TIP3    H229595   3.552   3.813   4.821  0.0939  0.1519 -0.6776
 2702TIP3   OH229596   6.272   5.316   3.221 -0.0329  0.3015 -0.3212
 2702TIP3    H129597   6.365   5.324   3.199  0.6346 -1.4505  1.5236
 2702TIP3    H229598   6.265   5.350   3.310 -0.4319 -2.4858  0.8382
 2703TIP3   OH229599   6.450   0.845  12.052  0.3656 -0.0195  0.2252
 2703TIP3    H129600   6.491   0.788  11.987 -0.3627 -0.4513  0.1432
 2703TIP3    H229601   6.378   0.887  12.006  1.9309  2.3600 -0.2485
 2704TIP3   OH229602   2.723   5.512  14.166 -0.0552 -0.1857  0.2873
 2704TIP3    H129603   2.788   5.474  14.226  0.8171  1.3352  0.3415
 2704TIP3    H229604   2.772   5.577  14.116 -1.6550  1.4828  0.7805
 2705TIP3   OH229605   4.252   0.201  10.706 -0.1274 -1.1632 -0.9135
 2705TIP3    H129606   4.256   0.105  10.714 -0.9354 -1.0570  1.7800
 2705TIP3    H229607   4.159   0.220  10.697 -0.7456 -0.5370  3.8636
 2706TIP3   OH229608   0.299   1.215   5.034  0.0735  0.2193 -0.3156
 2706TIP3    H129609   0.351   1.149   5.079 -0.4869 -2.3300 -3.1509
 2706TIP3    H229610   0.349   1.296   5.045  0.8515 -0.5585  3.1729
 2707TIP3   OH229611   1.633   0.962  13.364  0.4279  0.4043  0.1720
 2707TIP3    H129612   1.632   0.991  13.455  0.2617  0.2290  0.2259
 2707TIP3    H229613   1.580   1.027  13.317  0.2178  0.2953  0.2591
 2708TIP3   OH229614   4.732   5.516  15.146  0.0525 -0.3358  0.5752
 2708TIP3    H129615   4.748   5.604  15.111  2.2528 -1.0935 -0.5286
 2708TIP3    H229616   4.652   5.525  15.198 -1.6284  1.5948 -2.0750
 2709TIP3   OH229617   4.086   2.686  12.413 -0.6135  0.1787  0.2035
 2709TIP3    H129618   4.080   2.782  12.410 -0.4436  0.1888  0.1295
 2709TIP3    H229619   4.132   2.663  12.332 -0.4272  0.0546  0.3442
 2710TIP3   OH229620   2.911   2.203   6.122  0.1920  0.6536 -0.2386
 2710TIP3    H129621   2.967   2.147   6.069 -1.0152 -0.5510 -0.2741
 2710TIP3    H229622   2.868   2.261   6.059 -2.1713 -1.5783 -0.8176
 2711TIP3   OH229623   0.394   0.309  13.219  0.6728  0.3127 -0.5525
 2711TIP3    H129624   0.477   0.263  13.237  0.4080  0.3102  0.7699
 2711TIP3    H229625   0.329   0.239  13.213  0.6064  0.3834 -0.6690
 2712TIP3   OH229626   5.419   4.287  14.213 -0.0501 -0.2824  0.5211
 2712TIP3    H129627   5.497   4.335  14.187 -1.2662  1.2138 -0.5559
 2712TIP3    H229628   5.431   4.269  14.307  1.2249  0.5981  0.5459
 2713TIP3   OH229629   1.547   2.577  14.854  0.4207  0.0542 -0.8357
 2713TIP3    H129630   1.454   2.577  14.873  0.5187 -2.0112 -0.1034
 2713TIP3    H229631   1.587   2.614  14.933  0.2885 -0.4697 -0.5128
 2714TIP3   OH229632   6.362   1.816   4.450 -0.4805 -0.4393 -0.0040
 2714TIP3    H129633   6.380   1.813   4.356  2.0570  0.2567  0.3774
 2714TIP3    H229634   6.305   1.892   4.462  0.1310  0.1795 -0.8858
 2715TIP3   OH229635   2.691   3.572   1.883 -0.2031 -0.4839 -0.4122
 2715TIP3    H129636   2.735   3.489   1.894 -0.5974 -0.9195 -1.9020
 2715TIP3    H229637   2.758   3.631   1.849  0.2652  0.0433  1.3367
 2716TIP3   OH229638   1.870   5.346  16.743  0.0472  0.1185  0.7230
 2716TIP3    H129639   1.930   5.312  16.809  0.6360 -0.0154  0.1307
 2716TIP3    H229640   1.786   5.354  16.788  0.7019  1.1624  1.8185
 2717TIP3   OH229641   5.428   3.904   1.805  0.3124 -0.1257  0.3217
 2717TIP3    H129642   5.353   3.874   1.755  1.1632  1.3614 -2.0564
 2717TIP3    H229643   5.394   3.975   1.860  0.2041  2.2376 -2.5030
 2718TIP3   OH229644   6.616   4.984  12.646 -0.0535  0.0750 -0.1687
 2718TIP3    H129645   6.558   4.930  12.593 -0.5223 -0.0827  0.4864
 2718TIP3    H229646   6.667   4.921  12.698  1.3881  0.1699 -1.4020
 2719TIP3   OH229647   3.546   0.662  13.089  0.4777  0.1856 -0.0600
 2719TIP3    H129648   3.489   0.587  13.105 -1.1204  1.2414 -0.5544
 2719TIP3    H229649   3.500   0.712  13.022  0.4249  2.7257  1.7582
 2720TIP3   OH229650   2.064   3.314   1.333 -0.1102  0.1936  0.4582
 2720TIP3    H129651   2.152   3.321   1.370  0.0751  0.0069  0.0618
 2720TIP3    H229652   2.039   3.223   1.348 -0.8107  0.5808  1.8265
 2721TIP3   OH229653   0.366   3.854   6.541 -0.3300 -0.0723 -0.2752
 2721TIP3    H129654   0.396   3.816   6.623 -0.7060 -0.9349 -0.5268
 2721TIP3    H229655   0.446   3.870   6.491  0.3134  3.7958  1.5622
 2722TIP3   OH229656   6.172   5.835   1.675 -0.4924 -0.4042  0.0444
 2722TIP3    H129657   6.127   5.788   1.605 -1.1021  0.3963 -0.1160
 2722TIP3    H229658   6.220   5.767   1.722  0.1056 -0.9292 -1.2686
 2723TIP3   OH229659   1.983   5.558   2.754  0.1946  0.3384  0.2078
 2723TIP3    H129660   2.025   5.520   2.831  1.9941  1.1500 -0.3165
 2723TIP3    H229661   2.039   5.532   2.680  0.6930  2.6728 -0.3429
 2724TIP3   OH229662   3.244   5.429   2.835 -0.3931 -0.0680 -0.3454
 2724TIP3    H129663   3.228   5.337   2.854 -1.1476  0.1683  0.2599
 2724TIP3    H229664   3.246   5.435   2.740  1.1609 -0.9361 -0.4056
 2725TIP3   OH229665   1.123   4.879   0.961  0.1446 -0.2109  0.5421
 2725TIP3    H129666   1.179   4.807   0.990  0.2690 -0.4117 -0.1762
 2725TIP3    H229667   1.063   4.893   1.034  2.4032  1.4052  2.2050
 2726TIP3   OH229668   3.966   5.640   6.438  0.1502  0.2328 -0.1293
 2726TIP3    H129669   4.059   5.657   6.454 -0.1323  0.3999  1.4802
 2726TIP3    H229670   3.926   5.727   6.434  0.2343  0.2146 -2.1484
 2727TIP3   OH229671   5.771   2.989  16.602 -0.1136  0.1748  0.2481
 2727TIP3    H129672   5.749   3.082  16.606 -0.0395  0.1996  0.1192
 2727TIP3    H229673   5.688   2.944  16.617 -0.0800  0.2591  0.6905
 2728TIP3   OH229674   4.813   0.140   2.198  0.0735  0.4918  0.6227
 2728TIP3    H129675   4.905   0.116   2.207  0.7142  1.7720 -1.6719
 2728TIP3    H229676   4.768   0.057   2.188  0.6999 -0.2641  3.1579
 2729TIP3   OH229677   6.093   0.257   4.381  0.2782  1.1848 -0.2631
 2729TIP3    H129678   6.116   0.165   4.374 -1.6982  0.2519  3.1940
 2729TIP3    H229679   6.157   0.293   4.442  0.6007  1.9918 -1.0421
 2730TIP3   OH229680   2.741   2.380   3.913 -0.0757 -0.0173  0.0069
 2730TIP3    H129681   2.687   2.434   3.856  0.2330 -0.5351 -0.7937
 2730TIP3    H229682   2.800   2.441   3.956 -2.3374  0.7947  2.1688
 2731TIP3   OH229683   4.603   4.867  11.306 -0.1319 -0.2356  0.0009
 2731TIP3    H129684   4.650   4.909  11.233  0.7658 -0.9952  0.1260
 2731TIP3    H229685   4.665   4.872  11.379 -1.5019  1.7043  1.1239
 2732TIP3   OH229686   6.153   5.686   1.403  0.4367 -0.6306  0.8392
 2732TIP3    H129687   6.189   5.627   1.469 -0.2584 -1.0481  0.8578
 2732TIP3    H229688   6.224   5.699   1.341  0.9745 -0.5487  1.4545
 2733TIP3   OH229689   5.523   2.034   0.808 -0.3886 -0.2259 -0.1712
 2733TIP3    H129690   5.522   1.999   0.719 -0.0197  2.2592 -1.2248
 2733TIP3    H229691   5.432   2.061   0.824 -0.4107 -0.4779  0.1389
 2734TIP3   OH229692   5.306   1.675  10.655  0.2939  0.7264 -0.5478
 2734TIP3    H129693   5.279   1.760  10.691 -0.6001  0.0298  0.4817
 2734TIP3    H229694   5.389   1.656  10.699  0.7446  1.2817 -1.1435
 2735TIP3   OH229695   0.112   1.619  14.542 -0.2730  0.0892  0.2642
 2735TIP3    H129696   0.178   1.549  14.543 -1.7253 -1.3810 -0.2705
 2735TIP3    H229697   0.043   1.587  14.600 -0.7895  1.2851  0.3333
 2736TIP3   OH229698   5.612   4.260   2.385 -0.1203  0.2162  0.1209
 2736TIP3    H129699   5.558   4.245   2.462  0.1817 -0.3952  0.2193
 2736TIP3    H229700   5.552   4.293   2.319 -0.5299 -0.0374  0.3665
 2737TIP3   OH229701   5.199   5.098   6.180  0.5292  0.4251  0.5341
 2737TIP3    H129702   5.240   5.016   6.154  0.0996 -0.0827  1.3787
 2737TIP3    H229703   5.252   5.130   6.253  1.5360  1.6584 -0.6939
 2738TIP3   OH229704   0.422   4.190  12.975  0.2734 -0.3611 -0.0284
 2738TIP3    H129705   0.336   4.166  13.008  1.1897  0.7394  3.6436
 2738TIP3    H229706   0.469   4.107  12.966 -0.2900 -0.7749  0.7552
 2739TIP3   OH229707   1.365   1.377   2.566  0.0448 -0.1572 -0.1504
 2739TIP3    H129708   1.280   1.416   2.588  0.8664  0.5988  1.9995
 2739TIP3    H229709   1.407   1.362   2.651  2.7652  1.0799 -1.1540
 2740TIP3   OH229710   6.135   1.275   2.658  0.1900 -0.2718 -0.0821
 2740TIP3    H129711   6.114   1.353   2.709 -1.7827 -0.7467 -0.1080
 2740TIP3    H229712   6.099   1.292   2.571 -0.8331 -1.4489  0.0923
 2741TIP3   OH229713   2.824   5.297  11.539 -0.1653  0.0091  0.3974
 2741TIP3    H129714   2.750   5.255  11.497  0.6455 -1.2985  0.2389
 2741TIP3    H229715   2.785   5.360  11.600 -1.3771  1.5507 -1.8258
 2742TIP3   OH229716   2.945   3.317   3.829  0.0385  0.4739  0.6479
 2742TIP3    H129717   2.885   3.383   3.793 -0.0768  0.2686  0.4584
 2742TIP3    H229718   3.016   3.367   3.868 -0.1378  0.7146  0.6600
 2743TIP3   OH229719   6.389   2.080  11.214  0.2014  0.8204  0.0079
 2743TIP3    H129720   6.448   2.075  11.139  2.0300 -1.2039  1.4293
 2743TIP3    H229721   6.443   2.115  11.285  0.3795 -2.5970  1.7797
 2744TIP3   OH229722   1.738   0.763  14.071 -0.0112  0.0096  0.2706
 2744TIP3    H129723   1.768   0.725  13.988 -2.4171 -0.4235 -0.4825
 2744TIP3    H229724   1.670   0.826  14.045 -0.3371  0.3640  1.8780
 2745TIP3   OH229725   6.215   2.620  15.039  0.1886  0.6576  0.1115
 2745TIP3    H129726   6.134   2.578  15.069  0.7020 -0.5708 -0.1976
 2745TIP3    H229727   6.279   2.601  15.107 -0.0517  2.7000  0.9858
 2746TIP3   OH229728   5.393   3.456   0.575  0.2619 -0.1402  0.3122
 2746TIP3    H129729   5.379   3.461   0.669  2.5170 -0.7294  0.7388
 2746TIP3    H229730   5.487   3.473   0.563  0.2919 -1.3284 -1.6957
 2747TIP3   OH229731   1.519   3.084   0.595 -0.0572  0.0636 -0.0631
 2747TIP3    H129732   1.525   3.040   0.510  0.7560 -1.4460  0.7356
 2747TIP3    H229733   1.427   3.079   0.618  0.0635 -1.5136  0.1409
 2748TIP3   OH229734   0.858   3.552   3.711 -0.1988  0.2394  0.4412
 2748TIP3    H129735   0.839   3.551   3.804 -0.3811  2.4953  0.4917
 2748TIP3    H229736   0.772   3.560   3.669 -0.0128  1.1407  0.2052
 2749TIP3   OH229737   5.136   5.116   0.697  0.6079  0.3718 -0.3281
 2749TIP3    H129738   5.203   5.124   0.765 -1.0838 -0.2415  1.5176
 2749TIP3    H229739   5.060   5.079   0.743 -1.3975  2.0947 -2.0299
 2750TIP3   OH229740   2.619   6.051  16.221 -0.6542  0.4557  0.1012
 2750TIP3    H129741   2.635   5.964  16.184 -2.4416  0.0386  0.1864
 2750TIP3    H229742   2.689   6.063  16.285  0.0530 -0.6009 -0.4382
 2751TIP3   OH229743   3.224   6.823  12.373 -0.3245 -0.1184  0.8594
 2751TIP3    H129744   3.249   6.766  12.446  1.3942 -0.4684  0.0355
 2751TIP3    H229745   3.255   6.777  12.295 -0.6317  1.0479  0.0308
 2752TIP3   OH229746   3.702   4.152  16.537 -0.2058  0.1574  0.3109
 2752TIP3    H129747   3.763   4.221  16.510 -0.9839  0.7278  0.0007
 2752TIP3    H229748   3.667   4.117  16.455 -0.7033  0.1997  0.5027
 2753TIP3   OH229749   2.340   3.796   6.055  0.1652  0.7175 -0.2168
 2753TIP3    H129750   2.369   3.724   5.998  1.8256  0.9079  0.3470
 2753TIP3    H229751   2.341   3.758   6.143  0.3523  1.2440  0.0048
 2754TIP3   OH229752   2.345   2.955   0.435 -0.2646  0.1650 -0.1348
 2754TIP3    H129753   2.440   2.968   0.442 -0.2697 -0.6643  2.0130
 2754TIP3    H229754   2.308   3.034   0.475 -0.4701  0.0675 -0.1362
 2755TIP3   OH229755   3.408   5.379   1.566 -0.3600 -0.3052 -0.1142
 2755TIP3    H129756   3.418   5.395   1.660  0.1439 -2.1214  0.1794
 2755TIP3    H229757   3.443   5.457   1.524 -0.7230  0.5940  1.1959
 2756TIP3   OH229758   5.346   1.502  15.244 -0.2022  0.0289 -0.0280
 2756TIP3    H129759   5.319   1.570  15.306  0.6758  0.6705 -0.3367
 2756TIP3    H229760   5.320   1.420  15.286  1.4708  0.3615  1.7826
 2757TIP3   OH229761   3.358   5.423  12.865 -0.2394  0.2353  0.0173
 2757TIP3    H129762   3.292   5.462  12.807  0.6078  0.4370 -0.8307
 2757TIP3    H229763   3.328   5.333  12.878  0.3153 -0.2730 -1.9402
 2758TIP3   OH229764   3.207   3.315  11.966 -0.3397  0.0789  0.1733
 2758TIP3    H129765   3.205   3.221  11.947 -1.5933  0.1717 -0.2733
 2758TIP3    H229766   3.286   3.327  12.019 -2.2197 -1.9091  3.8146
 2759TIP3   OH229767   0.931   1.116   1.954 -0.5759  0.1212 -0.1216
 2759TIP3    H129768   0.872   1.144   1.884 -1.1445  1.1719  0.7394
 2759TIP3    H229769   0.996   1.185   1.959  1.3845 -1.5050 -1.7301
 2760TIP3   OH229770   5.036   0.498   5.620  0.0743 -0.3803 -0.4586
 2760TIP3    H129771   5.021   0.404   5.633  0.8606 -0.3636  0.7340
 2760TIP3    H229772   5.122   0.503   5.579  0.4727 -0.1597  0.3767
 2761TIP3   OH229773   3.930   3.642   5.079 -0.2524 -0.5379 -0.3247
 2761TIP3    H129774   3.899   3.682   5.160  1.7042  3.1070 -1.1673
 2761TIP3    H229775   3.973   3.561   5.107  1.4132  1.1639  2.5232
 2762TIP3   OH229776   4.871   1.968   2.263 -0.1285  0.2362  0.1056
 2762TIP3    H129777   4.921   2.038   2.221 -0.8729 -0.0762 -1.3464
 2762TIP3    H229778   4.812   1.935   2.195 -0.7987 -0.8552  1.1610
 2763TIP3   OH229779   3.292   4.346  12.826  0.6246  0.2149 -0.4183
 2763TIP3    H129780   3.311   4.426  12.874 -0.2270 -0.3867  0.9982
 2763TIP3    H229781   3.378   4.307  12.809  1.0002  1.0451 -0.4639
 2764TIP3   OH229782   6.638   4.141   3.875 -0.1650  0.2180  0.1744
 2764TIP3    H129783   6.664   4.105   3.960  0.5394  1.0909  0.3380
 2764TIP3    H229784   6.706   4.111   3.815  0.2606  0.9966  0.2539
 2765TIP3   OH229785   0.085   4.705  11.472 -0.4592  0.3467 -0.1987
 2765TIP3    H129786   0.026   4.705  11.547 -1.6708  2.7386 -1.0365
 2765TIP3    H229787   0.171   4.724  11.509 -0.7558 -0.0412  0.7231
 2766TIP3   OH229788   4.569   0.449  14.157  0.1027  0.1069 -0.3134
 2766TIP3    H129789   4.540   0.416  14.242  2.3940 -0.6065  0.2507
 2766TIP3    H229790   4.608   0.534  14.176  0.4174  0.0478 -0.6897
 2767TIP3   OH229791   0.313   1.128  11.469 -0.0401 -0.2485  0.0990
 2767TIP3    H129792   0.325   1.072  11.393 -0.3350 -3.0398  1.9420
 2767TIP3    H229793   0.395   1.120  11.518  0.3665  1.9538 -0.1379
 2768TIP3   OH229794   0.565   2.755  12.840 -0.3514  0.5610 -0.5529
 2768TIP3    H129795   0.650   2.791  12.864  0.5191 -0.4583 -1.9654
 2768TIP3    H229796   0.529   2.724  12.923  1.7425 -1.1674 -0.1947
 2769TIP3   OH229797   2.184   5.474  15.161  0.0602 -0.3517 -0.9660
 2769TIP3    H129798   2.273   5.439  15.151  1.2893  2.1553  0.3620
 2769TIP3    H229799   2.131   5.398  15.184  2.4810 -1.4762  1.4329
 2770TIP3   OH229800   2.664   3.068   3.057  0.0736 -0.1245 -0.3484
 2770TIP3    H129801   2.744   3.048   3.009 -2.2163 -2.2880 -3.6843
 2770TIP3    H229802   2.644   3.159   3.033  0.5093 -0.2178 -1.0857
 2771TIP3   OH229803   4.166   2.740   0.998  0.2747 -0.2739  0.4078
 2771TIP3    H129804   4.124   2.804   0.940 -1.7570 -0.4145  1.6250
 2771TIP3    H229805   4.195   2.791   1.073  1.2203 -0.3857  0.1363
 2772TIP3   OH229806   4.965   1.736   0.639  0.0027  0.3841 -0.1399
 2772TIP3    H129807   5.018   1.661   0.665 -1.2645 -0.7925 -0.8129
 2772TIP3    H229808   5.012   1.812   0.673  1.1267 -0.7320  0.8870
 2773TIP3   OH229809   3.044   2.362   3.323  0.6669  0.2435  0.1058
 2773TIP3    H129810   3.072   2.428   3.386  0.6913 -0.1036  0.4604
 2773TIP3    H229811   3.052   2.279   3.370 -1.1243  0.1396  0.2747
 2774TIP3   OH229812   0.787   0.550   6.600 -0.3804  0.2589  0.2225
 2774TIP3    H129813   0.871   0.564   6.644 -0.3394 -1.5139  0.7937
 2774TIP3    H229814   0.725   0.531   6.671 -1.6313  2.7908 -0.0557
 2775TIP3   OH229815   3.983   1.435   1.492  0.0354 -0.1572  0.2468
 2775TIP3    H129816   4.023   1.506   1.442 -0.7174 -0.3115 -0.5949
 2775TIP3    H229817   3.889   1.445   1.476 -0.0598 -1.5815 -0.2079
 2776TIP3   OH229818   0.310   6.319  12.020  0.0920  0.1597  0.0690
 2776TIP3    H129819   0.291   6.412  12.033 -0.6498  0.0987 -0.4699
 2776TIP3    H229820   0.267   6.275  12.094  1.8026  0.3515  1.2306
 2777TIP3   OH229821   4.706   4.950   1.655 -0.0515 -0.0216 -0.2272
 2777TIP3    H129822   4.766   4.975   1.726  0.8545  0.3776 -1.1115
 2777TIP3    H229823   4.685   4.859   1.674  0.1363  0.0911  0.5853
 2778TIP3   OH229824   1.402   3.102   1.510 -0.6505  0.1272  0.1322
 2778TIP3    H129825   1.410   3.197   1.500 -2.0804  0.2320 -0.2127
 2778TIP3    H229826   1.412   3.087   1.604  1.6918  0.3616 -0.0243
 2779TIP3   OH229827   3.269   1.005  13.591 -0.6490  0.6326 -0.3302
 2779TIP3    H129828   3.179   0.983  13.613 -0.9457  1.6093 -0.5272
 2779TIP3    H229829   3.322   0.941  13.639 -1.3344  1.5630  1.7852
 2780TIP3   OH229830   2.740   2.179  13.258 -0.4706 -0.2929  0.1403
 2780TIP3    H129831   2.800   2.223  13.318 -1.4564  0.2628  0.7473
 2780TIP3    H229832   2.667   2.151  13.313 -1.1544 -0.2274 -0.7094
 2781TIP3   OH229833   2.589   1.252  10.778  0.0927 -0.0798  0.7448
 2781TIP3    H129834   2.617   1.189  10.711  0.3807 -0.0034  0.7957
 2781TIP3    H229835   2.534   1.315  10.730  1.5184  0.8490  0.2733
 2782TIP3   OH229836   5.444   2.234   1.289 -0.3315  0.4639 -0.3363
 2782TIP3    H129837   5.484   2.163   1.238  0.8496  0.2587  0.8067
 2782TIP3    H229838   5.516   2.296   1.303 -1.0850  1.3692 -0.4176
 2783TIP3   OH229839   3.643   2.416  15.626  0.3950  0.1221 -0.7842
 2783TIP3    H129840   3.597   2.401  15.543 -1.2743 -0.1588  0.1536
 2783TIP3    H229841   3.735   2.425  15.601  0.3030 -2.5103 -2.3902
 2784TIP3   OH229842   5.730   0.449  10.685 -0.3779  0.3961  0.0519
 2784TIP3    H129843   5.773   0.391  10.622 -0.9626 -0.7327  0.6558
 2784TIP3    H229844   5.761   0.536  10.662 -1.3774  0.1674 -2.5042
 2785TIP3   OH229845   6.655   5.214   4.228 -0.6212 -0.3846 -0.1098
 2785TIP3    H129846   6.614   5.276   4.288  1.8200 -0.1574  1.4448
 2785TIP3    H229847   6.688   5.145   4.284 -0.7844 -1.6869 -1.5419
 2786TIP3   OH229848   5.743   6.555   6.204 -0.1665 -0.2884  0.1210
 2786TIP3    H129849   5.800   6.632   6.212  0.0864 -0.3487 -0.9380
 2786TIP3    H229850   5.654   6.590   6.214  0.0240 -0.1334  1.3844
 2787TIP3   OH229851   0.406   1.760  12.613 -0.2185  0.5508  0.2889
 2787TIP3    H129852   0.442   1.847  12.598 -1.5284  0.9929 -0.4268
 2787TIP3    H229853   0.477   1.700  12.590  0.1577  1.4009 -0.8633
 2788TIP3   OH229854   4.994   2.489   2.788 -0.4510 -0.1993 -0.8389
 2788TIP3    H129855   4.916   2.500   2.841  0.5758 -1.5076  1.0784
 2788TIP3    H229856   4.964   2.441   2.710 -1.8511  1.0675 -1.1136
 2789TIP3   OH229857   6.610   0.227  12.830  0.3349  0.5292  0.5645
 2789TIP3    H129858   6.515   0.229  12.839  0.2292 -0.4882 -0.1478
 2789TIP3    H229859   6.638   0.317  12.848 -0.7209  0.7585  1.1232
 2790TIP3   OH229860   1.584   3.050  11.651  0.0675  0.3689  0.2378
 2790TIP3    H129861   1.518   3.118  11.637 -0.0030  0.6838  1.8822
 2790TIP3    H229862   1.535   2.974  11.682  0.0390 -0.7957 -2.3957
 2791TIP3   OH229863   6.723   4.489  15.439  0.3077 -0.6300  0.2462
 2791TIP3    H129864   6.780   4.556  15.401  2.1558 -2.8323 -1.1264
 2791TIP3    H229865   6.776   4.449  15.509 -1.2482  0.1199  1.9391
 2792TIP3   OH229866   5.151   6.416   0.013  0.1199  0.3236 -0.0517
 2792TIP3    H129867   5.127   6.360   0.087 -0.7333 -1.6181 -1.6781
 2792TIP3    H229868   5.246   6.408   0.006  0.1659  0.2612  0.6395
 2793TIP3   OH229869   2.954   5.474  10.677  0.1642  0.0423 -0.6216
 2793TIP3    H129870   2.980   5.552  10.727  1.1199 -0.8481  0.3015
 2793TIP3    H229871   2.874   5.444  10.720 -0.7594  1.0298 -1.5746
 2794TIP3   OH229872   0.033   6.104   2.441 -0.2852 -0.1350 -0.0674
 2794TIP3    H129873   0.119   6.126   2.404  0.2146  0.2853  1.2904
 2794TIP3    H229874   0.045   6.016   2.476 -0.4606 -0.1439 -0.0334
 2795TIP3   OH229875   4.387   2.802   3.639  0.2072 -0.3692 -0.4875
 2795TIP3    H129876   4.378   2.841   3.726 -3.0943 -3.9811  1.0409
 2795TIP3    H229877   4.447   2.729   3.651  0.8494 -0.0765 -1.6803
 2796TIP3   OH229878   0.078   5.301   4.037 -0.4802  0.0056 -0.2198
 2796TIP3    H129879  -0.000   5.274   4.085 -1.6189  0.0302 -1.9670
 2796TIP3    H229880   0.127   5.354   4.100 -1.2396 -1.0220  1.3103
 2797TIP3   OH229881   6.198   5.196  14.630  0.1136  0.0424  0.1986
 2797TIP3    H129882   6.241   5.119  14.667  0.0604 -0.2372 -0.3102
 2797TIP3    H229883   6.246   5.270  14.666  0.8762 -0.2616 -0.1885
 2798TIP3   OH229884   4.968   6.200  12.584  0.0134  0.1443 -0.0629
 2798TIP3    H129885   4.897   6.197  12.647  2.5650  0.3796  3.0670
 2798TIP3    H229886   4.966   6.289  12.549  1.2083  1.6308  3.2430
 2799TIP3   OH229887   3.785   3.881   0.720 -0.2107  0.1705  0.0683
 2799TIP3    H129888   3.870   3.923   0.713  0.0010  0.3441  2.7102
 2799TIP3    H229889   3.722   3.952   0.706  0.0881  0.3703 -0.2743
 2800TIP3   OH229890   5.141   5.249  11.101  0.2090 -0.3147 -0.1608
 2800TIP3    H129891   5.071   5.199  11.143 -0.8677 -0.3441 -1.9032
 2800TIP3    H229892   5.183   5.296  11.173 -0.2888 -1.8653  1.1976
 2801TIP3   OH229893   1.072   2.144  13.258  0.1100  0.3886 -0.3876
 2801TIP3    H129894   1.121   2.211  13.211  0.8086 -1.0882 -1.8525
 2801TIP3    H229895   1.076   2.172  13.350  1.8156  1.4688 -0.7408
 2802TIP3   OH229896   0.330   0.226  14.344 -0.2502 -0.2592 -0.5121
 2802TIP3    H129897   0.338   0.276  14.263  0.6700 -0.2389 -0.4213
 2802TIP3    H229898   0.299   0.289  14.408 -0.6661 -0.1960 -0.7721
 2803TIP3   OH229899   3.408   1.244  13.174  0.6455  0.1573  0.7385
 2803TIP3    H129900   3.366   1.171  13.219  0.0475  0.1060  0.1007
 2803TIP3    H229901   3.382   1.321  13.225 -2.8035  0.5540 -1.2581
 2804TIP3   OH229902   2.145   6.600   3.157 -0.0764 -0.1513  0.0155
 2804TIP3    H129903   2.207   6.559   3.217  1.3826  0.2331 -1.1739
 2804TIP3    H229904   2.166   6.563   3.072 -1.7652 -0.3016 -0.3742
 2805TIP3   OH229905   3.001   3.751  13.331  0.1946  0.5634  0.2559
 2805TIP3    H129906   3.094   3.746  13.349 -0.0012  1.2914  1.5688
 2805TIP3    H229907   2.996   3.772  13.237  1.2864 -1.0409 -0.1932
 2806TIP3   OH229908   3.203   6.451   1.550 -0.3195 -0.1969  0.5398
 2806TIP3    H129909   3.290   6.419   1.574  0.2250  0.2215 -0.8138
 2806TIP3    H229910   3.189   6.420   1.460 -1.0258  0.8372  0.2740
 2807TIP3   OH229911   3.108   3.195   0.836  0.0877  0.4607 -0.3644
 2807TIP3    H129912   3.117   3.291   0.835 -1.5840  0.6850 -2.4254
 2807TIP3    H229913   3.014   3.181   0.853  0.5461 -0.8904  1.2598
 2808TIP3   OH229914   1.740   2.595  14.637  0.2389  0.3821 -1.0479
 2808TIP3    H129915   1.677   2.579  14.708  0.6923 -0.1918 -0.7734
 2808TIP3    H229916   1.747   2.511  14.592  1.4927  0.1815 -0.5164
 2809TIP3   OH229917   5.497   2.292   6.135  0.1632  0.2798  0.4434
 2809TIP3    H129918   5.525   2.309   6.225  1.8041  2.1239 -0.3386
 2809TIP3    H229919   5.437   2.364   6.115 -1.0482 -0.7190  0.3676
 2810TIP3   OH229920   1.103   3.497   5.788 -0.0901  0.3335 -0.9223
 2810TIP3    H129921   1.011   3.474   5.775 -0.3329  0.9397 -0.3647
 2810TIP3    H229922   1.110   3.513   5.882  0.1691  1.9501 -1.1793
 2811TIP3   OH229923   2.924   4.934  15.226 -0.3174  0.3985 -0.1452
 2811TIP3    H129924   2.910   5.025  15.198  1.4888  0.9712  0.6657
 2811TIP3    H229925   2.984   4.898  15.161 -0.9585 -0.2294 -0.4142
 2812TIP3   OH229926   4.923   1.324  13.901 -0.5917 -0.2659  0.2869
 2812TIP3    H129927   4.921   1.418  13.921  0.1303 -0.3748  0.9211
 2812TIP3    H229928   4.999   1.313  13.845 -0.8556 -0.4351 -0.0460
 2813TIP3   OH229929   5.551   1.257  15.115 -0.3917 -0.0714 -0.2441
 2813TIP3    H129930   5.481   1.281  15.055 -1.1607 -0.7732  0.3590
 2813TIP3    H229931   5.528   1.169  15.145 -1.0883  0.9809  2.5887
 2814TIP3   OH229932   0.947   2.085   6.412 -0.4077  0.0925  0.1454
 2814TIP3    H129933   1.028   2.064   6.367 -0.3876  0.6218 -0.0813
 2814TIP3    H229934   0.878   2.058   6.352 -0.3868  0.2860  0.0322
 2815TIP3   OH229935   5.241   1.736   0.944  0.0072  0.2835  0.3245
 2815TIP3    H129936   5.178   1.802   0.974  0.4722  0.9085 -0.0316
 2815TIP3    H229937   5.201   1.699   0.865 -1.0951 -1.1761  1.5182
 2816TIP3   OH229938   0.245   2.533  13.948 -0.1864 -0.5895 -0.5605
 2816TIP3    H129939   0.254   2.576  13.863 -0.0623 -2.1495 -1.3661
 2816TIP3    H229940   0.162   2.566  13.983  0.2886  0.9032 -0.7564
 2817TIP3   OH229941   5.677   3.297   3.589  0.0920  0.3781 -0.2810
 2817TIP3    H129942   5.740   3.252   3.645 -1.2446  0.3124  1.2313
 2817TIP3    H229943   5.656   3.234   3.521  0.2882 -0.2812  0.2561
 2818TIP3   OH229944   0.793   3.838  14.750  0.5115  0.3274 -0.1952
 2818TIP3    H129945   0.838   3.754  14.764 -0.0579  0.3692  2.4493
 2818TIP3    H229946   0.752   3.857  14.834 -2.1936  1.6359 -1.6840
 2819TIP3   OH229947   3.224   4.868   5.561  0.1524 -0.4105  0.1868
 2819TIP3    H129948   3.253   4.947   5.605 -2.1341  0.0344  1.0195
 2819TIP3    H229949   3.235   4.799   5.626 -0.6989 -0.2199  0.5475
 2820TIP3   OH229950   1.377   1.355  14.758 -0.1575 -0.1941 -0.3827
 2820TIP3    H129951   1.325   1.429  14.788  0.2735 -0.5832  1.4418
 2820TIP3    H229952   1.339   1.279  14.802 -1.9473 -1.5068 -3.8033
 2821TIP3   OH229953   3.887   6.588  13.384  0.0329 -0.1964 -0.0801
 2821TIP3    H129954   3.836   6.586  13.465 -1.5232 -1.0326 -1.0341
 2821TIP3    H229955   3.959   6.649  13.403 -0.2305 -0.4358  1.9420
 2822TIP3   OH229956   4.139   5.584  17.062 -0.0013 -0.3381 -0.0928
 2822TIP3    H129957   4.090   5.592  16.980 -0.1678  1.3430  0.1248
 2822TIP3    H229958   4.180   5.671  17.073 -0.5159 -0.3160  1.9331
 2823TIP3   OH229959   6.019   0.035  14.398 -0.5321 -0.1628  0.0565
 2823TIP3    H129960   6.085   0.051  14.331 -0.4958 -2.5927 -0.5486
 2823TIP3    H229961   5.938   0.068  14.359 -0.1036  0.6989 -0.1415
 2824TIP3   OH229962   1.502   2.524   2.555 -0.3965 -0.1823 -0.0218
 2824TIP3    H129963   1.539   2.436   2.561  0.7192  0.1775 -1.2512
 2824TIP3    H229964   1.493   2.552   2.646  0.9275 -0.8883  0.3505
 2825TIP3   OH229965   3.220   5.587   6.581  0.3560 -0.4985  0.3953
 2825TIP3    H129966   3.157   5.655   6.604  2.3594  2.3396 -1.7717
 2825TIP3    H229967   3.271   5.624   6.509  1.8536 -4.2270 -0.7491
 2826TIP3   OH229968   6.595   4.063   4.450  0.0144  0.0434  0.2993
 2826TIP3    H129969   6.655   4.062   4.375 -2.3091 -0.4686 -1.6594
 2826TIP3    H229970   6.535   4.135   4.433 -1.1061 -0.6356  1.2041
 2827TIP3   OH229971   6.729   4.259   1.159 -0.5917 -0.7004 -0.0520
 2827TIP3    H129972   6.799   4.324   1.153 -0.9257 -0.4145 -1.3682
 2827TIP3    H229973   6.654   4.301   1.116 -1.8192 -0.7094  1.9560
 2828TIP3   OH229974   4.890   6.004   3.548 -0.5190  0.3991 -0.7739
 2828TIP3    H129975   4.855   5.941   3.486 -0.8334 -0.5107  0.2961
 2828TIP3    H229976   4.980   5.975   3.563 -0.4179  0.6648 -0.8633
 2829TIP3   OH229977   0.100   0.077   5.821 -0.0124 -0.0519  0.2133
 2829TIP3    H129978   0.149   0.068   5.902  0.8727 -2.3698 -0.5053
 2829TIP3    H229979   0.157   0.129   5.764  0.9798 -1.4513 -0.1048
 2830TIP3   OH229980   4.434   1.487   0.360  0.0732 -0.0231 -0.7529
 2830TIP3    H129981   4.512   1.440   0.329  1.8136  1.7467  0.6968
 2830TIP3    H229982   4.467   1.547   0.427 -2.3167  1.9082 -1.1687
 2831TIP3   OH229983   5.092   4.716   1.499 -0.0787 -0.3484  0.4421
 2831TIP3    H129984   5.037   4.789   1.527 -0.2688 -0.6490  0.8724
 2831TIP3    H229985   5.124   4.741   1.413  0.1773  0.4147  0.7541
 2832TIP3   OH229986   1.028   5.149   5.269  0.0228  0.4711 -0.3905
 2832TIP3    H129987   0.985   5.146   5.355  0.5211 -0.4392 -0.1601
 2832TIP3    H229988   0.957   5.135   5.206 -0.0865 -0.6516 -0.0317
 2833TIP3   OH229989   0.741   1.892  15.913 -1.2025 -0.3407  0.0993
 2833TIP3    H129990   0.835   1.887  15.896 -0.8479  1.3869  1.1811
 2833TIP3    H229991   0.699   1.852  15.837  0.3849  0.0969 -1.0393
 2834TIP3   OH229992   5.017   4.906   3.748  0.2979 -0.0406 -0.2132
 2834TIP3    H129993   5.008   4.859   3.831  0.3496  2.9391  1.6140
 2834TIP3    H229994   5.097   4.870   3.709  0.8301 -0.8449  1.5178
 2835TIP3   OH229995   0.936   2.931   0.731 -0.0897 -0.0893  0.2469
 2835TIP3    H129996   0.978   3.011   0.764  1.2261 -1.3392  1.7785
 2835TIP3    H229997   0.842   2.945   0.747  0.2156  0.7527  1.4508
 2836TIP3   OH229998   4.707   3.440   2.766 -0.1281  0.1193  0.1157
 2836TIP3    H129999   4.707   3.381   2.690  0.6622 -0.3537  0.4760
 2836TIP3    H230000   4.789   3.489   2.759 -0.8894  1.3945 -0.3238
 2837TIP3   OH230001   5.424   4.693  15.873 -0.3276 -0.4384  0.1589
 2837TIP3    H130002   5.399   4.703  15.965  0.2872 -2.4581  0.5918
 2837TIP3    H230003   5.520   4.698  15.874 -0.3628  2.2978 -0.8101
 2838TIP3   OH230004   0.561   2.879  12.332  0.0790  0.7770  0.0981
 2838TIP3    H130005   0.641   2.875  12.384  0.9368  0.9883 -1.1594
 2838TIP3    H230006   0.516   2.797  12.350 -0.3484  1.4253  2.2285
 2839TIP3   OH230007   0.884   1.150  16.431 -0.5128  0.0222 -0.3419
 2839TIP3    H130008   0.833   1.172  16.508  0.3940 -0.3423  0.3841
 2839TIP3    H230009   0.822   1.105  16.373 -0.7919 -1.3305  0.9487
 2840TIP3   OH230010   1.803   3.308   4.394  0.0173 -0.8250 -0.5819
 2840TIP3    H130011   1.822   3.384   4.449  1.1182 -1.9145  0.6074
 2840TIP3    H230012   1.722   3.332   4.348  0.0414  0.8415  0.1575
 2841TIP3   OH230013   0.533   0.313   5.786  0.1569  0.1398 -0.3917
 2841TIP3    H130014   0.502   0.265   5.709  1.2816 -0.1045 -0.7201
 2841TIP3    H230015   0.606   0.366   5.753  0.6153  0.0827  0.4877
 2842TIP3   OH230016   5.984   0.866   0.453  0.3094 -0.1990 -0.1556
 2842TIP3    H130017   5.889   0.870   0.457  0.3797  0.8277  3.0666
 2842TIP3    H230018   6.014   0.915   0.530  3.4278 -1.2006 -0.5723
 2843TIP3   OH230019   3.718   2.253  12.465 -0.1919  0.0129  0.3797
 2843TIP3    H130020   3.796   2.198  12.460 -1.0046 -1.1217 -0.0812
 2843TIP3    H230021   3.645   2.192  12.473 -1.0351  1.0635  0.9701
 2844TIP3   OH230022   3.471   4.079   0.971  0.0584 -0.3629 -0.2096
 2844TIP3    H130023   3.391   4.081   1.024 -0.7655 -0.7146 -1.3975
 2844TIP3    H230024   3.497   3.987   0.972  0.9340 -0.1300  0.8308
 2845TIP3   OH230025   6.532   5.843   5.560 -0.5243  0.3697  0.1964
 2845TIP3    H130026   6.568   5.885   5.482  0.5239  0.8695  0.9298
 2845TIP3    H230027   6.540   5.909   5.629  1.0203 -0.9171  1.3464
 2846TIP3   OH230028   1.359   5.651   0.485 -0.3122  0.8337 -0.4683
 2846TIP3    H130029   1.298   5.602   0.430  0.5277 -0.6907 -0.1233
 2846TIP3    H230030   1.399   5.584   0.541  1.5929  1.7788 -0.6292
 2847TIP3   OH230031   2.997   4.981  11.916  0.0737  0.0038  0.0571
 2847TIP3    H130032   3.032   5.055  11.867 -0.2333 -0.7947 -1.4318
 2847TIP3    H230033   3.039   4.987  12.001  0.0421  1.8931 -0.0104
 2848TIP3   OH230034   2.677   3.637  14.271 -0.1788  0.3050 -0.0782
 2848TIP3    H130035   2.765   3.655  14.237 -0.9194 -0.2564 -2.5447
 2848TIP3    H230036   2.627   3.715  14.249 -0.3595  0.5899  1.2525
 2849TIP3   OH230037   2.176   1.436  13.429 -0.1702  0.8489  0.3568
 2849TIP3    H130038   2.196   1.443  13.336  0.5578 -1.1684  0.3066
 2849TIP3    H230039   2.221   1.511  13.469 -1.7403  2.6167 -1.0270
 2850TIP3   OH230040   1.639   6.183  10.583  0.8699 -0.1699 -0.6030
 2850TIP3    H130041   1.627   6.205  10.491 -0.2306 -1.4017 -0.7877
 2850TIP3    H230042   1.613   6.263  10.630 -2.1867 -0.6197 -1.2820
 2851TIP3   OH230043   2.509   5.099   0.743 -0.3057 -0.5503  0.3621
 2851TIP3    H130044   2.417   5.126   0.744 -0.3670 -0.7617  1.0261
 2851TIP3    H230045   2.509   5.015   0.697 -0.2132  0.1940 -1.0634
 2852TIP3   OH230046   6.734   1.833   3.614  0.1656 -0.1115  0.0643
 2852TIP3    H130047   6.672   1.843   3.686  0.1944 -1.7573  0.3632
 2852TIP3    H230048   6.814   1.875   3.644 -0.1558  0.1531  0.5507
 2853TIP3   OH230049   3.436   2.650  16.964 -0.1226  0.5662 -0.3422
 2853TIP3    H130050   3.506   2.585  16.957 -0.3188  0.4942 -2.6325
 2853TIP3    H230051   3.356   2.598  16.972 -0.0204  0.6401  1.6221
 2854TIP3   OH230052   3.072   5.613  13.522  0.1578 -0.4047 -0.1994
 2854TIP3    H130053   3.149   5.570  13.487  0.7910  0.9370 -0.5374
 2854TIP3    H230054   3.106   5.678  13.584 -0.5548  1.1884 -1.3844
 2855TIP3   OH230055   2.986   0.221  17.009  0.3889 -0.4457  0.4895
 2855TIP3    H130056   3.068   0.261  16.982  0.5804 -0.1961  1.4313
 2855TIP3    H230057   2.931   0.295  17.035  0.0094 -0.6463  0.2731
 2856TIP3   OH230058   3.983   4.772   1.590  0.1248 -0.0283  0.4345
 2856TIP3    H130059   3.958   4.692   1.543  1.1724 -0.8230  1.1685
 2856TIP3    H230060   3.900   4.814   1.612 -0.4565 -1.0405  0.2446
 2857TIP3   OH230061   5.894   4.544  16.378  0.1325 -0.1383 -0.0009
 2857TIP3    H130062   5.936   4.486  16.314  0.6075 -0.1019  0.2708
 2857TIP3    H230063   5.957   4.549  16.450  0.7437  1.8201 -0.6116
 2858TIP3   OH230064   1.859   1.412  13.506  0.4650 -0.6714  0.3771
 2858TIP3    H130065   1.915   1.351  13.458  0.4050 -0.5182  0.1086
 2858TIP3    H230066   1.820   1.468  13.438  0.2266 -0.5778  0.5860
 2859TIP3   OH230067   0.675   4.626   1.369 -0.1927 -0.1744 -0.2096
 2859TIP3    H130068   0.598   4.617   1.425 -0.7680 -1.4997 -1.1466
 2859TIP3    H230069   0.664   4.557   1.303  1.9222 -0.5703 -0.2091
 2860TIP3   OH230070   0.481   2.927   1.749 -0.1881 -0.2002 -0.3589
 2860TIP3    H130071   0.537   2.913   1.826 -1.0126 -1.0705  0.1063
 2860TIP3    H230072   0.397   2.888   1.774 -1.3130  1.8898 -0.6838
 2861TIP3   OH230073   3.114   3.381  11.110  0.2921 -0.6041  1.1543
 2861TIP3    H130074   3.190   3.323  11.122  0.4276 -0.7280 -0.2196
 2861TIP3    H230075   3.150   3.459  11.068 -0.3925 -0.8185  0.1432
 2862TIP3   OH230076   1.241   2.904  14.140  0.2429 -0.2959  0.5442
 2862TIP3    H130077   1.284   2.841  14.197  1.7722 -0.8619 -1.1243
 2862TIP3    H230078   1.180   2.852  14.088  1.9173 -0.5987 -1.2363
 2863TIP3   OH230079   2.564   3.323   2.931 -0.6363 -0.5010  0.1716
 2863TIP3    H130080   2.473   3.298   2.913 -0.3305 -0.1060 -2.2399
 2863TIP3    H230081   2.560   3.416   2.952 -0.6872 -0.1381 -1.3269
 2864TIP3   OH230082   5.443   6.488  13.062  0.0701  0.2852  0.2053
 2864TIP3    H130083   5.385   6.563  13.053  0.1084  0.2408 -0.4618
 2864TIP3    H230084   5.493   6.486  12.981  3.0337  1.9975  1.8384
 2865TIP3   OH230085   0.352   2.011   1.974 -0.1164  0.1290  0.4075
 2865TIP3    H130086   0.368   2.014   1.880 -0.6254 -1.3431  0.2560
 2865TIP3    H230087   0.257   2.004   1.982 -0.1253  0.9311  1.0588
 2866TIP3   OH230088   5.504   2.055   2.050 -0.1409 -0.6060 -0.5161
 2866TIP3    H130089   5.515   2.096   2.136 -0.1496 -3.8023  1.1277
 2866TIP3    H230090   5.568   2.101   1.994  1.7129 -0.1055  1.8298
 2867TIP3   OH230091   3.767   4.824  14.706  0.2811  0.3130  0.0749
 2867TIP3    H130092   3.728   4.846  14.621  0.2677  0.2684  0.0687
 2867TIP3    H230093   3.842   4.768  14.684  0.7987  1.0023  0.0443
 2868TIP3   OH230094   5.303   1.942   5.626  0.1459 -0.1925  0.1603
 2868TIP3    H130095   5.316   1.981   5.539 -0.7976 -0.7867 -0.2649
 2868TIP3    H230096   5.355   1.861   5.623  1.1171  0.3949  0.6084
 2869TIP3   OH230097   6.537   6.125   5.739  0.3107  0.0944 -0.7564
 2869TIP3    H130098   6.523   6.047   5.793  1.6931 -0.2676 -0.8760
 2869TIP3    H230099   6.461   6.180   5.757  0.1871 -0.4968  0.7159
 2870TIP3   OH230100   0.612   5.538  13.233  0.3623 -0.6572  0.2256
 2870TIP3    H130101   0.585   5.447  13.219 -0.7942 -0.3384  0.3513
 2870TIP3    H230102   0.538   5.579  13.276 -0.1726  0.9795 -2.0592
 2871TIP3   OH230103   3.123   5.282   2.237  0.1106 -0.2638  0.2759
 2871TIP3    H130104   3.084   5.358   2.194  1.6223  1.0623  1.1086
 2871TIP3    H230105   3.185   5.247   2.173  1.5282  1.0195  0.8771
 2872TIP3   OH230106   5.750   4.461  12.377  0.1747 -0.6028  0.5934
 2872TIP3    H130107   5.800   4.380  12.390  2.6361  0.5436 -1.0505
 2872TIP3    H230108   5.755   4.506  12.461  1.4216 -0.8013  0.6421
 2873TIP3   OH230109   0.343   5.693  15.920 -0.0969  0.1782  0.2763
 2873TIP3    H130110   0.312   5.676  15.831  1.5114  1.6470 -0.6264
 2873TIP3    H230111   0.352   5.606  15.960 -0.2032 -0.5437 -1.2245
 2874TIP3   OH230112   2.026   3.823   2.323 -0.6175 -0.1159 -0.2254
 2874TIP3    H130113   2.037   3.750   2.384 -1.5004  0.0575  0.1710
 2874TIP3    H230114   1.989   3.894   2.377  0.1609  0.6011 -0.6151
 2875TIP3   OH230115   4.425   5.086  12.125 -0.3915 -0.2925  0.1674
 2875TIP3    H130116   4.487   5.061  12.056  0.2378 -0.7266  0.8778
 2875TIP3    H230117   4.348   5.032  12.108 -1.5182  1.7557 -2.0315
 2876TIP3   OH230118   0.304   1.405   2.069 -0.0306 -0.5907  0.2379
 2876TIP3    H130119   0.236   1.400   2.001 -0.8016 -0.5858  0.9912
 2876TIP3    H230120   0.281   1.483   2.121  0.2337 -0.9048  0.8372
 2877TIP3   OH230121   1.907   3.680  14.333  0.2097  0.3100 -0.2711
 2877TIP3    H130122   1.815   3.653  14.330  0.6851 -1.3475 -1.4406
 2877TIP3    H230123   1.920   3.711  14.423 -1.2869 -0.1466  0.1313
 2878TIP3   OH230124   2.605   5.430  16.093  0.1663  0.5447 -0.2036
 2878TIP3    H130125   2.632   5.479  16.016 -0.4125  0.5816 -0.3907
 2878TIP3    H230126   2.683   5.426  16.148  0.7993 -0.1305 -1.1170
 2879TIP3   OH230127   2.458   5.706   5.469  0.3999 -0.5758  0.0888
 2879TIP3    H130128   2.465   5.799   5.491 -0.3853 -0.9715  2.3010
 2879TIP3    H230129   2.541   5.669   5.497 -0.1204 -0.8703  1.3233
 2880TIP3   OH230130   2.139   0.128   2.220  0.0593  0.2885  0.0263
 2880TIP3    H130131   2.091   0.085   2.149 -0.3824 -1.6949  1.4471
 2880TIP3    H230132   2.074   0.185   2.261  0.4801  1.9511 -1.4708
 2881TIP3   OH230133   2.246   2.115  11.283  0.0075 -0.1021 -0.5051
 2881TIP3    H130134   2.283   2.202  11.294 -0.3226  0.1530 -1.2883
 2881TIP3    H230135   2.153   2.130  11.269 -0.1873 -0.6448  0.1647
 2882TIP3   OH230136   4.207   5.136   3.256 -0.3033  0.3739  0.0215
 2882TIP3    H130137   4.226   5.056   3.208  0.7308  0.4560  0.2736
 2882TIP3    H230138   4.224   5.115   3.347  0.7111  1.0712  0.0155
 2883TIP3   OH230139   1.952   5.129   1.539 -0.0365 -0.3576 -0.0400
 2883TIP3    H130140   1.943   5.181   1.619  0.4688  1.0112 -0.8260
 2883TIP3    H230141   2.022   5.067   1.558  0.2485  0.1165  0.5029
 2884TIP3   OH230142   6.786   3.959   4.675 -0.0238 -0.3874  0.5945
 2884TIP3    H130143   6.731   4.027   4.636 -0.8413  0.0740  2.4655
 2884TIP3    H230144   6.858   4.007   4.717 -0.2972 -0.7001  1.4401
 2885TIP3   OH230145   6.050   0.817   5.287 -0.4088  0.4195  0.1132
 2885TIP3    H130146   6.094   0.854   5.210  1.5755 -1.3621  0.3111
 2885TIP3    H230147   6.028   0.894   5.340  0.9192  1.5079 -0.8215
 2886TIP3   OH230148   6.535   3.752  10.662 -0.2359 -0.5094  0.2227
 2886TIP3    H130149   6.481   3.747  10.740  0.8653  2.0548  1.2672
 2886TIP3    H230150   6.625   3.755  10.695  0.2591  0.4820 -1.1195
 2887TIP3   OH230151   4.386   2.128  17.115  0.0089  0.2592  0.2934
 2887TIP3    H130152   4.302   2.092  17.146  0.2015  0.3348  0.9177
 2887TIP3    H230153   4.452   2.084  17.168  0.2230  1.9886  1.5645
 2888TIP3   OH230154   6.210   1.340   2.097  0.3504 -0.1792  0.2473
 2888TIP3    H130155   6.129   1.295   2.120  1.3870 -2.5788 -0.4966
 2888TIP3    H230156   6.267   1.271   2.063  1.5770  1.9492 -2.3599
 2889TIP3   OH230157   0.139   3.897  12.695 -0.1659  0.0882  0.1087
 2889TIP3    H130158   0.110   3.872  12.607 -0.8300 -0.8527  0.5796
 2889TIP3    H230159   0.221   3.849  12.707  1.3776  2.2745 -0.9859
 2890TIP3   OH230160   5.546   6.227   4.739  0.3973  0.7447  0.1957
 2890TIP3    H130161   5.540   6.297   4.804  0.5248  1.2626 -0.3389
 2890TIP3    H230162   5.472   6.242   4.681 -1.0941 -1.0840  1.4966
 2891TIP3   OH230163   0.173   2.414  14.582 -0.1120  0.3233 -0.7091
 2891TIP3    H130164   0.159   2.375  14.495  1.0753 -0.1661 -0.6973
 2891TIP3    H230165   0.088   2.406  14.626 -0.4595 -0.3290 -1.4694
 2892TIP3   OH230166   4.671   3.657   1.759 -0.5492  0.2269  0.0993
 2892TIP3    H130167   4.586   3.667   1.802 -0.0166  2.3752  0.7979
 2892TIP3    H230168   4.731   3.707   1.814  1.0085 -0.5236 -0.8575
 2893TIP3   OH230169   4.950   2.046  13.803  0.3049 -0.4144 -0.0749
 2893TIP3    H130170   4.975   1.956  13.784  0.0678 -0.8260  1.4162
 2893TIP3    H230171   4.966   2.056  13.897 -1.6815  0.4233  0.2308
 2894TIP3   OH230172   5.322   0.544   2.753 -0.6020  0.2186 -0.0452
 2894TIP3    H130173   5.266   0.619   2.772  0.5436  1.4076 -1.1859
 2894TIP3    H230174   5.303   0.522   2.662  0.5552  0.4680 -0.3638
 2895TIP3   OH230175   1.728   6.328  12.865  0.1282 -0.5690  0.4679
 2895TIP3    H130176   1.790   6.398  12.845  1.2500 -0.9442  2.3351
 2895TIP3    H230177   1.783   6.252  12.884 -0.9926 -1.4394  0.3480
 2896TIP3   OH230178   1.632   4.927  16.796 -0.2808 -0.5870 -0.0277
 2896TIP3    H130179   1.611   4.836  16.816 -0.3988 -0.4876  0.3092
 2896TIP3    H230180   1.563   4.977  16.838 -0.4621 -0.3626 -0.5860
 2897TIP3   OH230181   0.385   1.884   1.714  0.1919  0.3632 -0.5782
 2897TIP3    H130182   0.338   1.859   1.634  0.5179 -0.5858 -0.4903
 2897TIP3    H230183   0.353   1.822   1.780  0.9873  0.2086 -0.3277
 2898TIP3   OH230184   3.422   4.479  10.893  0.6610 -0.6913 -0.6923
 2898TIP3    H130185   3.478   4.547  10.856  1.0631 -1.5894 -1.8047
 2898TIP3    H230186   3.343   4.481  10.839 -0.3508  0.4155  0.7239
 2899TIP3   OH230187   6.114   0.040  10.686  0.4272 -0.1727  0.0486
 2899TIP3    H130188   6.125   0.091  10.606  1.4599 -0.2119  0.1495
 2899TIP3    H230189   6.022   0.013  10.686 -0.6623  3.1133  0.8515
 2900TIP3   OH230190   1.549   6.249   0.293 -0.2583 -0.2472 -0.2084
 2900TIP3    H130191   1.472   6.266   0.239  0.0065 -0.2214 -0.5860
 2900TIP3    H230192   1.583   6.335   0.315 -1.7628 -0.1685  2.0864
 2901TIP3   OH230193   6.121   2.062  15.708 -0.4295  0.3353 -0.6314
 2901TIP3    H130194   6.114   2.153  15.678 -0.2574 -0.4884 -3.4450
 2901TIP3    H230195   6.074   2.011  15.641  0.7763 -1.7914  0.0448
 2902TIP3   OH230196   3.604   3.994  14.325  0.2923  0.0533 -0.1403
 2902TIP3    H130197   3.545   4.025  14.256 -0.2316  0.4427  0.4713
 2902TIP3    H230198   3.634   3.909  14.293 -0.0681  0.1520 -0.7761
 2903TIP3   OH230199   3.511   0.689   2.073 -0.1385  0.2308  0.0985
 2903TIP3    H130200   3.557   0.732   2.145  0.6263 -1.4358  0.6513
 2903TIP3    H230201   3.571   0.695   1.999 -0.4802  1.0152 -0.1242
 2904TIP3   OH230202   5.961   6.790   5.662 -0.3132  0.0821 -1.0564
 2904TIP3    H130203   6.006   6.730   5.601 -0.6720 -2.3454  0.9113
 2904TIP3    H230204   6.024   6.803   5.733 -1.0106  0.4224 -0.4949
 2905TIP3   OH230205   2.214   1.962  12.490 -0.6593 -0.5123  0.7535
 2905TIP3    H130206   2.306   1.987  12.482 -1.1595  1.6740  1.3495
 2905TIP3    H230207   2.175   1.988  12.407 -0.4762 -2.9933 -0.1961
 2906TIP3   OH230208   2.004   3.041   1.378 -0.0725 -0.2252 -0.8130
 2906TIP3    H130209   2.069   2.984   1.419 -0.9452 -0.1675  0.7235
 2906TIP3    H230210   1.919   3.002   1.400 -0.6807  1.4339 -0.0020
 2907TIP3   OH230211   4.955   3.955  16.642 -1.0900  0.2855  0.2058
 2907TIP3    H130212   5.039   3.908  16.646 -1.7666 -0.8544  3.0042
 2907TIP3    H230213   4.947   3.996  16.728 -2.7768  1.5685 -0.5227
 2908TIP3   OH230214   4.654   6.523  13.727  0.1221  0.1150 -0.0093
 2908TIP3    H130215   4.687   6.612  13.721 -0.3589  0.2572 -0.6361
 2908TIP3    H230216   4.709   6.481  13.793 -0.3031  1.1775  1.0535
 2909TIP3   OH230217   0.357   2.243   2.664  0.1640 -0.2999 -0.0244
 2909TIP3    H130218   0.422   2.235   2.594  0.1201 -2.1803  0.1129
 2909TIP3    H230219   0.280   2.279   2.621  0.0627 -1.6397 -1.0197
 2910TIP3   OH230220   6.738   1.371   4.717  0.2387 -0.3500 -0.3087
 2910TIP3    H130221   6.722   1.279   4.738  0.1234  0.0547  1.5460
 2910TIP3    H230222   6.829   1.374   4.688  0.8869 -0.7826  1.5603
 2911TIP3   OH230223   5.730   4.684  11.539  0.0702 -0.6774 -0.3167
 2911TIP3    H130224   5.651   4.632  11.526 -0.0380 -0.6406  0.1900
 2911TIP3    H230225   5.771   4.686  11.452 -0.4754 -0.7020 -0.5808
 2912TIP3   OH230226   3.666   5.671   3.522 -0.3524 -0.5160 -0.2646
 2912TIP3    H130227   3.674   5.642   3.431 -0.4735  1.1885 -0.8437
 2912TIP3    H230228   3.736   5.734   3.534 -0.2556 -0.8173  0.8836
 2913TIP3   OH230229   6.537   5.483   3.539  0.3378 -0.2931 -0.0295
 2913TIP3    H130230   6.613   5.516   3.586 -0.0184  0.3660  0.0997
 2913TIP3    H230231   6.504   5.411   3.592  0.7414 -0.4412  0.0224
 2914TIP3   OH230232   0.624   3.743  13.959 -0.8733  0.0814  0.5642
 2914TIP3    H130233   0.667   3.740  14.044 -1.1592 -1.0222  0.6817
 2914TIP3    H230234   0.539   3.701  13.973 -0.7062 -0.5954 -0.3888
 2915TIP3   OH230235   0.404   1.204   1.537  0.4556 -0.2436 -0.0028
 2915TIP3    H130236   0.401   1.296   1.510 -0.3885  0.7656  3.1185
 2915TIP3    H230237   0.497   1.184   1.546  0.7242 -0.3122 -2.3097
 2916TIP3   OH230238   1.002   1.856  15.927  0.0068  0.2710  0.1837
 2916TIP3    H130239   1.070   1.923  15.936  0.6236 -0.3414  0.1476
 2916TIP3    H230240   1.033   1.783  15.980 -0.2393 -0.3106 -0.4499
 2917TIP3   OH230241   2.481   6.575   3.016 -0.3557 -0.3666 -0.2261
 2917TIP3    H130242   2.523   6.526   2.947  0.3730 -2.3684  1.5372
 2917TIP3    H230243   2.387   6.560   3.003 -0.2146 -0.9218 -0.6172
 2918TIP3   OH230244   5.186   4.610   2.122  0.1158  0.0839  0.1057
 2918TIP3    H130245   5.116   4.553   2.154  0.3351  1.2308  2.8920
 2918TIP3    H230246   5.229   4.559   2.053 -3.1539 -0.7950 -1.4351
 2919TIP3   OH230247   2.239   0.629   2.591  0.0120  0.0246  0.3226
 2919TIP3    H130248   2.311   0.580   2.631 -0.1617 -1.1588 -0.7606
 2919TIP3    H230249   2.261   0.721   2.607  2.3904 -0.2211 -0.9841
 2920TIP3   OH230250   4.750   4.186   5.967  0.6044 -0.2770 -0.4858
 2920TIP3    H130251   4.698   4.245   5.912  2.2215 -0.2885 -2.1192
 2920TIP3    H230252   4.723   4.098   5.940  0.4716 -0.2867 -0.3238
 2921TIP3   OH230253   5.498   1.674   4.707  0.6449 -0.0084  0.4041
 2921TIP3    H130254   5.505   1.769   4.714  1.4294  0.2019 -2.1573
 2921TIP3    H230255   5.409   1.654   4.736 -0.1199  1.7284 -0.5905
 2922TIP3   OH230256   0.126   0.272  16.264  0.5407  0.1598  0.0975
 2922TIP3    H130257   0.129   0.223  16.182  0.6265  1.0635 -0.4551
 2922TIP3    H230258   0.034   0.297  16.274  0.3742 -0.6544  0.7209
 2923TIP3   OH230259   4.419   6.217  16.059  0.0161  0.3491  0.8407
 2923TIP3    H130260   4.443   6.211  16.151 -2.0360 -0.2515  1.3978
 2923TIP3    H230261   4.386   6.130  16.037  0.3816  0.5119 -0.4399
 2924TIP3   OH230262   5.754   3.712  13.203 -0.1251  0.3376 -0.1059
 2924TIP3    H130263   5.720   3.772  13.137  0.2081  0.4336 -0.1915
 2924TIP3    H230264   5.677   3.664  13.233 -0.3108  0.4311 -0.4226
 2925TIP3   OH230265   1.273   5.691  10.509  0.2612  0.0436 -0.0686
 2925TIP3    H130266   1.343   5.647  10.556  0.0803 -0.0684  0.0964
 2925TIP3    H230267   1.193   5.649  10.539  0.2417 -1.3450 -1.8769
 2926TIP3   OH230268   4.861   1.143   1.633  0.0091  0.1637  0.1507
 2926TIP3    H130269   4.767   1.142   1.616 -0.4343  0.2275  2.2667
 2926TIP3    H230270   4.876   1.069   1.691  1.2635  0.1916 -0.1028
 2927TIP3   OH230271   3.742   4.199  15.296 -0.2531 -0.3140  0.2365
 2927TIP3    H130272   3.707   4.186  15.208  0.2629  1.0412 -0.1937
 2927TIP3    H230273   3.692   4.272  15.332  1.4396  1.0569 -0.0446
 2928TIP3   OH230274   6.748   2.770   5.562  0.1019  0.2418 -0.1571
 2928TIP3    H130275   6.742   2.754   5.657  0.9602  1.6581  0.1592
 2928TIP3    H230276   6.766   2.864   5.555 -0.8043  0.3144 -1.7689
 2929TIP3   OH230277   2.108   3.466   4.808 -0.3744 -0.3812 -0.5117
 2929TIP3    H130278   2.039   3.507   4.756 -0.4812  0.3161  0.1692
 2929TIP3    H230279   2.151   3.406   4.747 -0.7616  0.1197 -1.2915
 2930TIP3   OH230280   5.649   5.797  17.021 -0.0491 -0.4692  0.9332
 2930TIP3    H130281   5.583   5.732  16.998 -0.7764  0.1361  1.2907
 2930TIP3    H230282   5.706   5.801  16.944 -0.0057 -1.5079  0.9031
 2931TIP3   OH230283   0.846   2.957  15.132 -0.1687 -0.4349  0.3835
 2931TIP3    H130284   0.929   3.000  15.152 -1.0481  2.4708 -1.6420
 2931TIP3    H230285   0.780   3.010  15.175 -1.2460 -0.1715 -1.4759
 2932TIP3   OH230286   1.859   1.731  10.377  0.4136  0.2904  0.0088
 2932TIP3    H130287   1.945   1.747  10.415  0.0978  0.0190  0.8736
 2932TIP3    H230288   1.813   1.679  10.443  0.0182 -0.6516 -0.9797
 2933TIP3   OH230289   3.994   0.263  10.668  0.3349  0.5736 -0.1836
 2933TIP3    H130290   3.939   0.215  10.730 -0.0255 -1.3341 -1.8984
 2933TIP3    H230291   3.942   0.341  10.646 -0.4252  0.2335  0.3486
 2934TIP3   OH230292   3.079   5.747   5.676 -0.1964  0.9286 -0.2776
 2934TIP3    H130293   3.126   5.830   5.666  0.9520  0.5766  1.6058
 2934TIP3    H230294   2.987   5.771   5.667  0.1906  2.0576 -1.6980
 2935TIP3   OH230295   6.243   4.464  14.695 -0.3588 -0.7144 -0.3980
 2935TIP3    H130296   6.280   4.405  14.760 -0.0404  0.0983  0.1749
 2935TIP3    H230297   6.275   4.551  14.720 -1.4123 -0.1924 -0.7821
 2936TIP3   OH230298   3.010   6.706   5.344  0.0011 -0.6023 -0.1654
 2936TIP3    H130299   3.070   6.780   5.344  1.3871 -1.6781  0.3271
 2936TIP3    H230300   2.930   6.739   5.385  1.1285  0.2247  1.4657
 2937TIP3   OH230301   2.745   4.207   2.649  0.1303  0.6527  0.3331
 2937TIP3    H130302   2.720   4.144   2.582 -0.8370  0.1848  1.1081
 2937TIP3    H230303   2.838   4.223   2.634  0.1693 -0.2459 -0.4578
 2938TIP3   OH230304   6.006   5.002  11.529  0.1725 -0.7922  0.0785
 2938TIP3    H130305   5.991   5.065  11.600 -1.5226 -1.6615  0.5350
 2938TIP3    H230306   6.084   5.036  11.483 -1.1455  2.1260 -0.2331
 2939TIP3   OH230307   3.532   1.966  11.351  0.0925 -0.3810  0.3489
 2939TIP3    H130308   3.542   2.042  11.293  0.7475 -0.8196 -0.1234
 2939TIP3    H230309   3.461   1.915  11.311 -1.0547  0.4702  1.2244
 2940TIP3   OH230310   0.688   6.413  13.557  0.0303 -0.2979 -0.3720
 2940TIP3    H130311   0.731   6.341  13.602  1.1624 -0.0233 -0.9586
 2940TIP3    H230312   0.750   6.486  13.563 -1.8930  1.2894  1.9243
 2941TIP3   OH230313   6.005   6.612   0.844  0.1839 -0.2073 -0.2853
 2941TIP3    H130314   6.013   6.656   0.928  2.0236 -1.8860  0.5111
 2941TIP3    H230315   6.095   6.601   0.814 -0.3187 -1.4684 -1.4716
 2942TIP3   OH230316   3.202   1.652  12.068 -0.4844 -0.2155  0.1921
 2942TIP3    H130317   3.139   1.664  11.997 -1.1408 -0.7487  0.6698
 2942TIP3    H230318   3.287   1.644  12.024 -0.8084  0.0316 -0.4898
 2943TIP3   OH230319   5.100   4.725  11.400 -0.1118  0.1042 -0.1757
 2943TIP3    H130320   5.100   4.726  11.496  1.7114  0.7223 -0.1485
 2943TIP3    H230321   5.061   4.809  11.375  0.2225  0.3198  0.0292
 2944TIP3   OH230322   0.253   4.121   0.873 -0.4668 -0.3279  0.5781
 2944TIP3    H130323   0.192   4.195   0.870  0.9815  0.9615  1.2928
 2944TIP3    H230324   0.227   4.071   0.950 -1.3738 -0.4956  0.1692
 2945TIP3   OH230325   2.203   2.694  15.197  0.4795  0.1898 -0.8485
 2945TIP3    H130326   2.244   2.617  15.160 -0.4886  0.0713 -1.7206
 2945TIP3    H230327   2.231   2.766  15.140 -0.3434  0.1353 -1.3394
 2946TIP3   OH230328   5.761   4.952  12.168  0.1543 -0.0009 -0.8436
 2946TIP3    H130329   5.783   4.917  12.081  0.9405  0.0899 -0.6882
 2946TIP3    H230330   5.837   4.930  12.222 -0.4582 -0.3118 -0.1050
 2947TIP3   OH230331   5.732   4.464  15.917 -0.5664 -0.0338  0.8045
 2947TIP3    H130332   5.708   4.395  15.855 -2.6409  0.3085  1.1431
 2947TIP3    H230333   5.736   4.419  16.002 -0.2055 -0.0511  0.7792
 2948TIP3   OH230334   3.386   6.574   3.381 -0.1187 -0.2804 -0.4138
 2948TIP3    H130335   3.321   6.552   3.448 -0.0608 -0.2643 -0.3523
 2948TIP3    H230336   3.449   6.629   3.427  0.1075 -0.5552 -0.3929
 2949TIP3   OH230337   2.719   5.874  16.842 -0.4207 -0.1148 -0.2128
 2949TIP3    H130338   2.647   5.874  16.778  0.0740 -1.8434 -0.8000
 2949TIP3    H230339   2.794   5.907  16.793 -0.3391 -0.1913 -0.1381
 2950TIP3   OH230340   3.945   3.837  14.720 -0.0717  0.6699 -0.3210
 2950TIP3    H130341   4.003   3.911  14.707 -0.3991  1.0003  0.0669
 2950TIP3    H230342   3.931   3.833  14.815  0.4202 -0.2604 -0.2704
 2951TIP3   OH230343   6.453   4.015  15.578 -0.1220 -0.1620  0.3128
 2951TIP3    H130344   6.488   3.940  15.627 -0.2236 -0.7302 -0.4588
 2951TIP3    H230345   6.491   4.007  15.491 -0.9530  0.0821 -0.0870
 2952TIP3   OH230346   5.393   2.652  15.359  0.4254 -0.1295 -0.4320
 2952TIP3    H130347   5.433   2.591  15.421 -1.1077 -0.6694  0.0737
 2952TIP3    H230348   5.365   2.726  15.412 -0.8003 -0.5447 -0.4639
 2953TIP3   OH230349   0.823   5.781  12.218  0.5295 -1.1211 -0.1899
 2953TIP3    H130350   0.913   5.778  12.187 -0.2212 -0.4462 -2.6284
 2953TIP3    H230351   0.806   5.874  12.234 -0.6798 -0.7199 -3.1015
 2954TIP3   OH230352   4.250   5.559  15.334  0.1177  0.4427  0.2924
 2954TIP3    H130353   4.155   5.551  15.338 -0.0920  2.6038  0.8590
 2954TIP3    H230354   4.282   5.471  15.351 -1.7711 -0.7933 -1.9395
 2955TIP3   OH230355   3.386   0.720   2.467 -0.6903  0.6598  0.8492
 2955TIP3    H130356   3.334   0.642   2.488  0.2668 -0.4203 -0.6186
 2955TIP3    H230357   3.477   0.689   2.469 -0.2488  1.9083  0.8990
 2956TIP3   OH230358   4.754   4.300  15.635  0.6743 -0.2698 -0.1575
 2956TIP3    H130359   4.783   4.344  15.715  1.9156  0.7092 -1.1100
 2956TIP3    H230360   4.743   4.370  15.571 -4.2347 -0.4812  0.1079
 2957TIP3   OH230361   6.447   2.851  14.004  0.0724 -0.3037  0.3978
 2957TIP3    H130362   6.453   2.767  14.050 -1.0372 -0.5417  0.1339
 2957TIP3    H230363   6.377   2.898  14.049 -0.4526 -0.1996 -0.5093
 2958TIP3   OH230364   5.367   5.330  14.360  0.2243  0.5671 -0.0904
 2958TIP3    H130365   5.292   5.271  14.363  1.5947 -1.2669 -0.4664
 2958TIP3    H230366   5.336   5.410  14.402 -1.8173 -0.2639  0.0908
 2959TIP3   OH230367   2.090   3.634  16.319 -0.3185  0.3601 -0.2719
 2959TIP3    H130368   2.094   3.675  16.232 -0.2638  0.3781 -0.2610
 2959TIP3    H230369   2.075   3.707  16.379  1.4443  0.5926 -0.0627
 2960TIP3   OH230370   2.849   0.967  11.790  0.0846 -0.0325 -0.6411
 2960TIP3    H130371   2.801   0.912  11.852 -0.3083 -0.6035 -1.4351
 2960TIP3    H230372   2.856   1.052  11.834  1.9708 -1.0781  1.2221
 2961TIP3   OH230373   2.724   5.857   6.391 -0.5127  0.3196 -0.3396
 2961TIP3    H130374   2.782   5.931   6.375 -1.5261  1.1618 -0.2206
 2961TIP3    H230375   2.708   5.858   6.485 -1.8734  1.0242 -0.5423
 2962TIP3   OH230376   1.933   5.915  16.517  0.6491 -0.2091  0.0101
 2962TIP3    H130377   2.018   5.881  16.489  0.3155 -0.6162 -0.5268
 2962TIP3    H230378   1.892   5.841  16.562  0.2717 -0.2546 -0.4060
 2963TIP3   OH230379   6.291   2.172  11.794 -0.2527  0.0042 -0.4297
 2963TIP3    H130380   6.330   2.084  11.797  0.9349  0.4980 -0.8257
 2963TIP3    H230381   6.264   2.183  11.703 -1.7481 -0.4960 -0.0697
 2964TIP3   OH230382   6.626   3.969   2.258  0.5246  0.7043  0.3430
 2964TIP3    H130383   6.666   4.028   2.194  0.1388  0.9465  0.3214
 2964TIP3    H230384   6.700   3.924   2.299  0.7330 -0.6975 -1.4375
 2965TIP3   OH230385   4.135   4.359  15.111  0.2450  0.2421  0.0519
 2965TIP3    H130386   4.205   4.302  15.143 -0.2427  0.4405  1.5899
 2965TIP3    H230387   4.125   4.425  15.181  0.5124  1.9872 -1.4738
 2966TIP3   OH230388   1.225   3.558  15.473 -0.3026  0.1035  0.6117
 2966TIP3    H130389   1.228   3.481  15.416 -1.8998 -0.8091  1.7019
 2966TIP3    H230390   1.230   3.523  15.562 -1.1005  1.2491  1.1342
 2967TIP3   OH230391   4.314   4.247  17.291  0.2067 -0.1217 -0.5199
 2967TIP3    H130392   4.247   4.178  17.302 -1.6993  1.7966  0.8839
 2967TIP3    H230393   4.359   4.224  17.210 -0.7775 -2.6289 -0.4646
 2968TIP3   OH230394   0.417   0.001  13.329  0.6830  0.0422 -0.2553
 2968TIP3    H130395   0.474  -0.051  13.385  1.7604 -1.8240 -2.8776
 2968TIP3    H230396   0.465   0.010  13.247 -1.3107  1.5434 -1.3547
 2969TIP3   OH230397   6.012   0.625  14.432 -0.1092  0.3978 -0.1787
 2969TIP3    H130398   5.918   0.624  14.413 -0.3189 -0.1464  0.7995
 2969TIP3    H230399   6.045   0.703  14.388 -0.9771  0.4599 -0.7402
 2970TIP3   OH230400   3.163   1.052   1.876  0.2239 -0.5603 -0.2227
 2970TIP3    H130401   3.089   1.082   1.929  1.7553  1.4021  0.9226
 2970TIP3    H230402   3.206   0.986   1.929  0.9810  0.4400  0.4328
 2971TIP3   OH230403   2.989   4.994  15.879 -0.8993 -0.3817  0.0858
 2971TIP3    H130404   3.018   4.903  15.871 -0.5067 -0.2261 -0.3032
 2971TIP3    H230405   2.981   5.008  15.973  1.4500 -0.0791  0.3033
 2972TIP3   OH230406   5.539   4.080   2.824 -0.3724  0.4248  0.0830
 2972TIP3    H130407   5.513   4.088   2.916  1.1732  1.0812  0.4947
 2972TIP3    H230408   5.529   4.168   2.788 -1.3766  0.0802 -0.5093
 2973TIP3   OH230409   6.614   4.262  12.655  0.1534 -0.1134  0.5867
 2973TIP3    H130410   6.677   4.253  12.583 -0.0227 -0.8973  0.5282
 2973TIP3    H230411   6.603   4.357  12.664  0.0916 -0.0014 -0.4971
 2974TIP3   OH230412   6.691   4.154   1.646  0.1225  0.4215 -0.4223
 2974TIP3    H130413   6.724   4.242   1.661  0.4464  0.9000 -3.4822
 2974TIP3    H230414   6.603   4.167   1.611 -1.2702 -0.6806  2.3166
 2975TIP3   OH230415   1.799   5.649  11.546  0.1381  0.2863 -0.0344
 2975TIP3    H130416   1.849   5.677  11.470  0.5761 -0.9531 -0.2359
 2975TIP3    H230417   1.710   5.637  11.513 -0.1818  1.9365  0.1898
 2976TIP3   OH230418   1.919   1.696  16.426 -0.1111 -0.0257 -0.1793
 2976TIP3    H130419   1.920   1.685  16.331  2.2680 -0.4905 -0.1472
 2976TIP3    H230420   1.959   1.616  16.461  0.3317  0.7404  1.1432
 2977TIP3   OH230421   2.197   1.875  15.167  0.7047  0.1241  0.0258
 2977TIP3    H130422   2.209   1.960  15.125 -1.2116 -0.0505 -1.0310
 2977TIP3    H230423   2.119   1.887  15.223  0.3862 -0.9248 -0.1687
 2978TIP3   OH230424   2.002   5.364  15.594 -0.1839 -0.7817 -0.5027
 2978TIP3    H130425   1.928   5.318  15.552 -2.0190 -0.1234  1.7822
 2978TIP3    H230426   2.052   5.294  15.637 -1.2414 -0.9828  0.4484
 2979TIP3   OH230427   2.703   0.437   3.512  0.1047 -0.1099 -0.0252
 2979TIP3    H130428   2.796   0.432   3.491  0.1763  0.6287  0.0901
 2979TIP3    H230429   2.682   0.530   3.504 -0.1411  0.0383  2.0031
 2980TIP3   OH230430   0.940   4.991   0.551  0.4474  0.0299  0.1659
 2980TIP3    H130431   0.993   4.977   0.629  2.5438  0.0868 -1.1601
 2980TIP3    H230432   0.940   4.906   0.507 -1.2282 -0.1644  0.4973
 2981TIP3   OH230433   0.466   0.808   5.752 -0.1977  0.1857 -0.1721
 2981TIP3    H130434   0.433   0.867   5.820  2.7018  0.2938  1.2849
 2981TIP3    H230435   0.529   0.861   5.703  2.4118 -1.5152  1.1043
 2982TIP3   OH230436   3.149   5.754   3.982 -1.0270 -0.0393 -0.2228
 2982TIP3    H130437   3.203   5.735   3.906 -1.3721 -0.1908 -0.4296
 2982TIP3    H230438   3.120   5.844   3.969 -0.3710  0.2424  0.1685
 2983TIP3   OH230439   0.860   0.265   3.365 -0.2139 -0.0599 -0.1646
 2983TIP3    H130440   0.866   0.286   3.272 -1.0150  1.8037  0.1599
 2983TIP3    H230441   0.793   0.324   3.399 -1.9467 -2.5574  1.1086
 2984TIP3   OH230442   4.936   1.488  15.800 -0.4298  0.4244  0.0130
 2984TIP3    H130443   4.954   1.398  15.773  2.2586 -0.2852  3.4174
 2984TIP3    H230444   4.856   1.481  15.853 -0.7111  0.2126 -0.4351
 2985TIP3   OH230445   3.400   4.415   3.005 -0.1466 -0.3522  0.0780
 2985TIP3    H130446   3.399   4.399   2.911  0.0805  2.1114 -0.4072
 2985TIP3    H230447   3.412   4.509   3.013 -1.3647 -0.3300  2.5631
 2986TIP3   OH230448   5.312   4.913   2.722  0.1335  0.1859 -0.7028
 2986TIP3    H130449   5.263   4.847   2.673  0.9470 -0.8516 -0.1589
 2986TIP3    H230450   5.247   4.954   2.779 -0.0930 -1.4103  0.2680
 2987TIP3   OH230451   3.604   1.887  12.701  0.4548 -0.1984  0.0475
 2987TIP3    H130452   3.660   1.810  12.711  1.3671  0.4557  0.1555
 2987TIP3    H230453   3.651   1.956  12.748 -0.5244  0.3358  0.2578
 2988TIP3   OH230454   2.737   1.583  11.635  0.4451  0.4305  0.3079
 2988TIP3    H130455   2.711   1.662  11.588  1.1913  0.4154 -0.1532
 2988TIP3    H230456   2.702   1.594  11.723  1.5488  1.8356  0.5965
 2989TIP3   OH230457   6.243   5.312   4.316  0.6607  0.3689 -0.5399
 2989TIP3    H130458   6.253   5.229   4.270 -0.3349  1.0701 -2.0883
 2989TIP3    H230459   6.322   5.320   4.370  1.0110 -1.3130 -0.7736
 2990TIP3   OH230460   1.007   3.284   3.687  0.1644  0.1640  0.2416
 2990TIP3    H130461   0.934   3.223   3.698  0.1307  0.4569  1.8367
 2990TIP3    H230462   0.967   3.363   3.651 -0.1963  0.0621  0.4102
 2991TIP3   OH230463   3.915   3.973   5.937  0.0329 -0.0010 -0.4541
 2991TIP3    H130464   3.838   3.977   5.882 -0.9972 -2.1272  0.7046
 2991TIP3    H230465   3.928   3.880   5.954  1.0506  0.4682  1.7985
 2992TIP3   OH230466   4.814   1.266   4.170 -0.2490 -0.2037 -0.0875
 2992TIP3    H130467   4.881   1.293   4.234 -1.2107  0.5323  0.6393
 2992TIP3    H230468   4.756   1.208   4.218 -0.6115 -0.1793 -0.4890
 2993TIP3   OH230469   3.354   1.901   0.172 -0.5609  0.3114  0.1841
 2993TIP3    H130470   3.390   1.873   0.256  0.8854 -1.8527 -1.0772
 2993TIP3    H230471   3.264   1.870   0.173 -0.0793 -1.1635  0.3287
 2994TIP3   OH230472   0.046   1.725  13.750 -0.2782  0.9662  0.2798
 2994TIP3    H130473   0.044   1.669  13.827 -0.9251  0.4473 -0.1010
 2994TIP3    H230474   0.005   1.807  13.778 -1.5630  0.3782  0.2017
 2995TIP3   OH230475   2.627   3.734   2.220 -0.6970  0.0469 -0.3590
 2995TIP3    H130476   2.611   3.824   2.248 -1.0393  0.2276 -1.1062
 2995TIP3    H230477   2.595   3.731   2.130  2.2504  0.0813 -1.5181
 2996TIP3   OH230478   5.754   5.009  12.457 -0.2222  0.4311 -0.0943
 2996TIP3    H130479   5.719   5.080  12.403 -0.1703  0.2571 -0.3587
 2996TIP3    H230480   5.681   4.948  12.466 -0.2999  0.5696  0.2253
 2997TIP3   OH230481   1.266   2.257  15.720 -0.3327 -0.2431 -0.3551
 2997TIP3    H130482   1.303   2.169  15.717  1.0650  0.3252 -1.5540
 2997TIP3    H230483   1.280   2.291  15.631  0.3773  1.6311  0.4152
 2998TIP3   OH230484   6.019   4.746   4.133  0.3271  0.1797 -0.2454
 2998TIP3    H130485   6.021   4.732   4.228 -0.0173 -1.6735 -0.4672
 2998TIP3    H230486   5.973   4.829   4.122 -0.6984 -0.1468  1.1876
 2999TIP3   OH230487   3.584   4.072   0.664  0.5695 -0.5451 -0.3138
 2999TIP3    H130488   3.510   4.014   0.647  0.7355 -1.0091  0.4897
 2999TIP3    H230489   3.546   4.160   0.663  0.2642 -0.6791 -1.2683
 3000TIP3   OH230490   3.721   4.143   0.364  0.2966  0.2431 -0.3633
 3000TIP3    H130491   3.649   4.114   0.308  1.2298 -0.1126 -1.4107
 3000TIP3    H230492   3.679   4.165   0.447 -0.7663 -1.9724 -0.2378
 3001TIP3   OH230493   1.834   5.299   3.361 -0.0907 -0.0193  0.3939
 3001TIP3    H130494   1.848   5.298   3.456 -0.4320 -1.1442  0.4373
 3001TIP3    H230495   1.903   5.243   3.326  0.8519  1.4185 -0.1666
 3002TIP3   OH230496   1.933   4.514  16.666  0.0785 -0.2585  0.0659
 3002TIP3    H130497   2.023   4.487  16.681  0.1931 -0.4928 -0.9902
 3002TIP3    H230498   1.880   4.438  16.690  0.2679 -0.6961 -0.8867
 3003TIP3   OH230499   6.585   6.302  15.282 -0.0294 -0.1502 -0.0147
 3003TIP3    H130500   6.648   6.345  15.340 -1.6252 -1.8429  3.2653
 3003TIP3    H230501   6.532   6.373  15.246  1.5129  1.0119 -0.0796
 3004TIP3   OH230502   5.636   6.260   1.965 -1.0160 -0.3609  0.0947
 3004TIP3    H130503   5.639   6.164   1.965 -2.2955 -0.4275 -0.2300
 3004TIP3    H230504   5.561   6.281   2.020 -2.4782  0.3183 -2.0208
 3005TIP3   OH230505   5.146   5.490   3.769 -0.5040  0.3139 -0.0305
 3005TIP3    H130506   5.185   5.577   3.768  0.2773  0.0036 -2.2336
 3005TIP3    H230507   5.163   5.457   3.858 -0.1878  2.1001  0.6093
 3006TIP3   OH230508   2.298   5.797   3.911 -0.4525  0.2305  0.2153
 3006TIP3    H130509   2.286   5.867   3.975  0.5775  0.1276  0.5397
 3006TIP3    H230510   2.330   5.842   3.832  1.2914  0.0244  0.7773
 3007TIP3   OH230511   2.842   0.947   6.703  0.5302  0.5191 -0.4650
 3007TIP3    H130512   2.893   0.993   6.770 -0.2534  0.0128  0.5030
 3007TIP3    H230513   2.801   1.018   6.653  2.1780  0.9333 -1.2858
 3008TIP3   OH230514   1.720   3.913  16.218  0.2445 -0.3666 -0.0237
 3008TIP3    H130515   1.644   3.954  16.259  0.8907  0.2648  0.5591
 3008TIP3    H230516   1.765   3.985  16.174 -0.2108 -0.9584 -1.5227
 3009TIP3   OH230517   4.094   0.071   1.056 -0.3097  0.3373  0.1524
 3009TIP3    H130518   4.097   0.117   1.140  0.1182  0.4766  0.0628
 3009TIP3    H230519   4.056  -0.015   1.076  1.7940 -0.4886  0.9014
 3010TIP3   OH230520   5.456   5.167   1.067 -0.1976 -0.0222 -0.2844
 3010TIP3    H130521   5.442   5.175   1.161  2.4908 -1.4518  0.3338
 3010TIP3    H230522   5.482   5.255   1.038 -1.5098  0.5383  0.1524
 3011TIP3   OH230523   3.147   3.955   1.785  0.0167 -0.2798  0.2778
 3011TIP3    H130524   3.207   3.931   1.856 -1.1434 -1.4422  0.9074
 3011TIP3    H230525   3.189   4.030   1.742 -0.1211  1.7695  3.3832
 3012TIP3   OH230526   3.067   5.373   4.375  0.0937 -0.4177  0.1301
 3012TIP3    H130527   3.074   5.406   4.286  1.2086 -1.4007 -0.1577
 3012TIP3    H230528   2.973   5.378   4.395 -0.2135 -0.5313 -1.2197
 3013TIP3   OH230529   3.246   0.623   6.166 -0.1048  0.3699  0.0078
 3013TIP3    H130530   3.262   0.691   6.231 -0.0089  0.8139 -0.4715
 3013TIP3    H230531   3.324   0.567   6.169  0.5083  1.1599 -0.6578
 3014TIP3   OH230532   3.353   2.841  14.839  0.3943 -0.0215 -0.7578
 3014TIP3    H130533   3.446   2.822  14.824  0.2393 -1.2822 -0.2839
 3014TIP3    H230534   3.307   2.784  14.777 -0.0609  0.7174 -1.1060
 3015TIP3   OH230535   4.139   6.612   3.418  0.3894 -0.4135  0.1929
 3015TIP3    H130536   4.138   6.654   3.332 -0.1510  1.8094  1.2217
 3015TIP3    H230537   4.166   6.681   3.479 -0.7218 -1.4841  2.0175
 3016TIP3   OH230538   5.938   5.387  13.636 -0.4219 -0.2136  0.0535
 3016TIP3    H130539   5.872   5.394  13.704 -1.4471 -1.0678 -0.8025
 3016TIP3    H230540   5.897   5.426  13.559  0.3867 -0.0224 -0.2884
 3017TIP3   OH230541   4.036   6.781  11.463  0.2650  0.0269  0.7726
 3017TIP3    H130542   3.942   6.789  11.477  0.1169 -2.9217  2.1523
 3017TIP3    H230543   4.045   6.709  11.400  1.6068  1.4838 -0.8136
 3018TIP3   OH230544   0.491   2.861   4.142 -0.1288  0.5483 -0.5911
 3018TIP3    H130545   0.535   2.815   4.213 -0.6769  0.8297 -0.0553
 3018TIP3    H230546   0.418   2.804   4.118  0.0528  0.4553 -0.9325
 3019TIP3   OH230547   0.663   3.818  12.141 -0.0030  0.2241 -0.6470
 3019TIP3    H130548   0.612   3.883  12.190  0.8758 -0.4311  1.2280
 3019TIP3    H230549   0.620   3.813  12.056 -3.0388 -0.2644  0.8142
 3020TIP3   OH230550   1.194   2.216   0.526  0.3157  0.3948  0.1094
 3020TIP3    H130551   1.196   2.131   0.570 -0.7076  0.2327 -0.1372
 3020TIP3    H230552   1.233   2.276   0.590 -3.1169  0.5834  2.2919
 3021TIP3   OH230553   1.331   4.581   5.802  0.0186  0.4261  0.2494
 3021TIP3    H130554   1.248   4.533   5.805 -0.4657  1.2721  1.1465
 3021TIP3    H230555   1.375   4.557   5.884  0.7942 -0.2160 -0.3371
 3022TIP3   OH230556   5.603   3.319   2.544  0.4377  0.0345 -0.1450
 3022TIP3    H130557   5.600   3.297   2.637  0.9561 -0.3342 -0.2121
 3022TIP3    H230558   5.615   3.414   2.541  1.2762 -0.0551  0.1741
 3023TIP3   OH230559   6.795   3.695  13.659 -0.2890 -0.3514 -0.5176
 3023TIP3    H130560   6.867   3.654  13.708 -1.9805 -1.3409  1.3030
 3023TIP3    H230561   6.770   3.630  13.594  0.5844  0.0858 -1.3022
 3024TIP3   OH230562   4.130   5.488   6.265  0.0685  0.1245 -0.0519
 3024TIP3    H130563   4.074   5.552   6.310 -1.3276 -0.2572 -1.1630
 3024TIP3    H230564   4.150   5.423   6.332  1.0623  1.3983  0.9560
 3025TIP3   OH230565   0.089   5.626   4.650 -0.0956 -0.3750 -0.1936
 3025TIP3    H130566   0.061   5.549   4.699  1.4749 -0.8448  0.0417
 3025TIP3    H230567   0.052   5.700   4.697 -1.4512 -0.9591 -0.2975
 3026TIP3   OH230568   5.476   6.199  15.130  0.4112  0.3491 -0.7893
 3026TIP3    H130569   5.431   6.127  15.176  0.7487 -0.2217 -1.3377
 3026TIP3    H230570   5.486   6.267  15.197 -1.3862  0.5645 -0.6684
 3027TIP3   OH230571   6.322   3.196   2.607  0.2495 -0.1476  0.2391
 3027TIP3    H130572   6.321   3.179   2.702  0.9535 -0.4985  0.1890
 3027TIP3    H230573   6.268   3.127   2.570 -1.1820  0.7854  0.4905
 3028TIP3   OH230574   6.824   5.997  13.608  0.1922 -0.0547  0.5268
 3028TIP3    H130575   6.749   5.946  13.579 -0.0286  0.9564 -0.7801
 3028TIP3    H230576   6.787   6.081  13.636  0.7734  0.2584  0.3821
 3029TIP3   OH230577   1.012   2.221  16.616 -0.1406 -0.4078 -0.1541
 3029TIP3    H130578   0.932   2.174  16.593  0.0978 -0.7676 -0.2474
 3029TIP3    H230579   1.027   2.281  16.543  0.3837 -1.2532 -0.7587
 3030TIP3   OH230580   5.729   0.209  15.561 -0.3775 -0.0113 -0.0958
 3030TIP3    H130581   5.707   0.116  15.566 -1.7718  0.2664 -0.4770
 3030TIP3    H230582   5.684   0.248  15.636 -0.3202  0.4486 -0.2975
 3031TIP3   OH230583   6.567   6.196   5.434  0.4824  0.3469  0.7526
 3031TIP3    H130584   6.551   6.198   5.529 -0.0304 -1.4951  0.7445
 3031TIP3    H230585   6.479   6.203   5.395  0.5324 -0.4739  0.4722
 3032TIP3   OH230586   3.929   0.418   2.821  0.3598  0.3958 -0.4541
 3032TIP3    H130587   3.878   0.412   2.902 -1.0935 -0.2905 -1.3771
 3032TIP3    H230588   4.021   0.418   2.850 -0.1314  0.3584  1.1867
 3033TIP3   OH230589   0.627   4.854  13.593  0.6429 -0.1041 -0.2577
 3033TIP3    H130590   0.668   4.933  13.625  1.2654 -0.1707 -0.8658
 3033TIP3    H230591   0.666   4.840  13.506 -3.1090  1.7658 -2.5224
 3034TIP3   OH230592   0.741   3.739   2.463 -0.3607  0.1781 -0.0351
 3034TIP3    H130593   0.767   3.708   2.376  1.9062  0.8852  0.3280
 3034TIP3    H230594   0.711   3.828   2.449 -0.3719  0.1592 -0.1312
 3035TIP3   OH230595   0.473   3.054  15.464  0.1871 -0.3551 -0.0435
 3035TIP3    H130596   0.405   3.115  15.435 -0.3870 -1.3923 -0.8952
 3035TIP3    H230597   0.528   3.107  15.523 -1.3587  0.4888  0.6930
 3036TIP3   OH230598   3.359   0.835  15.291  0.4703 -0.1880 -0.0915
 3036TIP3    H130599   3.416   0.839  15.214 -1.8335 -0.0744 -1.8897
 3036TIP3    H230600   3.273   0.858  15.258 -0.8427 -1.3024  2.3166
 3037TIP3   OH230601   2.917   3.563  15.368  0.1949 -0.1339  0.4659
 3037TIP3    H130602   2.874   3.495  15.316 -0.5021  1.4249 -1.0869
 3037TIP3    H230603   2.903   3.644  15.319  2.2919  0.9345  1.4804
 3038TIP3   OH230604   1.883   0.782   6.069  0.0625  0.6929  0.0340
 3038TIP3    H130605   1.960   0.775   6.126 -0.2566  1.1968  0.5397
 3038TIP3    H230606   1.879   0.875   6.047 -1.7470  1.1421  1.9413
 3039TIP3   OH230607   6.355   2.310   1.780 -0.1388 -0.0153  0.1826
 3039TIP3    H130608   6.384   2.363   1.855 -1.0285 -2.1704  2.1459
 3039TIP3    H230609   6.324   2.375   1.716  1.5475  1.9443  1.2091
 3040TIP3   OH230610   2.983   3.150   5.204 -0.2291 -0.1799  0.3962
 3040TIP3    H130611   3.059   3.095   5.222  0.1288 -0.7045 -2.3331
 3040TIP3    H230612   3.008   3.202   5.128 -2.8897 -1.0661 -1.2275
 3041TIP3   OH230613   4.824   2.949   3.832 -0.6500 -0.3992  0.0995
 3041TIP3    H130614   4.736   2.974   3.859 -0.3021  2.2581 -0.9773
 3041TIP3    H230615   4.876   2.953   3.913 -0.8828  1.2916  0.1904
 3042TIP3   OH230616   0.916   0.079  10.758  0.0175  0.3579 -0.7671
 3042TIP3    H130617   0.935   0.019  10.830  1.4900  0.0596 -1.3741
 3042TIP3    H230618   0.977   0.151  10.770 -0.0014  0.4999 -1.4962
 3043TIP3   OH230619   2.691   4.927   0.021 -0.2259  0.2836 -0.3901
 3043TIP3    H130620   2.611   4.904  -0.026  0.5599 -0.9806 -1.1703
 3043TIP3    H230621   2.699   4.860   0.088 -1.8309  2.5770  2.3273
 3044TIP3   OH230622   5.683   1.482   2.919  0.7683  0.5162  0.9677
 3044TIP3    H130623   5.768   1.503   2.881  0.0045  1.1638 -0.4636
 3044TIP3    H230624   5.687   1.516   3.008  0.8084  3.7915 -0.1591
 3045TIP3   OH230625   2.171   2.935  16.953  0.9677 -0.1148  0.5677
 3045TIP3    H130626   2.103   2.981  17.003 -0.9803 -2.5472  0.3544
 3045TIP3    H230627   2.196   2.996  16.884 -0.1896  1.2826  1.3291
 3046TIP3   OH230628   0.578   2.607  14.507  0.3916  0.1606  0.2798
 3046TIP3    H130629   0.656   2.605  14.451 -0.7706 -1.7663 -1.3946
 3046TIP3    H230630   0.561   2.700  14.520  0.5911  0.7650 -2.8507
 3047TIP3   OH230631   6.017   3.719   5.915 -0.0043  0.4492 -0.1618
 3047TIP3    H130632   6.081   3.655   5.883 -0.5726 -0.3309  0.2221
 3047TIP3    H230633   5.971   3.747   5.836 -0.2532 -0.1877 -0.2507
 3048TIP3   OH230634   4.277   5.826  17.026  0.4733 -0.0933  0.1670
 3048TIP3    H130635   4.361   5.853  16.989  1.1307  0.0825  1.7004
 3048TIP3    H230636   4.253   5.898  17.085 -0.8049 -0.1015 -0.3173
 3049TIP3   OH230637   5.130   6.664  17.100  0.6853 -0.0491 -0.1287
 3049TIP3    H130638   5.204   6.615  17.065 -1.1644 -0.9754 -3.1190
 3049TIP3    H230639   5.056   6.604  17.092 -0.5097  0.8941  2.5863
 3050TIP3   OH230640   4.711   3.226  12.810 -0.4270  0.7789  0.1347
 3050TIP3    H130641   4.617   3.211  12.819 -0.9034  1.0493 -2.9903
 3050TIP3    H230642   4.748   3.205  12.895 -2.9037 -2.6628  0.5624
 3051TIP3   OH230643   6.165   3.244   5.601 -0.2067 -0.0982 -0.3310
 3051TIP3    H130644   6.236   3.207   5.653 -1.4716 -1.5185  0.4581
 3051TIP3    H230645   6.202   3.254   5.513  1.5021  0.9505  0.4649
 3052TIP3   OH230646   1.188   3.361   2.636  0.3224 -0.0744 -0.9824
 3052TIP3    H130647   1.181   3.400   2.723 -0.2977 -1.3008 -0.4637
 3052TIP3    H230648   1.226   3.431   2.582 -0.5482  1.1750 -0.0503
 3053TIP3   OH230649   5.857   3.097  17.157  0.4980  0.1909 -0.3372
 3053TIP3    H130650   5.848   3.003  17.175 -1.4783  0.8515  2.9935
 3053TIP3    H230651   5.941   3.120  17.195  1.0606 -0.2009 -1.2972
 3054TIP3   OH230652   5.915   6.149   0.613  0.1281  0.2978 -0.2562
 3054TIP3    H130653   5.832   6.115   0.580  0.1337  0.9433 -0.9667
 3054TIP3    H230654   5.980   6.084   0.585  0.0936  0.6983 -1.3084
 3055TIP3   OH230655   1.120   4.875   5.719  0.1675 -0.7740  0.2935
 3055TIP3    H130656   1.104   4.850   5.627 -0.1518 -0.3617  0.2352
 3055TIP3    H230657   1.042   4.847   5.765 -0.0607 -0.1651  0.2816
 3056TIP3   OH230658   3.788   4.768  12.192 -0.9920  0.0772  0.1911
 3056TIP3    H130659   3.799   4.675  12.172 -1.5269 -0.5543  2.6033
 3056TIP3    H230660   3.847   4.812  12.130 -0.9310 -1.8139 -1.2004
 3057TIP3   OH230661   3.627   2.917  10.444 -0.6052  0.0919  0.1457
 3057TIP3    H130662   3.715   2.944  10.420 -0.1365 -0.3761  1.2972
 3057TIP3    H230663   3.585   2.895  10.361  0.4501  0.0406 -0.3775
 3058TIP3   OH230664   5.821   5.742   5.972 -0.3137  0.3077  0.1265
 3058TIP3    H130665   5.764   5.788   6.033 -0.3429 -0.4753  0.7130
 3058TIP3    H230666   5.793   5.771   5.885  0.7343  2.6236  0.4957
 3059TIP3   OH230667   6.523   6.038   1.951  0.4877 -0.3631  0.3117
 3059TIP3    H130668   6.605   6.031   1.903  0.4290 -0.2981  0.2006
 3059TIP3    H230669   6.546   6.020   2.042  0.0909 -3.8413 -0.1235
 3060TIP3   OH230670   2.331   4.588   4.592  0.1975 -0.0605 -0.1521
 3060TIP3    H130671   2.385   4.527   4.541 -1.4068 -1.7503  0.0511
 3060TIP3    H230672   2.379   4.601   4.673  1.9630  1.3152 -1.3481
 3061TIP3   OH230673   1.259   5.373  15.350 -0.0405 -0.1099 -0.2211
 3061TIP3    H130674   1.186   5.366  15.288  0.1509 -1.1016 -0.3513
 3061TIP3    H230675   1.329   5.413  15.300 -0.4281  0.6781 -0.1497
 3062TIP3   OH230676   5.762   5.322  12.961 -0.0949 -0.5518 -0.4482
 3062TIP3    H130677   5.717   5.257  13.016 -0.3514  0.8623  1.1087
 3062TIP3    H230678   5.730   5.406  12.993  0.5597  0.3798 -2.1118
 3063TIP3   OH230679   4.345   1.598   2.999 -0.7733 -0.2355 -0.2241
 3063TIP3    H130680   4.263   1.567   3.036 -2.3654  0.3216 -2.9989
 3063TIP3    H230681   4.357   1.685   3.036 -0.6305 -0.8802  1.2953
 3064TIP3   OH230682   1.715   6.346  16.983  1.0079 -0.8015  1.0360
 3064TIP3    H130683   1.743   6.298  17.061  2.1514 -1.8978 -0.0105
 3064TIP3    H230684   1.656   6.286  16.937 -1.1547  0.5137  1.9005
 3065TIP3   OH230685   2.846   6.328   5.909  0.1414 -0.1466 -0.1886
 3065TIP3    H130686   2.920   6.388   5.899  0.5247 -0.6028 -0.1286
 3065TIP3    H230687   2.794   6.341   5.830 -0.3503  1.0228  0.2946
 3066TIP3   OH230688   2.351   3.803  12.682 -0.2121  0.1525 -0.5847
 3066TIP3    H130689   2.315   3.719  12.711 -0.7277  0.7236  0.4724
 3066TIP3    H230690   2.416   3.825  12.748 -0.2863  0.7275 -0.7041
 3067TIP3   OH230691   3.977   0.539  12.149  0.6197 -0.1728 -0.6947
 3067TIP3    H130692   4.049   0.600  12.130  0.1100 -0.0630 -2.4080
 3067TIP3    H230693   3.945   0.512  12.063  0.4784 -2.4805  0.0294
 3068TIP3   OH230694   6.499   5.250   4.932 -0.1287 -0.5681 -0.3949
 3068TIP3    H130695   6.586   5.284   4.950  0.0595 -0.0163 -2.1795
 3068TIP3    H230696   6.509   5.155   4.938  0.0518 -0.4723  1.5578
 3069TIP3   OH230697   4.930   2.363   5.740 -0.3836 -0.3358 -0.2139
 3069TIP3    H130698   4.843   2.324   5.737 -0.0816 -1.0930  0.2922
 3069TIP3    H230699   4.978   2.319   5.669 -1.0276  1.7441 -2.0626
 3070TIP3   OH230700   3.667   3.807  14.135  0.1437 -0.2197 -0.1272
 3070TIP3    H130701   3.678   3.887  14.083 -0.5590 -0.5261 -0.7706
 3070TIP3    H230702   3.731   3.746  14.097  1.1546  0.2243  0.8000
 3071TIP3   OH230703   2.344   2.189   4.074 -0.0063 -0.1313 -0.0040
 3071TIP3    H130704   2.326   2.144   4.157 -2.1007 -0.4577 -0.5614
 3071TIP3    H230705   2.417   2.141   4.035 -0.3835 -1.3104  0.6921
 3072TIP3   OH230706   1.275   0.327  13.888 -0.0322  0.1817 -1.4099
 3072TIP3    H130707   1.181   0.320  13.872 -0.0939  0.8506 -1.3811
 3072TIP3    H230708   1.285   0.413  13.930  0.3851 -0.5802  0.1245
 3073TIP3   OH230709   5.587   2.428   2.074  0.1052 -0.4409  0.4818
 3073TIP3    H130710   5.612   2.510   2.031  1.6426 -0.7622  0.7088
 3073TIP3    H230711   5.608   2.360   2.010  0.0873 -0.7474  0.7984
 3074TIP3   OH230712   3.305   1.881   5.122  0.2465 -0.2566  0.8546
 3074TIP3    H130713   3.358   1.846   5.051  1.8866  0.3681  1.7199
 3074TIP3    H230714   3.238   1.933   5.079  0.2755 -1.1167 -0.2781
 3075TIP3   OH230715   1.413   1.473  14.034 -0.4730 -0.2661  0.4227
 3075TIP3    H130716   1.368   1.505  13.956 -0.5161 -1.6354 -0.1371
 3075TIP3    H230717   1.439   1.552  14.081 -0.6325  0.5773 -0.8704
 3076TIP3   OH230718   3.904   2.054  12.562 -0.0710  0.3482  0.2993
 3076TIP3    H130719   3.866   2.048  12.649 -0.0241 -3.1670  0.2099
 3076TIP3    H230720   3.983   2.108  12.573 -1.2143  1.8130  1.8857
 3077TIP3   OH230721   0.921   5.094  11.997 -0.2004 -0.0299  0.1078
 3077TIP3    H130722   0.932   5.027  12.065 -1.2703  0.5833  0.9207
 3077TIP3    H230723   1.009   5.111  11.965  0.2097 -1.0137  0.6876
 3078TIP3   OH230724   0.685   1.522   2.335 -0.4502 -0.1936  0.5672
 3078TIP3    H130725   0.734   1.450   2.374  1.9193  0.4684 -0.9358
 3078TIP3    H230726   0.652   1.487   2.252  0.1779  0.2280  0.1245
 3079TIP3   OH230727   1.157   0.588   3.298  0.3285 -0.1088  0.2997
 3079TIP3    H130728   1.100   0.630   3.234  1.3014 -0.5461 -0.8863
 3079TIP3    H230729   1.245   0.618   3.275  0.7788 -0.9043  0.9406
 3080TIP3   OH230730   5.816   3.480   1.887 -0.0738 -0.2516 -0.6440
 3080TIP3    H130731   5.879   3.424   1.933  0.0012 -0.6287 -1.2021
 3080TIP3    H230732   5.848   3.483   1.797 -1.5576 -1.5213 -1.2620
 3081TIP3   OH230733   1.397   5.808  11.894 -0.4762  0.2969  0.1524
 3081TIP3    H130734   1.343   5.841  11.823  1.4159  1.4059 -0.8573
 3081TIP3    H230735   1.442   5.732  11.856 -0.7736 -0.1834  0.7467
 3082TIP3   OH230736   2.874   4.022  13.625  0.1355 -0.4035  0.2957
 3082TIP3    H130737   2.910   4.026  13.537 -2.3821 -1.1072 -0.8395
 3082TIP3    H230738   2.806   4.089  13.626 -1.5008 -2.0136  0.8732
 3083TIP3   OH230739   4.011   5.753  13.844  0.7584  0.1491  0.2353
 3083TIP3    H130740   4.092   5.716  13.879  1.6838  1.4026 -0.5308
 3083TIP3    H230741   3.978   5.686  13.784  0.1440 -1.2119  1.9797
 3084TIP3   OH230742   6.342   2.962   6.314  0.5426 -0.1614 -0.1126
 3084TIP3    H130743   6.319   2.919   6.396 -1.9552  0.2216 -0.5573
 3084TIP3    H230744   6.307   3.050   6.322 -0.2569 -0.2947 -1.8039
 3085TIP3   OH230745   4.361   0.894  15.425 -0.3848  0.3301 -0.4888
 3085TIP3    H130746   4.297   0.830  15.456 -0.2316  1.4848  2.5079
 3085TIP3    H230747   4.308   0.965  15.388 -0.9266  0.9937  1.4101
 3086TIP3   OH230748   1.644   4.600  17.156  0.1355  0.6897  1.0789
 3086TIP3    H130749   1.670   4.509  17.168  0.0871  0.6758  1.0779
 3086TIP3    H230750   1.565   4.610  17.209 -0.5212  0.4149  0.1727
 3087TIP3   OH230751   0.598   3.211   2.098  0.1240  0.2538 -0.2754
 3087TIP3    H130752   0.680   3.245   2.133 -0.6070  0.8803  0.9063
 3087TIP3    H230753   0.600   3.235   2.005  0.6465  1.5570  0.0456
 3088TIP3   OH230754   0.593   4.337   5.405 -0.6055 -0.4383  0.5131
 3088TIP3    H130755   0.654   4.270   5.435 -0.9255 -0.5135  1.0038
 3088TIP3    H230756   0.514   4.289   5.383 -0.2921 -0.4184 -0.7202
 3089TIP3   OH230757   6.217   0.502   2.600  0.8432  0.3355  0.0206
 3089TIP3    H130758   6.174   0.587   2.593  1.0722  0.6856  2.2051
 3089TIP3    H230759   6.265   0.505   2.683  2.6111 -1.1607 -0.8486
 3090TIP3   OH230760   5.583   5.333  13.594 -0.0211  0.0022 -0.4267
 3090TIP3    H130761   5.645   5.376  13.535 -1.5799  1.3269 -1.2227
 3090TIP3    H230762   5.574   5.244  13.560  1.8725 -0.4260  0.1021
 3091TIP3   OH230763   0.944   2.155  12.761 -0.2430 -0.2893  0.0636
 3091TIP3    H130764   1.020   2.097  12.766  0.4304  0.4572 -0.8493
 3091TIP3    H230765   0.982   2.242  12.751 -1.1724  0.6517  3.4569
 3092TIP3   OH230766   5.764   3.656   2.588 -0.2034  0.0613 -0.4019
 3092TIP3    H130767   5.771   3.750   2.605 -0.5460  0.2424 -1.1962
 3092TIP3    H230768   5.707   3.623   2.658  2.0674 -0.0678  1.5048
 3093TIP3   OH230769   1.617   2.244   6.555 -0.5743  0.0954  0.0081
 3093TIP3    H130770   1.574   2.261   6.471 -0.7305 -0.2865  0.0121
 3093TIP3    H230771   1.613   2.328   6.601  0.7381  0.7105 -0.9121
 3094TIP3   OH230772   5.345   3.753   2.780  1.6029  0.2979 -0.7104
 3094TIP3    H130773   5.291   3.764   2.858  2.4393  2.1769 -0.3595
 3094TIP3    H230774   5.282   3.739   2.709  0.6275  2.0123 -0.2366
 3095TIP3   OH230775   3.186   4.437   1.555 -0.1592 -0.0805 -0.6472
 3095TIP3    H130776   3.238   4.517   1.560 -0.0797 -0.1224 -0.7900
 3095TIP3    H230777   3.220   4.392   1.478 -0.8591  0.2150 -1.1435
 3096TIP3   OH230778   3.336   0.446   4.889 -0.2599 -0.2650 -0.4146
 3096TIP3    H130779   3.336   0.512   4.958  0.7215 -0.0477 -0.6076
 3096TIP3    H230780   3.298   0.491   4.813 -0.3110 -0.1642 -0.3299
 3097TIP3   OH230781   1.576   6.627   1.345  0.7819 -0.4645 -0.5607
 3097TIP3    H130782   1.659   6.670   1.324  1.3116 -2.1751 -2.2606
 3097TIP3    H230783   1.599   6.562   1.411  0.1818  0.9940  1.1810
 3098TIP3   OH230784   6.178   2.691  13.263 -0.5194 -0.2998 -0.5711
 3098TIP3    H130785   6.238   2.701  13.337  0.2862  0.4882 -1.3153
 3098TIP3    H230786   6.173   2.778  13.224 -1.9983 -0.3996 -0.6544
 3099TIP3   OH230787   5.354   6.574   2.261  1.0073  0.4031 -0.0374
 3099TIP3    H130788   5.329   6.534   2.344  0.7989 -1.2918 -0.8646
 3099TIP3    H230789   5.449   6.581   2.265  0.9772  0.5752  0.4368
 3100TIP3   OH230790   1.442   4.275   5.708 -0.3017 -0.2678  0.1259
 3100TIP3    H130791   1.414   4.323   5.786  0.0787 -2.6097  1.7897
 3100TIP3    H230792   1.512   4.218   5.739 -1.7233 -3.0113 -1.3540
 3101TIP3   OH230793   4.088   3.505  14.128  0.2323 -0.5167 -0.3283
 3101TIP3    H130794   4.183   3.513  14.121  0.2186 -1.0184 -1.1400
 3101TIP3    H230795   4.074   3.419  14.167  0.0888 -0.7089 -0.8061
 3102TIP3   OH230796   2.950   0.075  13.954 -0.2788  0.1685  0.1416
 3102TIP3    H130797   2.950   0.114  13.866  2.3728  1.0047  0.4065
 3102TIP3    H230798   3.006  -0.003  13.945  1.1256  0.9934  1.2974
 3103TIP3   OH230799   2.976   2.531   3.033 -0.1973 -0.6572  0.5592
 3103TIP3    H130800   3.057   2.481   3.043  0.4178  0.3957  0.9976
 3103TIP3    H230801   3.004   2.622   3.027 -1.3394 -0.2842  0.5702
 3104TIP3   OH230802   0.769   2.765   6.306  0.6378  0.0336 -0.1402
 3104TIP3    H130803   0.682   2.767   6.346  0.8613  2.0172  0.3628
 3104TIP3    H230804   0.820   2.707   6.362  0.1340  0.3817  0.7099
 3105TIP3   OH230805   0.292   0.329   5.368 -0.1058 -0.1258 -0.1448
 3105TIP3    H130806   0.299   0.408   5.314  0.3867  0.1584  0.3326
 3105TIP3    H230807   0.307   0.257   5.306 -0.4369  0.1507 -0.5585
 3106TIP3   OH230808   0.931   2.461   1.719 -0.3235  0.3710 -0.1874
 3106TIP3    H130809   0.846   2.489   1.684 -0.0974 -1.3092 -2.2610
 3106TIP3    H230810   0.995   2.511   1.669 -0.0514  0.0271 -0.1854
 3107TIP3   OH230811   5.904   5.583  16.404 -0.0451 -0.0364  0.3567
 3107TIP3    H130812   5.869   5.648  16.344 -0.5829 -0.3279  0.3407
 3107TIP3    H230813   5.831   5.522  16.418 -0.1447  0.3512  1.7738
 3108TIP3   OH230814   1.085   3.052  14.404 -0.8068 -0.2494 -0.2433
 3108TIP3    H130815   1.057   2.966  14.434 -0.1987 -0.2399  0.3627
 3108TIP3    H230816   1.163   3.037  14.351 -0.9741 -0.1126 -0.5354
 3109TIP3   OH230817   2.361   3.518  14.597  0.2618  0.2053  0.1797
 3109TIP3    H130818   2.266   3.502  14.599 -0.3571  3.0665 -1.2345
 3109TIP3    H230819   2.386   3.504  14.506  1.1632 -0.2218  0.4820
 3110TIP3   OH230820   4.199   4.219   2.262 -0.2555 -0.0966 -0.1090
 3110TIP3    H130821   4.270   4.257   2.314 -0.4174 -0.7548  0.6023
 3110TIP3    H230822   4.221   4.126   2.254  0.0940  0.0862 -1.7739
 3111TIP3   OH230823   3.853   6.443   5.532  0.3404 -0.2498 -0.3102
 3111TIP3    H130824   3.769   6.463   5.489 -1.3980 -2.7771  1.5799
 3111TIP3    H230825   3.861   6.508   5.601  0.3510  0.4602 -0.9636
 3112TIP3   OH230826   3.855   5.753  15.536 -0.5256  0.0921 -0.2042
 3112TIP3    H130827   3.899   5.829  15.575 -0.7783 -0.4035  1.1022
 3112TIP3    H230828   3.865   5.684  15.601  0.9793 -1.4658 -1.9740
 3113TIP3   OH230829   2.415   6.552  15.206 -0.3103 -0.1649 -0.2139
 3113TIP3    H130830   2.487   6.498  15.173  0.1055  0.4359 -0.2926
 3113TIP3    H230831   2.339   6.493  15.206  0.1765 -0.7939 -0.1411
 3114TIP3   OH230832   5.640   6.415  15.853 -0.0509 -0.0138 -0.5481
 3114TIP3    H130833   5.680   6.475  15.916 -0.4880 -1.4352  1.1392
 3114TIP3    H230834   5.553   6.451  15.837 -0.4833 -0.4254  0.8096
 3115TIP3   OH230835   3.986   4.904   4.210  0.1015  0.8216 -0.0192
 3115TIP3    H130836   3.976   4.995   4.181 -0.1379  1.3844  1.7075
 3115TIP3    H230837   3.912   4.889   4.269 -0.4080 -0.8308 -1.0353
 3116TIP3   OH230838   0.675   1.283   5.393  0.0459 -0.2874 -0.4518
 3116TIP3    H130839   0.627   1.204   5.421 -0.7210  0.2027 -0.3511
 3116TIP3    H230840   0.624   1.317   5.320  1.2041 -0.7042 -1.4829
 3117TIP3   OH230841   4.208   5.520  12.912  0.3953  0.1780 -0.1600
 3117TIP3    H130842   4.279   5.456  12.904  0.7542  0.5095  0.2408
 3117TIP3    H230843   4.245   5.589  12.968 -0.2070  0.4139 -0.0431
 3118TIP3   OH230844   2.940   3.135   1.223  0.0130  0.7511 -0.0158
 3118TIP3    H130845   2.905   3.169   1.140 -1.9677  0.9305  0.8400
 3118TIP3    H230846   2.921   3.042   1.221 -2.9295  1.2155  1.4903
 3119TIP3   OH230847   3.705   4.881  12.880  0.2581  0.0344  0.1648
 3119TIP3    H130848   3.637   4.944  12.857  0.2504  0.2732  0.8140
 3119TIP3    H230849   3.719   4.894  12.974  0.9501 -0.2525  0.1110
 3120TIP3   OH230850   1.617   3.384  13.095 -0.6032 -0.0425 -0.0272
 3120TIP3    H130851   1.673   3.404  13.020 -1.9296  0.4039 -0.9344
 3120TIP3    H230852   1.529   3.409  13.067 -1.1966 -0.2389  1.5444
 3121TIP3   OH230853   1.080   5.797  12.439  0.0879 -0.2041 -0.0263
 3121TIP3    H130854   1.171   5.766  12.445  1.0931  1.8788 -2.3305
 3121TIP3    H230855   1.068   5.815  12.345 -2.8592 -0.7239  0.1660
 3122TIP3   OH230856   0.186   6.634  16.339 -0.2570  0.4264  0.0183
 3122TIP3    H130857   0.279   6.610  16.344 -0.2503  0.3823 -0.3491
 3122TIP3    H230858   0.184   6.712  16.284 -0.3552  0.8815  0.6501
 3123TIP3   OH230859   2.119   2.760  15.696 -0.3861 -0.5528  0.6203
 3123TIP3    H130860   2.030   2.787  15.675  0.0296 -0.3023 -0.9596
 3123TIP3    H230861   2.165   2.843  15.715  0.0643 -0.4226 -0.9073
 3124TIP3   OH230862   5.318   3.075   3.040 -0.7424 -0.1536 -0.3932
 3124TIP3    H130863   5.362   3.020   2.976 -1.0602  1.0146 -1.6519
 3124TIP3    H230864   5.285   3.013   3.106 -0.4182 -1.3798 -1.3515
 3125TIP3   OH230865   5.053   5.749   2.775  0.4616 -0.0431 -0.0611
 3125TIP3    H130866   5.073   5.660   2.802  2.4216  0.7569  1.3611
 3125TIP3    H230867   5.132   5.779   2.729  0.4860  1.4439  0.8713
 3126TIP3   OH230868   2.142   3.660   3.102  0.0672 -0.4219 -0.0288
 3126TIP3    H130869   2.160   3.658   3.008 -1.4253  1.0928 -0.3833
 3126TIP3    H230870   2.061   3.710   3.110  0.1643 -0.5305  2.0788
 3127TIP3   OH230871   2.695   1.402  14.447  0.1869 -0.6918 -0.3602
 3127TIP3    H130872   2.762   1.336  14.430  0.5190 -0.3880 -0.2386
 3127TIP3    H230873   2.612   1.358  14.428  0.5112 -0.4640 -2.4508
 3128TIP3   OH230874   2.237   0.946  14.784  0.0734  0.0007  0.1457
 3128TIP3    H130875   2.145   0.939  14.758 -0.0061 -0.7877  0.5807
 3128TIP3    H230876   2.278   0.867  14.748  0.0369 -0.9312  1.9756
 3129TIP3   OH230877   6.339   3.042  15.957 -0.2168 -0.1370 -0.0272
 3129TIP3    H130878   6.379   3.106  16.016 -1.1906  0.6464 -0.1897
 3129TIP3    H230879   6.410   2.981  15.937  1.0027  1.3680 -0.5648
 3130TIP3   OH230880   4.953   5.372   1.840  0.2205 -0.3754 -0.7768
 3130TIP3    H130881   4.917   5.390   1.927  0.0232 -1.3280 -0.6558
 3130TIP3    H230882   5.012   5.445   1.824  0.3114 -0.2200  0.1894
 3131TIP3   OH230883   2.028   3.701  12.771  0.5271  0.7718  0.0602
 3131TIP3    H130884   2.077   3.634  12.819  3.5634  0.7968 -2.6801
 3131TIP3    H230885   1.974   3.653  12.709 -0.3940  0.8296  0.7965
 3132TIP3   OH230886   1.497   4.033  11.602  0.1863 -0.1429  0.2772
 3132TIP3    H130887   1.533   4.048  11.515  0.4417  1.4434  0.6272
 3132TIP3    H230888   1.507   3.939  11.617 -0.1130 -0.4786 -1.4968
 3133TIP3   OH230889   2.970   6.673  14.860  0.2313  0.3535 -0.0229
 3133TIP3    H130890   2.947   6.765  14.848  0.7249  0.6163  0.9758
 3133TIP3    H230891   2.929   6.649  14.943 -0.1737 -0.4353 -0.4320
 3134TIP3   OH230892   1.186   2.882  11.927  0.0760 -0.1192  0.0322
 3134TIP3    H130893   1.137   2.854  12.004 -0.0382 -0.6264 -0.2198
 3134TIP3    H230894   1.119   2.908  11.864 -0.2612 -4.8064 -1.9364
 3135TIP3   OH230895   3.154   3.600  15.493  1.0118  0.2648 -0.1553
 3135TIP3    H130896   3.071   3.598  15.445  1.3622  0.4457 -0.7735
 3135TIP3    H230897   3.134   3.649  15.572  0.0066 -1.4604  0.7164
 3136TIP3   OH230898   6.160   3.300  12.559  0.7096 -0.3070 -0.2900
 3136TIP3    H130899   6.207   3.380  12.584  1.5141 -1.1432  1.0149
 3136TIP3    H230900   6.229   3.240  12.529 -0.0040 -0.1389 -2.4195
 3137TIP3   OH230901   1.585   6.084  14.662 -0.1453  0.1029  0.6967
 3137TIP3    H130902   1.660   6.024  14.659  0.5151  0.8732 -2.6208
 3137TIP3    H230903   1.611   6.152  14.724  2.9130  1.3841 -1.6947
 3138TIP3   OH230904   0.843   4.604  15.500 -0.2217  0.4625 -0.5359
 3138TIP3    H130905   0.818   4.526  15.550  1.9238  0.1830  0.2115
 3138TIP3    H230906   0.878   4.570  15.418  2.1736  0.4387  0.4075
 3139TIP3   OH230907   6.001   6.238  13.758 -0.5622  0.2238 -0.2076
 3139TIP3    H130908   6.007   6.326  13.720  1.7583  0.0363 -0.4511
 3139TIP3    H230909   6.042   6.181  13.693 -0.2355 -0.7238  0.7857
 3140TIP3   OH230910   3.889   2.859  12.764 -0.2764  0.0027 -0.3814
 3140TIP3    H130911   3.971   2.880  12.720 -0.9537  1.3509 -1.0754
 3140TIP3    H230912   3.914   2.805  12.839  1.3328  1.1293 -0.0705
 3141TIP3   OH230913   1.302   1.049   4.839  0.7907  0.5197  0.1520
 3141TIP3    H130914   1.292   0.960   4.806  0.9177  0.5323  0.0788
 3141TIP3    H230915   1.280   1.043   4.932 -2.2990  0.9914 -0.4414
 3142TIP3   OH230916   4.671   1.469   3.830  0.0453 -0.1859  0.4828
 3142TIP3    H130917   4.577   1.476   3.819  0.2181  2.9415 -0.0402
 3142TIP3    H230918   4.689   1.375   3.831 -3.1550 -0.9007  1.6904
 3143TIP3   OH230919   0.789   2.433  14.862 -0.2322 -0.0766  0.0087
 3143TIP3    H130920   0.815   2.350  14.822  2.2095  0.7447 -0.2512
 3143TIP3    H230921   0.822   2.428  14.952 -2.9775 -0.6498  1.0867
 3144TIP3   OH230922   2.418   1.602  11.437  0.1205  0.0052 -0.1363
 3144TIP3    H130923   2.381   1.627  11.521 -2.6888 -2.4265 -0.4923
 3144TIP3    H230924   2.380   1.664  11.375  0.5816  0.5210  0.0812
 3145TIP3   OH230925   6.217   6.025  12.149  0.0118 -0.0810 -0.1603
 3145TIP3    H130926   6.218   6.007  12.243 -0.4188  2.0438  0.2973
 3145TIP3    H230927   6.194   5.941  12.109  3.0132 -1.8269  1.3823
 3146TIP3   OH230928   6.198   2.841  16.857 -0.0556  0.6585 -0.4370
 3146TIP3    H130929   6.186   2.751  16.889  1.1449  1.0618  1.2834
 3146TIP3    H230930   6.111   2.866  16.826 -1.2105 -0.0819  1.8918
 3147TIP3   OH230931   1.786   3.221  13.277 -0.6976 -0.0803 -0.1749
 3147TIP3    H130932   1.764   3.268  13.196 -0.4070 -1.8349 -1.3109
 3147TIP3    H230933   1.814   3.135  13.249  2.3082  0.1766  1.6029
 3148TIP3   OH230934   6.373   0.470  13.527 -0.4714  0.3467 -1.1245
 3148TIP3    H130935   6.426   0.398  13.491  0.0139  0.7059 -1.1368
 3148TIP3    H230936   6.284   0.450  13.498 -0.1711  0.3547 -2.1210
 3149TIP3   OH230937   2.999   3.463   1.552 -0.1409  0.0566  0.3116
 3149TIP3    H130938   2.956   3.391   1.504 -0.3131  0.8302 -0.7204
 3149TIP3    H230939   3.041   3.420   1.626  0.9620 -1.3196 -1.0576
 3150TIP3   OH230940   3.249   2.161   4.755  0.0866 -0.2675 -0.0943
 3150TIP3    H130941   3.271   2.201   4.840 -1.3505 -0.8632  0.6031
 3150TIP3    H230942   3.258   2.067   4.769  0.4522 -0.3398 -0.7947
 3151TIP3   OH230943   1.362   0.413   5.086 -0.5102  0.1792 -0.1886
 3151TIP3    H130944   1.359   0.472   5.011 -0.3533 -0.1191 -0.4312
 3151TIP3    H230945   1.419   0.458   5.149 -0.2850  0.2301 -0.4231
 3152TIP3   OH230946   5.279   5.847   0.268  0.3745 -0.0088 -0.1374
 3152TIP3    H130947   5.372   5.871   0.275  0.2322  0.1808  1.5406
 3152TIP3    H230948   5.279   5.764   0.220  1.3588  0.2737 -0.6568
 3153TIP3   OH230949   4.165   4.702   1.336 -0.6066 -0.0044 -0.1025
 3153TIP3    H130950   4.090   4.683   1.392 -0.1156  1.0546  0.9533
 3153TIP3    H230951   4.195   4.789   1.364  1.1480 -0.4969 -0.3414
 3154TIP3   OH230952   0.685   2.125  13.455 -0.4227  0.8379 -0.2504
 3154TIP3    H130953   0.678   2.121  13.360  1.8967 -1.8113 -0.4631
 3154TIP3    H230954   0.762   2.179  13.471 -0.1053  0.3200  0.0146
 3155TIP3   OH230955   2.984   0.281   4.125 -0.4014  0.6701 -0.4455
 3155TIP3    H130956   2.975   0.192   4.090 -2.2758  0.8840 -0.6544
 3155TIP3    H230957   3.003   0.269   4.218 -2.9060 -0.0550  0.0670
 3156TIP3   OH230958   5.999   5.487  13.958  0.0592  0.2958  0.1417
 3156TIP3    H130959   6.021   5.412  14.013 -0.5919  0.8152  1.1470
 3156TIP3    H230960   5.903   5.487  13.955  0.0785  0.0179 -1.3931
 3157TIP3   OH230961   1.365   6.127   3.802  0.1049  0.5229 -0.3038
 3157TIP3    H130962   1.300   6.136   3.871  2.8564  1.1392  2.4098
 3157TIP3    H230963   1.447   6.154   3.842  2.2987 -1.2956 -3.1513
 3158TIP3   OH230964   4.984   0.037   0.674  0.1524  0.3527  0.1640
 3158TIP3    H130965   4.940   0.109   0.628  1.0630  1.0467  0.3433
 3158TIP3    H230966   4.965  -0.041   0.621 -1.3200  0.6037  0.2707
 3159TIP3   OH230967   4.208   5.095  14.580 -0.6254 -0.3451 -0.2109
 3159TIP3    H130968   4.225   5.091  14.674  1.3315 -0.6032 -0.5345
 3159TIP3    H230969   4.165   5.012  14.560  1.9276 -1.8001 -0.0262
 3160TIP3   OH230970   2.944   2.215  16.361 -0.2344 -0.0826 -0.1628
 3160TIP3    H130971   2.873   2.234  16.300  0.0758 -0.3138 -0.6032
 3160TIP3    H230972   3.013   2.179  16.306  0.4899  0.7795  0.1685
 3161TIP3   OH230973   3.678   2.817   5.873 -0.1930  0.1557  0.0755
 3161TIP3    H130974   3.746   2.842   5.936  0.4095  0.1150 -0.5441
 3161TIP3    H230975   3.597   2.851   5.911  0.0935 -0.2396  1.0807
 3162TIP3   OH230976   3.426   1.555  13.042 -0.6403  0.1524 -0.0892
 3162TIP3    H130977   3.435   1.535  13.135 -1.8341 -0.4080 -0.0780
 3162TIP3    H230978   3.516   1.563  13.010 -0.1887 -1.4056  0.7287
 3163TIP3   OH230979   2.192   4.482  16.709 -0.5049  0.2241  0.2765
 3163TIP3    H130980   2.253   4.408  16.719 -0.1346  0.5730  0.6549
 3163TIP3    H230981   2.235   4.554  16.754 -0.5063  0.8780 -0.7278
 3164TIP3   OH230982   6.784   2.822   2.857  0.2517 -0.1934  0.3714
 3164TIP3    H130983   6.689   2.831   2.847  0.1979  0.9691  1.5648
 3164TIP3    H230984   6.820   2.900   2.815  0.5003  0.5277  1.8306
 3165TIP3   OH230985   3.917   4.393   4.979 -0.2894 -0.1337 -0.3987
 3165TIP3    H130986   3.978   4.443   4.924 -0.9449  1.4343  0.2198
 3165TIP3    H230987   3.910   4.308   4.937  1.0576  0.2075 -1.3938
 3166TIP3   OH230988   2.483   4.455  13.414 -0.2536  0.2626  0.9606
 3166TIP3    H130989   2.439   4.424  13.493  0.6588 -0.7603  1.1047
 3166TIP3    H230990   2.446   4.402  13.343  1.8356 -1.8833  1.3024
 3167TIP3   OH230991   3.546   1.266  12.510  0.4206 -0.4979 -0.4644
 3167TIP3    H130992   3.500   1.332  12.562  2.7338  1.8054 -1.1427
 3167TIP3    H230993   3.477   1.209  12.478 -1.7221  1.4985  0.2864
 3168TIP3   OH230994   0.223   6.183   2.722  0.2666 -0.2742 -0.5348
 3168TIP3    H130995   0.217   6.107   2.781 -1.3859  0.2361 -0.0082
 3168TIP3    H230996   0.235   6.258   2.781  0.3027  0.0571 -0.9607
 3169TIP3   OH230997   3.533   2.338   0.143 -0.2501  0.2344  0.1162
 3169TIP3    H130998   3.464   2.401   0.163 -2.2715 -1.0494 -2.2477
 3169TIP3    H230999   3.530   2.276   0.216 -0.7610  0.8491  0.6375
 3170TIP3   OH231000   5.044   2.371  13.734 -0.5153  0.0993 -0.5542
 3170TIP3    H131001   5.033   2.284  13.696 -0.5952  0.9195 -2.5466
 3170TIP3    H231002   4.999   2.429  13.672 -1.2682  1.4723  1.2041
 3171TIP3   OH231003   4.251   3.835   3.625 -0.4481 -0.1230 -0.3402
 3171TIP3    H131004   4.229   3.845   3.717  1.5060  1.6407 -0.0031
 3171TIP3    H231005   4.247   3.740   3.610  0.0354 -0.5225  1.7687
 3172TIP3   OH231006   6.183   4.150  11.858 -0.4836  0.4817 -0.1718
 3172TIP3    H131007   6.177   4.073  11.801  0.6199 -0.8500  1.4215
 3172TIP3    H231008   6.165   4.224  11.800 -2.2860 -0.9880 -1.6309
 3173TIP3   OH231009   5.836   4.471  12.851  0.0973  0.2519  0.4759
 3173TIP3    H131010   5.919   4.450  12.810 -0.2905 -0.3402 -0.0181
 3173TIP3    H231011   5.853   4.466  12.945  0.8455  1.0631  0.3953
 3174TIP3   OH231012   5.427   1.778   1.154 -0.2360 -0.3105  0.8029
 3174TIP3    H131013   5.396   1.748   1.069 -0.9499 -1.6508  1.4924
 3174TIP3    H231014   5.351   1.768   1.212  0.7829 -1.3522  2.0131
 3175TIP3   OH231015   0.529   3.425   3.798 -0.6952 -0.5778  0.1952
 3175TIP3    H131016   0.473   3.358   3.838  0.1469 -0.7814  1.0723
 3175TIP3    H231017   0.563   3.383   3.719  1.4623 -2.0403  1.7709
 3176TIP3   OH231018   4.762   5.320  12.212 -0.2365 -0.2936  1.0128
 3176TIP3    H131019   4.832   5.360  12.160 -1.2844  0.0606 -0.1931
 3176TIP3    H231020   4.747   5.382  12.283 -1.2816  1.1331 -0.3755
 3177TIP3   OH231021   6.130   1.995  16.417  0.1466 -0.5416 -0.3478
 3177TIP3    H131022   6.161   1.956  16.499 -0.6097 -1.3490 -0.4268
 3177TIP3    H231023   6.205   2.042  16.382  0.2548  0.5371  1.2329
 3178TIP3   OH231024   5.393   6.199  14.854 -0.5997  0.2525  0.4619
 3178TIP3    H131025   5.471   6.202  14.798 -0.5054  1.1558  0.6321
 3178TIP3    H231026   5.427   6.181  14.941 -0.6474 -0.0286  0.4238
 3179TIP3   OH231027   4.630   2.754   4.783 -0.5849  0.1951  0.2973
 3179TIP3    H131028   4.681   2.737   4.862  0.2168 -1.8420 -0.5793
 3179TIP3    H231029   4.677   2.824   4.738 -0.5701  0.7757  1.1967
 3180TIP3   OH231030   1.177   1.714   1.229 -0.3347 -0.0229 -0.2468
 3180TIP3    H131031   1.115   1.698   1.301 -1.5641 -0.8073 -1.4259
 3180TIP3    H231032   1.122   1.742   1.156  1.0050  1.9752 -0.5698
 3181TIP3   OH231033   2.492   2.062   0.352  0.2849  0.0992 -0.1094
 3181TIP3    H131034   2.568   2.039   0.299  0.7664  1.5144 -0.0796
 3181TIP3    H231035   2.475   2.154   0.331 -0.2870  0.3297  1.2638
 3182TIP3   OH231036   3.976   4.319  14.085  0.0855 -0.3386 -0.1393
 3182TIP3    H131037   4.033   4.365  14.146 -0.5946  3.0406 -1.8381
 3182TIP3    H231038   3.897   4.301  14.135  0.2823  0.6161  0.5388
 3183TIP3   OH231039   5.737   5.114  14.500 -0.6489 -0.2090  0.0436
 3183TIP3    H131040   5.789   5.037  14.524 -0.5573 -0.5984 -1.3102
 3183TIP3    H231041   5.771   5.141  14.415 -0.5191  1.5022  0.6011
 3184TIP3   OH231042   3.848   0.109  13.678 -0.1104 -0.2429  0.8629
 3184TIP3    H131043   3.893   0.129  13.595 -0.7787 -0.8920  0.3349
 3184TIP3    H231044   3.764   0.072  13.651 -0.2635 -0.6168  1.8403
 3185TIP3   OH231045   1.409   1.503  17.178  0.3133 -0.6663 -0.4765
 3185TIP3    H131046   1.351   1.531  17.108 -0.7041 -1.1985  0.1238
 3185TIP3    H231047   1.384   1.412  17.195 -1.2807  0.1603  2.2674
 3186TIP3   OH231048   5.693   0.926   3.343 -0.0821  0.2364  0.1722
 3186TIP3    H131049   5.691   0.862   3.414  1.7545  1.0385  0.9942
 3186TIP3    H231050   5.716   0.875   3.265 -1.8783 -0.6073  0.1374
 3187TIP3   OH231051   0.403   5.061   5.712 -0.5162  0.1437 -0.5534
 3187TIP3    H131052   0.466   5.084   5.780  0.5419 -0.9708 -1.1240
 3187TIP3    H231053   0.432   5.111   5.636 -2.0284  1.8319 -0.0903
 3188TIP3   OH231054   4.016   3.954  16.038 -0.3869 -0.2304 -0.4015
 3188TIP3    H131055   4.047   3.863  16.047 -0.3732 -0.2909 -1.0357
 3188TIP3    H231056   3.950   3.963  16.106  0.0216 -0.5373  0.0469
 3189TIP3   OH231057   4.004   6.405   1.993  0.5218 -0.3551  0.0802
 3189TIP3    H131058   4.024   6.477   2.053  0.8033 -0.8503  0.5862
 3189TIP3    H231059   3.963   6.447   1.918 -0.6456  0.1749  0.9975
 3190TIP3   OH231060   5.231   2.206  12.955  0.5104  0.1777 -0.4603
 3190TIP3    H131061   5.150   2.243  12.989  0.0971 -0.6251 -0.5348
 3190TIP3    H231062   5.202   2.135  12.897  1.2798 -1.0633  0.6048
 3191TIP3   OH231063   3.809   4.403  15.747 -0.1200 -0.0093  0.7328
 3191TIP3    H131064   3.729   4.357  15.721 -0.6573  1.6322 -0.7136
 3191TIP3    H231065   3.803   4.410  15.842 -1.2274 -0.7303  0.7331
 3192TIP3   OH231066   1.939   6.395   2.958  0.3396 -0.1065 -0.1784
 3192TIP3    H131067   1.962   6.305   2.937  1.4447  0.3715 -1.1382
 3192TIP3    H231068   1.868   6.417   2.898 -0.8347 -0.7099  0.9277
 3193TIP3   OH231069   6.055   5.842   2.084 -0.4384  0.4040  0.5602
 3193TIP3    H131070   5.991   5.872   2.148  0.9191  1.3548  1.5460
 3193TIP3    H231071   6.136   5.832   2.134  0.0664 -1.3236 -0.5183
 3194TIP3   OH231072   6.555   1.828  14.875 -0.3625 -0.2940 -0.0785
 3194TIP3    H131073   6.524   1.909  14.914  0.7505  0.1914 -0.1924
 3194TIP3    H231074   6.562   1.847  14.781  1.5406  0.0251  0.1060
 3195TIP3   OH231075   6.526   0.025   6.071 -0.4774 -0.0407  0.1496
 3195TIP3    H131076   6.585  -0.032   6.021 -0.4419 -0.8616  1.1017
 3195TIP3    H231077   6.463  -0.035   6.111 -2.0212  0.8150 -0.8849
 3196TIP3   OH231078   4.093   6.048   3.242  0.0894  0.2791 -0.5040
 3196TIP3    H131079   4.065   5.962   3.211 -1.1337  0.3063  0.4578
 3196TIP3    H231080   4.134   6.030   3.327  1.1120  0.5030 -0.9309
 3197TIP3   OH231081   2.101   1.602  11.355  0.5438 -1.1632  0.1376
 3197TIP3    H131082   2.195   1.611  11.339  0.6979 -1.5255  0.8021
 3197TIP3    H231083   2.068   1.555  11.278  0.5124  0.8499 -1.1515
 3198TIP3   OH231084   0.346   6.541  17.014 -0.1142 -0.0724  0.4457
 3198TIP3    H131085   0.305   6.484  17.080  0.5399 -1.1411 -0.0409
 3198TIP3    H231086   0.429   6.567  17.054 -0.7939  1.2874  1.0261
 3199TIP3   OH231087   5.301   5.372  11.852 -0.1849  0.3906  0.2664
 3199TIP3    H131088   5.367   5.423  11.900 -0.0108  1.6520 -1.2512
 3199TIP3    H231089   5.348   5.335  11.778 -0.6208 -0.9348  0.6281
 3200TIP3   OH231090   5.434   0.228  14.982 -0.1013  0.4101 -0.2950
 3200TIP3    H131091   5.464   0.142  14.952  1.7769  0.7793  0.3957
 3200TIP3    H231092   5.386   0.209  15.063 -0.5794 -0.0685 -0.6800
 3201TIP3   OH231093   0.875   2.346  11.843  0.0270 -0.0296  0.2963
 3201TIP3    H131094   0.869   2.430  11.799 -1.0993 -0.2989 -0.0845
 3201TIP3    H231095   0.969   2.325  11.841  0.0872  0.2522 -1.4289
 3202TIP3   OH231096   6.482   6.472   2.918  0.0323  0.5203 -0.0287
 3202TIP3    H131097   6.515   6.527   2.847 -0.3981 -1.1914 -1.6546
 3202TIP3    H231098   6.401   6.434   2.883  2.4419 -4.6256 -1.0140
 3203TIP3   OH231099   6.452   0.562  15.872  0.4615  0.3241 -0.0395
 3203TIP3    H131100   6.546   0.551  15.857  0.6798  0.6933  0.9678
 3203TIP3    H231101   6.431   0.645  15.828  0.4348 -0.1333 -0.9190
 3204TIP3   OH231102   4.098   6.266  15.106 -0.1664 -0.3433 -0.4233
 3204TIP3    H131103   4.084   6.331  15.175 -0.4208  0.8993 -1.5725
 3204TIP3    H231104   4.012   6.225  15.094  0.0498 -1.0719  0.4645
 3205TIP3   OH231105   2.367   3.431  12.177  0.3208 -0.2527 -0.0994
 3205TIP3    H131106   2.375   3.381  12.095 -1.2861  0.9782 -1.0651
 3205TIP3    H231107   2.328   3.369  12.239  0.2681 -0.7983 -0.6634
 3206TIP3   OH231108   0.648   2.801  15.500  0.4560 -0.3917  0.2961
 3206TIP3    H131109   0.593   2.789  15.577  1.8616  1.8167  1.7762
 3206TIP3    H231110   0.623   2.887  15.465  0.9196 -0.6782 -0.8097
 3207TIP3   OH231111   3.804   4.999   5.546  0.1050  0.2155  0.1451
 3207TIP3    H131112   3.874   5.016   5.609  0.4699 -1.0311  0.1092
 3207TIP3    H231113   3.757   4.924   5.583 -0.9890  0.7943 -0.0269
 3208TIP3   OH231114   4.759   6.789  13.697 -0.1049  0.1858 -0.4585
 3208TIP3    H131115   4.854   6.798  13.686  0.8419 -0.6282  4.7188
 3208TIP3    H231116   4.729   6.877  13.720  0.0031 -0.1151  0.8893
 3209TIP3   OH231117   1.466   5.574  11.712 -0.1602  0.0228 -0.2239
 3209TIP3    H131118   1.492   5.625  11.635  1.5009 -2.0027 -1.1088
 3209TIP3    H231119   1.531   5.503  11.717 -1.7005 -1.3678  1.5791
 3210TIP3   OH231120   3.736   0.381   2.634  0.4788 -1.1090  0.4771
 3210TIP3    H131121   3.811   0.397   2.690  0.2852  0.0663  0.4299
 3210TIP3    H231122   3.660   0.392   2.691  0.2654  0.5078 -0.0557
 3211TIP3   OH231123   3.061   3.479   0.482  0.4607  0.3574  0.1370
 3211TIP3    H131124   3.135   3.452   0.536 -1.1265 -1.1346  1.7068
 3211TIP3    H231125   3.057   3.413   0.412 -0.1695 -0.4114  0.8654
 3212TIP3   OH231126   4.477   4.242   2.681 -0.0972  0.1789  0.0471
 3212TIP3    H131127   4.562   4.205   2.656  0.1008  0.0132  0.9290
 3212TIP3    H231128   4.485   4.259   2.775 -1.2627 -0.4169  0.2678
 3213TIP3   OH231129   1.783   2.583   3.993  0.1043 -0.0123 -0.0886
 3213TIP3    H131130   1.714   2.633   3.951  1.2646  1.6114 -0.1316
 3213TIP3    H231131   1.745   2.555   4.077 -1.4301 -1.3278 -1.1416
 3214TIP3   OH231132   6.762   6.819  10.595  0.5151  0.0941 -0.3328
 3214TIP3    H131133   6.819   6.743  10.580  0.6361 -0.0704  0.9071
 3214TIP3    H231134   6.801   6.889  10.541  2.2742  0.1549  0.9266
 3215TIP3   OH231135   2.370   4.898  12.545  0.3309  0.7639  0.0051
 3215TIP3    H131136   2.295   4.857  12.503 -0.3173  1.6170  0.3131
 3215TIP3    H231137   2.390   4.974  12.490 -1.4206  2.7483  1.8931
 3216TIP3   OH231138   0.724   5.567   4.076 -1.1930  0.4403 -0.2215
 3216TIP3    H131139   0.715   5.663   4.071 -1.4714  0.4008 -0.4659
 3216TIP3    H231140   0.818   5.553   4.085 -1.1217  0.7238 -0.4909
 3217TIP3   OH231141   6.215   0.634   0.075  0.4370  0.0731  0.6078
 3217TIP3    H131142   6.303   0.598   0.077  0.6836  0.7110  1.5089
 3217TIP3    H231143   6.160   0.563   0.110  0.7071  0.0062  0.8963
 3218TIP3   OH231144   5.040   2.819   4.786 -0.2925 -0.6186  0.4114
 3218TIP3    H131145   5.005   2.773   4.710  0.6409  0.2158 -0.5419
 3218TIP3    H231146   4.973   2.884   4.808  0.0260  0.0587 -0.5594
 3219TIP3   OH231147   4.393   0.871  12.711 -0.0970  0.2676  0.1417
 3219TIP3    H131148   4.459   0.919  12.760  0.1021  1.3272 -1.1292
 3219TIP3    H231149   4.440   0.797  12.673 -0.0639 -0.0535  0.7891
 3220TIP3   OH231150   6.370   1.178   5.328  0.5516 -0.3868  0.7231
 3220TIP3    H131151   6.290   1.223   5.353  1.1439  0.3033  1.4539
 3220TIP3    H231152   6.356   1.087   5.351 -2.0677 -1.5070 -3.9678
 3221TIP3   OH231153   0.653   3.330  15.968  0.3858 -0.5026 -0.4089
 3221TIP3    H131154   0.703   3.332  16.049  0.0601  1.1225 -0.2137
 3221TIP3    H231155   0.711   3.369  15.902  0.1750 -0.6052 -0.6608
 3222TIP3   OH231156   2.332   4.008   1.160 -0.9448 -0.3105 -0.2275
 3222TIP3    H131157   2.355   3.954   1.235  1.7679  0.5817 -0.3199
 3222TIP3    H231158   2.270   3.954   1.110 -0.1065 -2.3728  0.8399
 3223TIP3   OH231159   0.019   6.634   1.046 -0.7489 -0.2624 -0.4956
 3223TIP3    H131160   0.058   6.554   1.083 -1.1840 -1.4965 -2.5355
 3223TIP3    H231161  -0.074   6.612   1.036 -0.7075  0.1531 -1.9107
 3224TIP3   OH231162   3.015   3.144  10.710  0.4415  0.2041  0.0070
 3224TIP3    H131163   2.921   3.148  10.731  0.0171 -1.0242 -1.4733
 3224TIP3    H231164   3.029   3.217  10.651  0.2079 -0.1180 -0.4558
 3225TIP3   OH231165   0.393   3.798   1.001  0.6532 -0.7826 -0.0477
 3225TIP3    H131166   0.319   3.854   1.027  0.8152  0.3842 -1.8801
 3225TIP3    H231167   0.430   3.767   1.083  0.2880  1.5080  1.0693
 3226TIP3   OH231168   4.794   4.295  11.740  0.2740  0.2539 -0.0356
 3226TIP3    H131169   4.760   4.213  11.703  0.6837 -0.6542  1.5340
 3226TIP3    H231170   4.778   4.288  11.834  2.3131  0.9865  0.4200
 3227TIP3   OH231171   2.009   0.451  15.231  0.1887 -0.0012  0.0246
 3227TIP3    H131172   1.926   0.413  15.260  0.0863 -0.3192 -0.6713
 3227TIP3    H231173   2.037   0.396  15.159  0.2981  0.9451 -0.6752
 3228TIP3   OH231174   0.180   3.067  12.174 -0.0927 -0.2583  0.1006
 3228TIP3    H131175   0.102   3.013  12.188 -0.5775  0.1490 -0.9731
 3228TIP3    H231176   0.162   3.115  12.094  1.2789 -0.1653 -0.1720
 3229TIP3   OH231177   6.084   2.670  16.494 -0.1969 -0.5864  0.0680
 3229TIP3    H131178   6.178   2.657  16.479 -0.1068 -0.6985  0.6950
 3229TIP3    H231179   6.077   2.759  16.526 -0.5333  0.1044 -1.7793
 3230TIP3   OH231180   0.710   0.693   0.649  0.2516 -0.3373 -0.3273
 3230TIP3    H131181   0.711   0.650   0.564  0.7763 -0.1063 -0.4445
 3230TIP3    H231182   0.765   0.771   0.638  2.7344 -1.7744  0.9401
 3231TIP3   OH231183   6.147   4.466  15.855  0.2313  0.1848 -0.0965
 3231TIP3    H131184   6.174   4.378  15.828 -1.2861 -0.3468 -0.0114
 3231TIP3    H231185   6.165   4.470  15.949  4.4916  1.6404 -0.7842
 3232TIP3   OH231186   1.980   6.343   1.024 -0.1316 -0.1353 -0.0745
 3232TIP3    H131187   1.983   6.334   0.929 -0.5629 -1.2520  0.0042
 3232TIP3    H231188   1.975   6.253   1.057  3.4610 -0.0503  1.1681
 3233TIP3   OH231189   1.579   5.401   0.147  0.0069  0.3959  0.1344
 3233TIP3    H131190   1.541   5.458   0.081 -0.3071 -1.0722 -1.0158
 3233TIP3    H231191   1.551   5.438   0.231 -1.8414  0.8043 -0.6245
 3234TIP3   OH231192   6.498   2.396   2.039 -0.3482 -0.7921  0.6393
 3234TIP3    H131193   6.452   2.356   2.113  0.2589 -0.0303  1.4542
 3234TIP3    H231194   6.523   2.483   2.070  0.3376 -0.6305 -0.3031
 3235TIP3   OH231195   3.931   6.179   4.566 -0.6207 -0.5195 -0.4207
 3235TIP3    H131196   3.980   6.260   4.583 -1.7343  0.2010 -0.5190
 3235TIP3    H231197   3.981   6.135   4.497 -1.0969  1.1323 -1.9120
 3236TIP3   OH231198   1.263   5.863   0.200  0.3248  0.1867 -0.0888
 3236TIP3    H131199   1.188   5.877   0.258  0.3647  1.5101 -0.3299
 3236TIP3    H231200   1.227   5.821   0.123 -0.2842  1.2807 -0.4245
 3237TIP3   OH231201   2.986   3.452  14.422  0.3128  0.0989  0.2992
 3237TIP3    H131202   3.081   3.447  14.412  0.1765 -0.0328 -1.0359
 3237TIP3    H231203   2.963   3.541  14.394 -0.1076 -0.3592 -0.8717
 3238TIP3   OH231204   4.310   6.619   5.510 -0.5759  0.7774  0.1475
 3238TIP3    H131205   4.246   6.673   5.463 -0.2259 -0.4160 -1.8092
 3238TIP3    H231206   4.384   6.678   5.525 -1.4599  1.7208  0.9839
 3239TIP3   OH231207   4.570   2.286  11.983  0.3098 -0.3223  0.1604
 3239TIP3    H131208   4.565   2.216  12.048  1.5134 -0.5525  0.0345
 3239TIP3    H231209   4.479   2.308  11.964 -0.0661 -0.8595  1.2652
 3240TIP3   OH231210   0.768   3.521   3.963 -0.3541 -0.0481 -0.5648
 3240TIP3    H131211   0.750   3.430   3.985 -1.1320  0.2132 -0.0714
 3240TIP3    H231212   0.682   3.561   3.952 -0.0148  0.5232 -1.2374
 3241TIP3   OH231213   5.758   6.592  15.596  0.5093  0.3686 -0.5196
 3241TIP3    H131214   5.785   6.655  15.529  2.5864 -0.6906 -0.7554
 3241TIP3    H231215   5.733   6.514  15.546 -1.1089  0.6532 -0.1873
 3242TIP3   OH231216   1.186   4.534   2.296  0.2188  0.3385  0.2533
 3242TIP3    H131217   1.141   4.544   2.212  0.5435 -1.1633 -0.1350
 3242TIP3    H231218   1.265   4.587   2.288 -0.1731  0.8856 -0.0591
 3243TIP3   OH231219   6.811   3.548  11.890  0.1386 -0.0577 -0.2796
 3243TIP3    H131220   6.819   3.454  11.903  1.7868 -0.4123 -3.0015
 3243TIP3    H231221   6.723   3.569  11.920  0.6682 -1.8898  2.9938
 3244TIP3   OH231222   3.833   5.601  12.338 -0.7753 -0.2638  0.2626
 3244TIP3    H131223   3.852   5.521  12.289  3.7538  1.9505 -2.2631
 3244TIP3    H231224   3.879   5.590  12.421 -0.9085 -0.6246  0.2902
 3245TIP3   OH231225   0.946   1.183  13.468  0.3226 -0.2344  0.2632
 3245TIP3    H131226   0.892   1.130  13.410  0.6644 -0.2399 -0.0564
 3245TIP3    H231227   0.917   1.273  13.452  0.3354 -0.2467  0.1694
 3246TIP3   OH231228   4.644   4.692  14.130 -0.0497 -0.2541 -0.1729
 3246TIP3    H131229   4.700   4.718  14.057 -2.2558 -0.2108 -1.9537
 3246TIP3    H231230   4.607   4.773  14.162  0.5981 -0.3171  0.7584
 3247TIP3   OH231231   6.156   0.545   1.577  0.1549  0.4772  0.8274
 3247TIP3    H131232   6.202   0.577   1.655  0.1870  1.9535  0.2228
 3247TIP3    H231233   6.226   0.530   1.513  0.1414 -0.8532  1.0969
 3248TIP3   OH231234   5.548   5.810   0.197 -0.1112  0.2732 -0.2343
 3248TIP3    H131235   5.592   5.880   0.148 -1.2713  0.3645 -1.2021
 3248TIP3    H231236   5.516   5.750   0.129 -0.8664 -0.1462  0.4789
 3249TIP3   OH231237   2.851   3.045  12.557 -0.0498 -0.2434  0.6007
 3249TIP3    H131238   2.793   3.061  12.483  0.2662 -0.1940  0.3571
 3249TIP3    H231239   2.939   3.062  12.522  0.3066 -2.2667  0.3950
 3250TIP3   OH231240   2.199   5.695  17.045 -0.1290 -0.2680  0.0171
 3250TIP3    H131241   2.116   5.661  17.012 -0.4250  0.9630 -0.5538
 3250TIP3    H231242   2.264   5.661  16.983 -0.3815 -0.0480 -0.3748
 3251TIP3   OH231243   1.102   3.643  11.277  0.3788 -0.1293 -0.4182
 3251TIP3    H131244   1.152   3.696  11.215  0.8457  1.4674  1.2742
 3251TIP3    H231245   1.140   3.556  11.270  2.7654  0.8148  0.0879
 3252TIP3   OH231246   5.534   3.257   2.079  0.1715  0.5049 -0.4154
 3252TIP3    H131247   5.509   3.319   2.148  0.0435 -1.5305  1.5118
 3252TIP3    H231248   5.622   3.284   2.053 -0.1002  1.8107 -0.0411
 3253TIP3   OH231249   2.614   4.587   5.974 -0.2272 -0.6007 -0.3358
 3253TIP3    H131250   2.520   4.571   5.962 -0.4272  0.0428  0.3037
 3253TIP3    H231251   2.623   4.607   6.067  0.9860 -3.5353  0.3058
 3254TIP3   OH231252   1.352   5.068  12.175  0.2765  0.4602  1.1211
 3254TIP3    H131253   1.278   5.074  12.235 -0.4523 -0.3322  0.3183
 3254TIP3    H231254   1.419   5.021  12.225  0.1682  0.9535  1.7566
 3255TIP3   OH231255   5.184   0.954  17.095  0.7474  0.4018 -0.2863
 3255TIP3    H131256   5.197   0.887  17.162 -0.7139 -0.5366 -0.8846
 3255TIP3    H231257   5.196   1.037  17.141 -1.4447 -0.1636  1.4972
 3256TIP3   OH231258   5.019   3.108  14.185  0.1478 -0.2811  0.7217
 3256TIP3    H131259   5.037   3.200  14.164  0.5988 -0.4138  0.5066
 3256TIP3    H231260   5.015   3.064  14.100 -0.0184 -0.4677  0.8260
 3257TIP3   OH231261   6.163   2.669  12.750 -0.0350  0.7350 -0.2615
 3257TIP3    H131262   6.098   2.675  12.680  0.0744  0.1248 -0.4159
 3257TIP3    H231263   6.117   2.628  12.823  0.3488 -0.3207 -0.5956
 3258TIP3   OH231264   6.749   4.145  12.846 -0.3568  0.0404  0.0277
 3258TIP3    H131265   6.691   4.182  12.912 -2.6046 -0.1126 -1.7413
 3258TIP3    H231266   6.723   4.188  12.764  2.1988  0.1004 -0.8377
 3259TIP3   OH231267   0.521   2.260  11.398 -0.0497 -1.0942 -0.2664
 3259TIP3    H131268   0.591   2.323  11.412 -0.2695 -0.3658 -2.1371
 3259TIP3    H231269   0.563   2.186  11.356  0.2414 -2.3621  2.0949
 3260TIP3   OH231270   2.220   0.910  15.967 -0.0776  0.3622 -0.3046
 3260TIP3    H131271   2.251   0.958  16.044 -3.6393 -0.3713  1.8404
 3260TIP3    H231272   2.187   0.827  16.002 -2.2259  0.1699 -2.5051
 3261TIP3   OH231273   1.533   3.065   3.078  0.2372 -0.3019  0.6609
 3261TIP3    H131274   1.544   3.144   3.130 -0.0564 -1.3783  2.4431
 3261TIP3    H231275   1.476   3.091   3.006 -0.7732  0.8571  1.8306
 3262TIP3   OH231276   1.524   2.465   1.083 -0.4563  0.0149  0.1954
 3262TIP3    H131277   1.619   2.475   1.078 -0.1874 -1.3758  1.6660
 3262TIP3    H231278   1.496   2.461   0.991  1.3341 -2.8234 -0.3673
 3263TIP3   OH231279   6.348   5.252   3.697 -0.2178  0.1047 -0.0700
 3263TIP3    H131280   6.443   5.244   3.704 -0.1787  0.2997 -0.3463
 3263TIP3    H231281   6.318   5.163   3.678  0.1688  0.4587 -2.7027
 3264TIP3   OH231282   2.293   2.417   3.652  0.4415  0.1598 -0.6304
 3264TIP3    H131283   2.210   2.373   3.633  0.4409 -1.7128  2.7669
 3264TIP3    H231284   2.360   2.363   3.609  0.1493 -1.2206  0.5347
 3265TIP3   OH231285   5.663   5.476   5.181  0.2839  0.7232  0.8629
 3265TIP3    H131286   5.753   5.466   5.153  0.4854 -1.3060  1.9936
 3265TIP3    H231287   5.645   5.397   5.232 -2.5798  0.3558 -0.5129
 3266TIP3   OH231288   5.250   1.728  15.818 -0.0386  0.7556 -0.0661
 3266TIP3    H131289   5.224   1.808  15.865 -1.2853  0.0514  0.4859
 3266TIP3    H231290   5.176   1.708  15.761 -0.6261 -1.0491  1.2186
 3267TIP3   OH231291   3.345   2.470   6.199 -0.2554 -0.0313  0.4182
 3267TIP3    H131292   3.254   2.497   6.186  0.0695  0.5404 -0.8737
 3267TIP3    H231293   3.369   2.428   6.116  0.6025 -0.3160  0.8062
 3268TIP3   OH231294   4.051   2.916   0.833 -0.7004 -0.2445  0.4034
 3268TIP3    H131295   4.075   2.926   0.741  1.9918 -0.3125  1.0110
 3268TIP3    H231296   4.024   3.003   0.861  1.7751  0.6077  0.3394
 3269TIP3   OH231297   3.176   3.998  13.608  0.3596 -0.7132  0.4849
 3269TIP3    H131298   3.124   4.047  13.672  1.7305 -0.1679  1.2002
 3269TIP3    H231299   3.132   3.913  13.603 -1.9699  0.4350 -0.6612
 3270TIP3   OH231300   0.092   6.626   0.431  0.1287 -0.4044 -0.2732
 3270TIP3    H131301   0.130   6.701   0.476 -1.9390 -0.3230  1.4590
 3270TIP3    H231302   0.139   6.622   0.347  2.3247  0.9805  0.8185
 3271TIP3   OH231303   2.036   2.804   2.999 -0.5532 -0.1754 -0.1677
 3271TIP3    H131304   1.966   2.866   2.979 -0.9615 -0.3497  0.6599
 3271TIP3    H231305   2.034   2.741   2.927 -0.8008  0.2007 -0.4923
 3272TIP3   OH231306   0.954   1.973  16.224 -0.8611 -0.2291  0.2366
 3272TIP3    H131307   0.959   1.880  16.201 -0.9148  0.0612 -1.0091
 3272TIP3    H231308   0.966   2.019  16.141  1.2298  0.9330  1.1194
 3273TIP3   OH231309   2.611   2.118   0.783 -0.0115 -0.0288  0.2391
 3273TIP3    H131310   2.676   2.048   0.794 -0.4719 -0.3474  1.0014
 3273TIP3    H231311   2.531   2.083   0.822 -0.1693  1.0409  0.9232
 3274TIP3   OH231312   2.385   0.827  12.231  0.8200 -0.3299 -0.2722
 3274TIP3    H131313   2.299   0.785  12.230  0.1050  1.0029  1.1201
 3274TIP3    H231314   2.430   0.788  12.306  1.5711 -1.2297 -1.1654
 3275TIP3   OH231315   1.990   6.243  13.999  0.0801  0.0010  0.1117
 3275TIP3    H131316   1.969   6.152  14.016  1.3259 -0.3133  0.0581
 3275TIP3    H231317   1.955   6.290  14.075  1.9248 -0.8761  1.5749
 3276TIP3   OH231318   0.735   2.477   2.605 -0.3681 -0.4597  0.2196
 3276TIP3    H131319   0.683   2.429   2.541 -1.1329  2.0844 -1.2102
 3276TIP3    H231320   0.817   2.428   2.611 -0.5680 -1.2214 -2.1571
 3277TIP3   OH231321   2.151   0.730   2.171 -0.5758 -0.1984 -0.6750
 3277TIP3    H131322   2.149   0.761   2.081  1.9084  0.2598 -0.6686
 3277TIP3    H231323   2.150   0.635   2.164 -2.2331 -0.1775 -1.0465
 3278TIP3   OH231324   6.725   2.897  14.367  0.2905  0.2845  0.1182
 3278TIP3    H131325   6.708   2.805  14.385 -0.4398  0.3012 -0.4376
 3278TIP3    H231326   6.793   2.896  14.300 -0.6584  0.1016 -0.8720
 3279TIP3   OH231327   4.833   0.878   5.526  0.0650  0.2863  0.2606
 3279TIP3    H131328   4.826   0.784   5.505  0.2361  0.1927  0.6168
 3279TIP3    H231329   4.788   0.888   5.610  1.1520  0.2837  0.8640
 3280TIP3   OH231330   5.118   1.547  14.296 -0.5124  0.3172 -0.1157
 3280TIP3    H131331   5.047   1.497  14.256 -0.0896 -0.7338  0.3998
 3280TIP3    H231332   5.196   1.523  14.245 -0.6551  2.1674 -1.2615
 3281TIP3   OH231333   1.283   5.427  14.608  0.2252  0.1003  0.8021
 3281TIP3    H131334   1.224   5.482  14.659  0.9050  2.2302 -0.6016
 3281TIP3    H231335   1.274   5.340  14.648 -2.9831  0.5507  1.3481
 3282TIP3   OH231336   1.026   2.721  15.085 -0.1249  0.2552  0.3256
 3282TIP3    H131337   0.974   2.790  15.046 -1.0540 -0.8239 -0.4059
 3282TIP3    H231338   1.116   2.754  15.084 -0.2501  0.6577 -1.8637
 3283TIP3   OH231339   4.988   5.604  12.462 -0.0076  0.4381  0.6436
 3283TIP3    H131340   5.012   5.682  12.413 -0.7508  0.4419  0.2683
 3283TIP3    H231341   4.980   5.634  12.553  0.1747  0.6909  0.5776
 3284TIP3   OH231342   1.149   3.440  13.345  0.0673 -0.2744 -0.1445
 3284TIP3    H131343   1.077   3.433  13.409  0.1401  1.4215  0.1579
 3284TIP3    H231344   1.216   3.380  13.378  1.1481  2.3298  2.8449
 3285TIP3   OH231345   1.186   5.544  13.501  0.3839  0.5851  0.3937
 3285TIP3    H131346   1.178   5.489  13.424 -2.3140  0.8947  0.3464
 3285TIP3    H231347   1.166   5.632  13.469  1.4831  1.0934  1.0531
 3286TIP3   OH231348   4.638   6.208   2.531 -0.3499  0.6665  0.1557
 3286TIP3    H131349   4.580   6.226   2.606 -0.9570 -0.9554  0.1352
 3286TIP3    H231350   4.648   6.112   2.532 -1.3415  0.4360 -2.5039
 3287TIP3   OH231351   3.384   5.731   5.929  0.7901 -0.3049 -0.6799
 3287TIP3    H131352   3.331   5.805   5.899 -0.1415 -0.9993 -0.7826
 3287TIP3    H231353   3.321   5.663   5.950  1.6726 -1.5588 -1.8776
 3288TIP3   OH231354   0.429   5.603  13.474  0.6871  0.3210  0.4128
 3288TIP3    H131355   0.441   5.632  13.564  1.0523  1.4155  0.0296
 3288TIP3    H231356   0.373   5.670  13.434  1.2017  0.2899 -0.3880
 3289TIP3   OH231357   1.037   3.298  12.725 -0.0885 -0.1884 -0.0500
 3289TIP3    H131358   0.948   3.317  12.755  0.0727 -0.3187  0.5225
 3289TIP3    H231359   1.091   3.305  12.803  0.6075  1.0821 -0.6124
 3290TIP3   OH231360   3.838   2.725   1.915  0.0904 -0.1956 -0.0549
 3290TIP3    H131361   3.797   2.715   1.829  2.2498 -0.2098 -1.1517
 3290TIP3    H231362   3.888   2.645   1.927 -0.4650 -0.3510  1.4223
 3291TIP3   OH231363   5.780   2.740   5.560  0.2489  0.0041 -0.4177
 3291TIP3    H131364   5.846   2.783   5.614  2.3834 -1.6422 -1.5189
 3291TIP3    H231365   5.763   2.802   5.489 -0.7432  1.1568  0.7796
 3292TIP3   OH231366   2.045   3.192   2.052  0.0261  0.2668  0.2764
 3292TIP3    H131367   2.008   3.267   2.005  0.3124  0.3024  0.1040
 3292TIP3    H231368   2.127   3.226   2.089 -0.2386  0.2631  0.8727
 3293TIP3   OH231369   1.506   6.759   3.685  0.1931  0.5484  0.3297
 3293TIP3    H131370   1.564   6.683   3.685 -0.1211  0.1541 -3.1156
 3293TIP3    H231371   1.426   6.727   3.727  1.2113  0.0479  1.9719
 3294TIP3   OH231372   1.734   0.219  11.700 -0.2475 -0.3479  0.5562
 3294TIP3    H131373   1.680   0.161  11.754  0.2885 -0.9343  0.4802
 3294TIP3    H231374   1.776   0.160  11.637 -1.1527  0.3525 -0.7676
 3295TIP3   OH231375   0.208   5.587   4.928 -0.0818 -0.2612 -0.5251
 3295TIP3    H131376   0.283   5.601   4.869 -0.1725 -2.3809 -1.2434
 3295TIP3    H231377   0.233   5.509   4.979 -0.9983  0.1670  0.6046
 3296TIP3   OH231378   2.551   6.337   1.660  0.4172 -0.0940 -0.0078
 3296TIP3    H131379   2.540   6.372   1.572  0.7853  1.2457  0.4612
 3296TIP3    H231380   2.616   6.267   1.650 -0.3550 -0.7115 -0.9561
 3297TIP3   OH231381   6.696   6.782   3.727 -0.3642 -0.0838  0.6329
 3297TIP3    H131382   6.679   6.692   3.754 -0.2441  0.2814  2.0046
 3297TIP3    H231383   6.768   6.775   3.664  0.3056 -0.8810  1.4619
 3298TIP3   OH231384   2.491   2.894   3.246 -0.2162  0.4817 -0.5491
 3298TIP3    H131385   2.573   2.845   3.255 -0.1027  0.8034  0.2106
 3298TIP3    H231386   2.514   2.968   3.189  0.6626  1.9106  1.5263
 3299TIP3   OH231387   5.833   2.568  12.638  0.1720 -0.6855 -0.1385
 3299TIP3    H131388   5.892   2.545  12.566  1.5678 -0.0473  0.7636
 3299TIP3    H231389   5.846   2.499  12.703  0.2426 -0.3090  0.2496
 3300TIP3   OH231390   4.575   1.942   0.030 -0.2302  0.6752  0.1520
 3300TIP3    H131391   4.510   1.873   0.037 -0.1179  0.5140 -0.3767
 3300TIP3    H231392   4.636   1.925   0.102 -0.7549  0.8173  0.6387
 3301TIP3   OH231393   0.882   1.702  10.584  0.1641  0.3425 -0.3770
 3301TIP3    H131394   0.959   1.742  10.624  0.3907 -0.7720  0.3411
 3301TIP3    H231395   0.835   1.775  10.544  1.2012  1.1424 -0.1800
 3302TIP3   OH231396   3.083   5.439   3.477 -0.4119 -0.2039 -0.4464
 3302TIP3    H131397   3.039   5.369   3.428 -0.3791  0.2191 -1.0983
 3302TIP3    H231398   3.077   5.515   3.420  0.0861  0.1748 -0.0048
 3303TIP3   OH231399   5.796   0.004   6.033 -0.3618  0.4082  0.4664
 3303TIP3    H131400   5.871   0.013   5.974  0.3579 -0.0448  1.3041
 3303TIP3    H231401   5.833  -0.025   6.116 -1.4785  0.0736  0.8671
 3304TIP3   OH231402   3.650   1.551  14.676  0.0192 -0.2100  0.4499
 3304TIP3    H131403   3.611   1.538  14.762 -1.1428 -0.6071 -0.1038
 3304TIP3    H231404   3.744   1.539  14.689 -0.2541 -1.4660  1.4377
 3305TIP3   OH231405   4.156   2.270  11.100  0.3182 -0.1882  0.2468
 3305TIP3    H131406   4.115   2.200  11.049 -0.4227  0.2375  0.2417
 3305TIP3    H231407   4.085   2.306  11.153  0.8388  0.1174  0.7453
 3306TIP3   OH231408   6.697   5.401  16.714  0.5858 -0.5760  0.1497
 3306TIP3    H131409   6.741   5.335  16.767 -0.2703 -1.0473  0.2867
 3306TIP3    H231410   6.763   5.470  16.702  1.4231 -1.3590  0.1619
 3307TIP3   OH231411   6.637   4.615  11.995  0.3632  0.4681 -0.9521
 3307TIP3    H131412   6.624   4.558  11.919 -0.2598  0.0084 -0.5009
 3307TIP3    H231413   6.609   4.701  11.964 -1.2732  0.0030 -0.8160
 3308TIP3   OH231414   2.951   1.626   1.977  0.4547  0.2231 -0.1033
 3308TIP3    H131415   2.947   1.660   2.067  0.3182  0.2012 -0.1003
 3308TIP3    H231416   2.863   1.642   1.942  0.8078  1.1726 -0.5843
 3309TIP3   OH231417   0.087   1.956  14.225 -0.0105  0.0485 -0.5089
 3309TIP3    H131418   0.155   2.023  14.229  1.2087 -1.1943  0.9638
 3309TIP3    H231419   0.114   1.899  14.153  1.0031 -0.8755  0.5526
 3310TIP3   OH231420   3.412   0.796   1.367 -0.1154 -0.2388 -0.0328
 3310TIP3    H131421   3.377   0.833   1.286  1.1315  0.1481 -0.4136
 3310TIP3    H231422   3.337   0.753   1.408 -1.4253  1.9271 -0.0113
 3311TIP3   OH231423   5.128   1.516  11.033  0.0406  0.2778  0.4589
 3311TIP3    H131424   5.179   1.442  10.999 -1.1108 -1.0668  1.5415
 3311TIP3    H231425   5.191   1.588  11.036  1.2266 -0.6569 -0.5707
 3312TIP3   OH231426   1.953   4.609   5.401  0.0784  0.4266  0.2025
 3312TIP3    H131427   2.038   4.652   5.390  0.0635  0.4287  0.0916
 3312TIP3    H231428   1.963   4.553   5.478 -0.1842  1.3487  0.9292
 3313TIP3   OH231429   1.166   3.870  15.708 -0.2231  0.0792  0.0759
 3313TIP3    H131430   1.228   3.930  15.666 -0.1371 -0.3607 -0.4462
 3313TIP3    H231431   1.084   3.919  15.712  0.5749  1.3268  2.4214
 3314TIP3   OH231432   3.735   5.687  17.094 -0.8057 -0.2223  0.6722
 3314TIP3    H131433   3.707   5.662  17.006 -0.4852  1.7065 -0.0389
 3314TIP3    H231434   3.660   5.735  17.129 -0.1358  0.9216  0.5717
 3315TIP3   OH231435   2.485   1.090   3.761  0.6249 -0.3351 -0.1340
 3315TIP3    H131436   2.481   0.997   3.784  0.5355 -0.6670 -1.3829
 3315TIP3    H231437   2.410   1.103   3.703  1.6622  0.0664 -1.4429
 3316TIP3   OH231438   0.140   2.418  15.456 -0.2889  0.3177 -0.0421
 3316TIP3    H131439   0.087   2.382  15.385  0.0338  0.1131 -0.1815
 3316TIP3    H231440   0.078   2.466  15.510 -1.1596 -2.2828  1.4162
 3317TIP3   OH231441   4.528   1.912  16.136 -0.1450 -0.2677 -0.8568
 3317TIP3    H131442   4.450   1.890  16.187  0.0519 -1.3536 -1.0012
 3317TIP3    H231443   4.502   1.896  16.045 -0.6428  2.0951 -1.1851
 3318TIP3   OH231444   3.504   2.002   4.710  0.1701 -0.0921 -0.0010
 3318TIP3    H131445   3.506   2.097   4.716  1.2723 -0.0413 -0.8061
 3318TIP3    H231446   3.544   1.982   4.625  0.7499 -1.3012  0.5271
 3319TIP3   OH231447   1.577   6.755  14.809 -0.0346 -0.3609  0.0176
 3319TIP3    H131448   1.553   6.674  14.765  0.2220 -0.9779  0.9957
 3319TIP3    H231449   1.498   6.781  14.857 -0.1212 -0.0193 -0.3035
 3320TIP3   OH231450   2.364   4.031   2.761  0.1403  0.0528 -0.4662
 3320TIP3    H131451   2.357   3.946   2.805  2.4318  0.5180  0.9730
 3320TIP3    H231452   2.337   4.095   2.827  0.3866  0.5548 -0.8395
 3321TIP3   OH231453   2.426   1.123  16.088 -0.4736  0.2828  0.9060
 3321TIP3    H131454   2.513   1.161  16.103 -0.8038  1.4744 -0.0340
 3321TIP3    H231455   2.423   1.047  16.147  0.7508  0.8942  1.8198
 3322TIP3   OH231456   6.815   4.657   4.861 -0.3496  0.3812 -0.0872
 3322TIP3    H131457   6.767   4.576   4.878  2.3813 -1.0370  1.4985
 3322TIP3    H231458   6.877   4.634   4.791  0.4576  1.0656  0.3796
 3323TIP3   OH231459   4.313   1.615   1.519  0.2310 -0.9447 -0.1021
 3323TIP3    H131460   4.357   1.621   1.603  0.1560  0.9508 -0.1558
 3323TIP3    H231461   4.269   1.700   1.508 -0.2037 -1.3408 -1.8065
 3324TIP3   OH231462   6.456   0.451  11.901 -0.0407 -0.1132  0.5932
 3324TIP3    H131463   6.485   0.395  11.972  0.9301 -0.0674  0.2440
 3324TIP3    H231464   6.477   0.540  11.931 -2.2894  0.1966  1.4945
 3325TIP3   OH231465   5.189   1.230   2.698  0.3295  0.3819 -0.1455
 3325TIP3    H131466   5.148   1.317   2.703 -2.5473 -0.7924 -0.9487
 3325TIP3    H231467   5.122   1.175   2.656  1.8493 -2.3458  0.7713
 3326TIP3   OH231468   4.424   5.801  16.225 -0.0786 -0.6763  0.3476
 3326TIP3    H131469   4.419   5.736  16.295  0.6900 -0.5222  0.5473
 3326TIP3    H231470   4.515   5.800  16.197 -0.4673 -1.0514 -0.9655
 3327TIP3   OH231471   2.806   0.254   2.518 -0.4432 -0.3176 -0.4561
 3327TIP3    H131472   2.858   0.323   2.477  0.4711 -0.9684 -0.4010
 3327TIP3    H231473   2.736   0.302   2.564 -0.0674  0.5442 -0.7583
 3328TIP3   OH231474   3.935   3.888  15.007 -0.6754 -0.0438 -0.1944
 3328TIP3    H131475   4.025   3.856  15.004  0.5770  3.0279  0.6137
 3328TIP3    H231476   3.925   3.924  15.096 -1.5440  2.5808 -1.2577
 3329TIP3   OH231477   3.196   2.806   5.005 -0.6932 -0.0724  0.1853
 3329TIP3    H131478   3.116   2.783   4.957 -0.0571  0.0126 -0.9480
 3329TIP3    H231479   3.166   2.821   5.094 -1.9239 -0.2102 -0.1757
 3330TIP3   OH231480   2.139   3.863  14.874 -0.0254 -0.5990 -0.2926
 3330TIP3    H131481   2.178   3.928  14.816 -1.3875  0.5736  0.0630
 3330TIP3    H231482   2.145   3.902  14.962 -0.2175 -1.2730  0.0300
 3331TIP3   OH231483   6.799   5.127  14.712 -0.2258 -0.0002 -0.3176
 3331TIP3    H131484   6.796   5.091  14.800 -1.9371  1.7099  0.3643
 3331TIP3    H231485   6.715   5.170  14.699  0.2472  0.4138 -2.5281
 3332TIP3   OH231486   1.308   3.461  12.595 -0.2596 -0.2529  0.4618
 3332TIP3    H131487   1.394   3.454  12.552 -1.8772 -1.6036 -2.9438
 3332TIP3    H231488   1.308   3.392  12.661  0.6822 -1.4458 -0.7272
 3333TIP3   OH231489   0.655   1.709   6.463 -0.4256  0.1273  0.0704
 3333TIP3    H131490   0.610   1.774   6.517  0.9769  0.8035  0.4657
 3333TIP3    H231491   0.745   1.708   6.496  0.4860  0.5447 -2.2194
 3334TIP3   OH231492   6.238   1.583   2.530  0.2593  0.0567 -0.2236
 3334TIP3    H131493   6.224   1.678   2.529  1.4995  0.2793  0.9578
 3334TIP3    H231494   6.242   1.560   2.622 -1.0222 -1.3323 -0.4796
 3335TIP3   OH231495   4.114   4.933  13.950  0.2884  0.0643 -0.3563
 3335TIP3    H131496   4.079   4.855  13.906 -1.0909 -0.0612  0.8783
 3335TIP3    H231497   4.129   4.905  14.040  1.5551  0.7436 -0.3409
 3336TIP3   OH231498   5.497   0.290   2.606 -0.3710  0.0005 -0.1942
 3336TIP3    H131499   5.475   0.344   2.530 -1.4549  0.4872  0.4491
 3336TIP3    H231500   5.426   0.226   2.612 -0.1257 -0.2408  0.2268
 3337TIP3   OH231501   4.558   4.149   5.304  0.6710  0.4408 -0.2611
 3337TIP3    H131502   4.620   4.167   5.234  0.9760  1.0987  0.1684
 3337TIP3    H231503   4.611   4.145   5.384  0.0635  2.2481  0.2989
 3338TIP3   OH231504   6.355   6.182   1.253  0.7158 -0.3806 -0.2235
 3338TIP3    H131505   6.357   6.244   1.325  1.0268  0.4412 -0.9214
 3338TIP3    H231506   6.281   6.124   1.272  0.0834  0.5382  0.1575
 3339TIP3   OH231507   2.528   2.772   2.755 -0.4466  0.1686  0.2125
 3339TIP3    H131508   2.555   2.703   2.693  0.7943 -0.0368  0.9550
 3339TIP3    H231509   2.498   2.724   2.832  0.1100  0.4458  0.6059
 3340TIP3   OH231510   6.210   5.736  16.468  0.0468  0.0315  0.4574
 3340TIP3    H131511   6.239   5.714  16.380 -0.4574 -0.9676  0.5271
 3340TIP3    H231512   6.285   5.716  16.524  0.4005  0.7565  0.2601
 3341TIP3   OH231513   3.164   2.628  15.813 -0.0387 -0.4042  0.4560
 3341TIP3    H131514   3.196   2.706  15.859 -0.2329  0.8248 -1.4045
 3341TIP3    H231515   3.243   2.589  15.775 -0.2084  0.2740 -0.6315
 3342TIP3   OH231516   6.599   0.709  14.572 -0.4016  0.0760 -0.1330
 3342TIP3    H131517   6.612   0.790  14.622 -0.8761  0.0636  0.0157
 3342TIP3    H231518   6.592   0.640  14.638  1.8367 -0.3889 -0.2939
 3343TIP3   OH231519   2.735   1.858   4.974  0.1217  0.5178  0.3184
 3343TIP3    H131520   2.650   1.834   5.010 -0.0279 -0.6885 -0.7572
 3343TIP3    H231521   2.759   1.938   5.021 -1.6167  0.9229  0.6007
 3344TIP3   OH231522   4.311   5.281  11.656  0.3228  0.4240  0.0432
 3344TIP3    H131523   4.378   5.246  11.598 -0.0739 -0.1659 -0.0758
 3344TIP3    H231524   4.235   5.225  11.641 -0.9466  2.4262 -1.4609
 3345TIP3   OH231525   4.007   5.308   1.496  0.4148 -0.3213 -0.1331
 3345TIP3    H131526   3.933   5.344   1.544  2.7207  3.0101  1.2552
 3345TIP3    H231527   4.034   5.232   1.548  0.8938  1.3212  2.1408
 3346TIP3   OH231528   1.298   5.465   5.600  0.1070 -0.1436  0.0113
 3346TIP3    H131529   1.225   5.522   5.625  0.0243  1.1225 -2.7649
 3346TIP3    H231530   1.272   5.379   5.632 -1.4577  0.7099  1.2098
 3347TIP3   OH231531   5.868   5.152   5.879  0.1382 -0.1662 -0.7373
 3347TIP3    H131532   5.777   5.143   5.852  0.7091 -0.2943 -2.7719
 3347TIP3    H231533   5.902   5.222   5.823  0.5563  2.0824  2.0832
 3348TIP3   OH231534   6.485   5.701  17.293  0.4154  0.0052  0.4181
 3348TIP3    H131535   6.452   5.621  17.253  0.2733 -0.0339  0.6133
 3348TIP3    H231536   6.412   5.763  17.287  0.4038  0.0082  0.5904
 3349TIP3   OH231537   0.819   5.763   0.294  0.5448 -0.2952  0.1524
 3349TIP3    H131538   0.757   5.812   0.348  2.5566  0.7533  1.6567
 3349TIP3    H231539   0.812   5.673   0.326  1.3459  0.2149  1.9268
 3350TIP3   OH231540   1.517   5.210  14.636 -0.1071 -0.7651  0.0088
 3350TIP3    H131541   1.501   5.160  14.556  0.1158 -0.7564 -0.0436
 3350TIP3    H231542   1.496   5.300  14.612 -0.6486 -0.8522  0.1428
 3351TIP3   OH231543   6.442   1.592  14.573 -0.1520 -0.2838 -0.0397
 3351TIP3    H131544   6.401   1.673  14.606  1.6955  1.1841 -1.1485
 3351TIP3    H231545   6.425   1.594  14.479  1.4884 -0.1561 -0.3699
 3352TIP3   OH231546   4.612   2.014   4.991 -0.1844 -0.0411 -0.0087
 3352TIP3    H131547   4.652   2.092   5.029  0.0658  1.2775 -2.7672
 3352TIP3    H231548   4.553   2.047   4.923 -3.3663 -2.0965  1.4996
 3353TIP3   OH231549   0.104   4.420  12.840 -0.1671  0.2667 -0.1142
 3353TIP3    H131550   0.137   4.342  12.794  0.2806 -0.1738  0.9270
 3353TIP3    H231551   0.098   4.394  12.931 -1.3076  1.0547  0.0597
 3354TIP3   OH231552   5.602   5.024   3.371  0.3644  0.3989  0.2082
 3354TIP3    H131553   5.601   5.100   3.312 -0.3693  0.4664  0.2956
 3354TIP3    H231554   5.521   5.032   3.421  0.3419 -0.3741  0.3074
 3355TIP3   OH231555   4.279   1.469  14.127  0.2274  0.0525  0.1632
 3355TIP3    H131556   4.194   1.498  14.094  0.9456 -0.7246 -2.6341
 3355TIP3    H231557   4.324   1.550  14.151 -1.0928  0.5032  1.2021
 3356TIP3   OH231558   1.583   2.061  15.240 -0.0006 -0.3900 -0.2161
 3356TIP3    H131559   1.641   2.010  15.182 -2.2339 -1.4431 -1.6832
 3356TIP3    H231560   1.592   2.019  15.325  0.4275 -1.3451 -0.7128
 3357TIP3   OH231561   1.893   1.888   6.259 -0.5705 -0.0957  0.0529
 3357TIP3    H131562   1.988   1.890   6.252 -0.6748 -0.4859 -2.2954
 3357TIP3    H231563   1.871   1.962   6.315  1.0573  0.7167 -0.3388
 3358TIP3   OH231564   1.778   0.195  16.890 -0.4302  0.0407 -1.0985
 3358TIP3    H131565   1.764   0.212  16.983  2.0509 -2.3055 -0.1510
 3358TIP3    H231566   1.843   0.260  16.863  1.5024 -1.3928 -0.1584
 3359TIP3   OH231567   3.159   3.935  14.189 -0.3336 -0.7247 -0.4371
 3359TIP3    H131568   3.226   3.885  14.237 -0.6250 -0.5776  0.1410
 3359TIP3    H231569   3.145   3.886  14.108  0.6558 -0.6175 -0.6838
 3360TIP3   OH231570   2.329   4.032   6.218  0.0214  0.2293 -0.2888
 3360TIP3    H131571   2.332   3.938   6.203  0.5123 -0.0774  1.4682
 3360TIP3    H231572   2.359   4.043   6.308 -1.5721  1.9200  0.1071
 3361TIP3   OH231573   0.615   6.006  16.295 -0.2458  0.4444  0.6446
 3361TIP3    H131574   0.650   5.917  16.287 -1.8977 -0.2368  0.4300
 3361TIP3    H231575   0.569   6.005  16.379 -0.2925  1.0811  0.6268
 3362TIP3   OH231576   4.009   5.579  12.739 -0.3808 -0.0857 -0.6145
 3362TIP3    H131577   4.030   5.664  12.701  0.1161 -0.3714 -0.9834
 3362TIP3    H231578   4.075   5.566  12.807 -0.4473 -0.1893 -0.5701
 3363TIP3   OH231579   0.635   6.460   6.264  0.2784  0.4231  0.8550
 3363TIP3    H131580   0.611   6.368   6.254  2.8449 -0.4892  2.3192
 3363TIP3    H231581   0.607   6.483   6.352 -0.7612  1.2368  0.3429
 3364TIP3   OH231582   0.488   1.229   6.531  0.0178 -0.6701  0.1921
 3364TIP3    H131583   0.529   1.252   6.614  3.6175 -0.8359 -1.3556
 3364TIP3    H231584   0.486   1.311   6.482  0.9328 -1.1387 -0.6704
 3365TIP3   OH231585   1.246   1.495  15.418  0.9995 -0.8128 -0.0335
 3365TIP3    H131586   1.221   1.403  15.408  0.6528 -0.8668  1.2005
 3365TIP3    H231587   1.194   1.526  15.492 -0.6982  1.0527 -1.8487
 3366TIP3   OH231588   3.572   4.902  13.259 -0.2863  0.0198 -0.0795
 3366TIP3    H131589   3.661   4.918  13.227 -0.1080 -0.6035  0.0838
 3366TIP3    H231590   3.561   4.807  13.252 -0.3074 -0.1264  1.5165
 3367TIP3   OH231591   0.107   0.557  12.895  0.2120  0.1930 -0.4421
 3367TIP3    H131592   0.116   0.567  12.800  1.1420 -1.5437 -0.5633
 3367TIP3    H231593   0.072   0.642  12.924  2.3808  1.7546 -2.0007
 3368TIP3   OH231594   1.491   2.061  12.527  0.2007 -0.2094 -0.6140
 3368TIP3    H131595   1.542   2.105  12.595 -1.3870 -0.7346  0.9823
 3368TIP3    H231596   1.553   2.049  12.454  2.1208 -0.1667  0.9418
 3369TIP3   OH231597   5.042   0.049   5.998  0.2055  0.3815  0.2373
 3369TIP3    H131598   4.971   0.113   6.004  0.9708  1.3022 -0.2097
 3369TIP3    H231599   5.018  -0.007   5.925 -2.3554 -2.2950  2.8875
 3370TIP3   OH231600   5.124   6.324  16.530 -0.7155  0.2956  0.4285
 3370TIP3    H131601   5.146   6.232  16.544  0.3059  0.5990  0.9166
 3370TIP3    H231602   5.206   6.371  16.543 -0.6188  1.0723 -2.2794
 3371TIP3   OH231603   4.900   6.083  14.009  0.4739  0.1213  0.8472
 3371TIP3    H131604   4.858   6.131  13.938  1.6078  0.3331  0.2905
 3371TIP3    H231605   4.849   6.002  14.017  0.1653  0.2241 -0.0148
 3372TIP3   OH231606   6.035   6.205  11.592  0.1153  0.1133  0.3842
 3372TIP3    H131607   6.006   6.115  11.603  0.3985  0.1101  1.1409
 3372TIP3    H231608   6.038   6.218  11.497 -0.3594 -0.5291  0.2788
 3373TIP3   OH231609   6.130   6.109  13.975  0.3009 -0.2266 -0.3678
 3373TIP3    H131610   6.095   6.160  13.901 -0.7305  0.1426  0.3475
 3373TIP3    H231611   6.220   6.139  13.984  0.2684  0.1313 -1.1197
 3374TIP3   OH231612   4.351   3.701   3.224  0.0412 -0.5310 -0.2240
 3374TIP3    H131613   4.285   3.702   3.294  1.8198 -2.7228  1.6760
 3374TIP3    H231614   4.331   3.622   3.173  0.0655 -0.1545 -0.8191
 3375TIP3   OH231615   0.741   6.777  14.919 -0.2275  0.2669 -0.1359
 3375TIP3    H131616   0.688   6.839  14.968 -0.8938 -0.3084 -0.1114
 3375TIP3    H231617   0.682   6.703  14.901  0.7242 -0.6571  0.4167
 3376TIP3   OH231618   5.835   0.204   4.020  0.0454 -0.0335 -0.1165
 3376TIP3    H131619   5.772   0.150   3.973 -0.1350  0.2710 -0.2274
 3376TIP3    H231620   5.829   0.174   4.111 -0.2676  0.0005 -0.1241
 3377TIP3   OH231621   2.786   0.071   3.673 -0.2709  0.2731 -0.5381
 3377TIP3    H131622   2.740  -0.012   3.660  0.2889 -0.3434  1.1243
 3377TIP3    H231623   2.728   0.137   3.636 -0.9846 -0.8050 -1.3928
 3378TIP3   OH231624   4.663   6.674   3.608  0.1142  0.8636  0.2570
 3378TIP3    H131625   4.625   6.657   3.694  1.1578 -0.7585  0.4312
 3378TIP3    H231626   4.604   6.740   3.569 -1.1849  0.5783  1.6292
 3379TIP3   OH231627   2.871   2.504  15.263 -0.3525  0.5645  0.3308
 3379TIP3    H131628   2.855   2.571  15.329 -3.0251  2.1157 -1.7123
 3379TIP3    H231629   2.935   2.544  15.204  2.1298 -0.8663  1.8615
 3380TIP3   OH231630   5.992   4.641   1.985 -0.1406 -0.2289 -0.1591
 3380TIP3    H131631   5.969   4.551   1.961  0.1665 -0.3935  0.1640
 3380TIP3    H231632   6.076   4.657   1.941  0.1876 -0.3666  0.4173
 3381TIP3   OH231633   2.049   4.707  11.371  0.3043  0.3171 -0.4727
 3381TIP3    H131634   2.132   4.743  11.402 -0.1662  2.1433 -1.1974
 3381TIP3    H231635   2.034   4.749  11.287 -1.9833  1.0420  0.2172
 3382TIP3   OH231636   6.399   5.662   4.351  0.1284  0.7399  0.3278
 3382TIP3    H131637   6.468   5.728   4.360  2.0319 -1.0667 -0.3538
 3382TIP3    H231638   6.441   5.579   4.372 -1.4703 -0.6202 -1.4554
 3383TIP3   OH231639   0.530   5.689   5.013  0.5925 -0.2192 -0.1922
 3383TIP3    H131640   0.507   5.747   5.085 -0.1171 -1.4175  0.5941
 3383TIP3    H231641   0.545   5.604   5.055  1.6118 -0.6113 -1.2950
 3384TIP3   OH231642   2.682   4.420   3.772  0.6792  0.1621 -0.4067
 3384TIP3    H131643   2.632   4.497   3.799  0.8186 -0.7164  2.7694
 3384TIP3    H231644   2.769   4.454   3.749  0.9893  0.9494  1.7167
 3385TIP3   OH231645   4.094   3.298  12.561 -0.1524 -0.7653 -0.1090
 3385TIP3    H131646   4.075   3.341  12.478  2.6690  0.7755 -0.0893
 3385TIP3    H231647   4.023   3.325  12.619 -0.5362  0.7046 -1.2025
 3386TIP3   OH231648   5.232   6.562   1.702  0.0070  0.1936 -0.3406
 3386TIP3    H131649   5.256   6.602   1.786  0.7980 -0.1328 -0.4077
 3386TIP3    H231650   5.299   6.592   1.641  1.0296 -1.7397 -0.2459
 3387TIP3   OH231651   1.203   0.589  13.278  0.2166 -0.0397  0.3642
 3387TIP3    H131652   1.215   0.501  13.314  0.4584 -0.7773 -1.4479
 3387TIP3    H231653   1.281   0.604  13.225 -0.5946  0.5777 -0.6985
 3388TIP3   OH231654   3.731   6.521  12.012  0.4205  0.3275 -0.1600
 3388TIP3    H131655   3.709   6.430  12.029 -2.1264  0.7392 -0.9319
 3388TIP3    H231656   3.824   6.519  11.991  0.4550 -2.0561 -0.0627
 3389TIP3   OH231657   4.342   6.172   1.744 -0.3486 -0.8994  0.3395
 3389TIP3    H131658   4.325   6.230   1.818 -0.0904  0.4236 -0.6116
 3389TIP3    H231659   4.405   6.108   1.778  0.3261  0.1131  1.0544
 3390TIP3   OH231660   6.091   6.514  11.000 -0.0167  0.4296 -0.4615
 3390TIP3    H131661   6.175   6.481  10.967  0.6861 -1.9263  3.1407
 3390TIP3    H231662   6.113   6.555  11.083 -2.4801 -0.7011  0.8295
 3391TIP3   OH231663   3.501   4.329  14.159  0.7027  0.3542 -0.2513
 3391TIP3    H131664   3.421   4.369  14.193 -0.1347 -2.5341  1.4769
 3391TIP3    H231665   3.474   4.244  14.127  2.9715 -0.3950 -0.3393
 3392TIP3   OH231666   0.181   0.877  14.344  0.0243  0.1755  0.0064
 3392TIP3    H131667   0.216   0.871  14.255 -0.9244  1.8350 -0.5159
 3392TIP3    H231668   0.095   0.837  14.338 -0.7711  1.8450 -0.2865
 3393TIP3   OH231669   5.997   5.606  13.321  0.1909 -0.1298  0.7293
 3393TIP3    H131670   6.084   5.641  13.305  0.7510 -1.8582 -0.2531
 3393TIP3    H231671   5.938   5.677  13.297  1.2699  0.1785 -1.1907
 3394TIP3   OH231672   5.633   0.175   4.904 -0.2686  0.1542  0.2886
 3394TIP3    H131673   5.543   0.144   4.918 -0.7592  1.0164 -0.8556
 3394TIP3    H231674   5.626   0.270   4.902  0.4406  0.1991 -1.1966
 3395TIP3   OH231675   5.121   5.329  13.595  0.4304 -0.4410  0.4079
 3395TIP3    H131676   5.200   5.372  13.562  1.0613 -1.0817  1.0342
 3395TIP3    H231677   5.075   5.397  13.644  1.4302 -0.4705  1.4117
 3396TIP3   OH231678   0.419   6.072  12.866  0.5935  0.3531  0.6341
 3396TIP3    H131679   0.459   5.993  12.829  2.5364  1.3135  0.5487
 3396TIP3    H231680   0.448   6.073  12.958  0.1232  0.6733  0.7818
 3397TIP3   OH231681   2.651   4.915  16.201  0.5180  0.5700 -0.1856
 3397TIP3    H131682   2.607   4.962  16.130  0.0451 -0.4704 -0.5926
 3397TIP3    H231683   2.643   4.823  16.178  0.0726  0.1923  1.3687
 3398TIP3   OH231684   2.484   0.129   3.946  0.1912 -0.1355 -0.8273
 3398TIP3    H131685   2.553   0.195   3.946  0.5088 -0.4305  0.9433
 3398TIP3    H231686   2.440   0.140   4.030 -2.1270  0.2121 -1.9968
 3399TIP3   OH231687   1.094   6.318  12.709 -0.4882  0.6931  0.1414
 3399TIP3    H131688   1.123   6.262  12.782 -0.7949  1.0549  0.5430
 3399TIP3    H231689   1.099   6.407  12.744 -0.8419  0.8520 -0.2122
 3400TIP3   OH231690   2.623   3.813  16.297 -0.5554  0.7460  0.2170
 3400TIP3    H131691   2.568   3.879  16.340 -0.2977  0.5388  0.8838
 3400TIP3    H231692   2.688   3.864  16.250  1.1608  1.0303  2.6949
 3401TIP3   OH231693   0.344   3.107  10.710  0.0881  0.6033 -0.2366
 3401TIP3    H131694   0.270   3.130  10.766 -0.7915 -2.7914  0.1787
 3401TIP3    H231695   0.311   3.117  10.621 -0.2651  0.8432 -0.0830
 3402TIP3   OH231696   3.113   0.425  14.428  0.1050  0.1338  0.1674
 3402TIP3    H131697   3.115   0.503  14.373 -0.8977  0.6410  0.7980
 3402TIP3    H231698   3.109   0.459  14.518 -0.7052 -0.6146  0.4394
 3403TIP3   OH231699   3.038   1.369   3.359 -0.2554 -0.2169 -0.3334
 3403TIP3    H131700   3.017   1.393   3.449  0.7618 -0.6761  0.0301
 3403TIP3    H231701   3.124   1.407   3.343  0.3052 -1.5633 -0.5606
 3404TIP3   OH231702   5.088   4.945  13.447 -0.2644  0.0286  0.2473
 3404TIP3    H131703   5.114   4.879  13.383 -0.0128  1.4149 -1.1392
 3404TIP3    H231704   5.165   4.955  13.504  0.9558  1.3951 -1.5209
 3405TIP3   OH231705   6.163   0.050  10.991  0.0690  0.5458  0.0911
 3405TIP3    H131706   6.084   0.003  10.964  0.1058  0.5889 -0.0903
 3405TIP3    H231707   6.235   0.001  10.952  0.0099  2.0727 -2.0914
 3406TIP3   OH231708   3.884   2.830  15.195  0.4781 -0.5487 -0.0936
 3406TIP3    H131709   3.842   2.909  15.160  2.0553  0.8434  0.9844
 3406TIP3    H231710   3.955   2.863  15.250  0.1031 -2.6783  1.8449
 3407TIP3   OH231711   4.017   2.344  17.089  0.1000 -0.1028 -0.2366
 3407TIP3    H131712   4.064   2.375  17.166 -1.1055 -0.4219  0.6507
 3407TIP3    H231713   3.999   2.252  17.107  0.0707 -0.2692 -1.0478
 3408TIP3   OH231714   4.834   5.449  12.895  0.5110  0.0610 -1.0701
 3408TIP3    H131715   4.752   5.422  12.852 -0.8459  0.6445  1.0052
 3408TIP3    H231716   4.831   5.406  12.981  1.0516  2.2088  0.0775
 3409TIP3   OH231717   2.217   2.745   4.815 -0.0043 -0.0761  0.4917
 3409TIP3    H131718   2.245   2.666   4.771 -1.1747  0.4689 -1.3625
 3409TIP3    H231719   2.232   2.815   4.752 -1.4582  0.7940  1.0357
 3410TIP3   OH231720   4.399   6.677   1.223 -0.3533 -0.2064  0.3707
 3410TIP3    H131721   4.351   6.629   1.290  0.5213 -1.0587  0.4149
 3410TIP3    H231722   4.334   6.736   1.184 -1.2993 -0.9534  0.7740
 3411TIP3   OH231723   0.490   2.516   0.546  0.0114 -0.4578  0.4796
 3411TIP3    H131724   0.481   2.497   0.640  2.2239 -1.6588  0.5206
 3411TIP3    H231725   0.482   2.431   0.503 -2.3384  0.2407 -0.6210
 3412TIP3   OH231726   6.092   4.708   4.397  0.0576  0.8436  0.5475
 3412TIP3    H131727   6.130   4.795   4.407 -0.1924  1.0499 -0.2676
 3412TIP3    H231728   6.015   4.710   4.454  0.4494  0.9105  1.0826
 3413TIP3   OH231729   0.157   6.761  15.301  0.1274  0.0836 -0.0426
 3413TIP3    H131730   0.114   6.846  15.294  0.2518  0.0628 -1.4178
 3413TIP3    H231731   0.164   6.731  15.210 -1.6467 -2.2674  0.5108
 3414TIP3   OH231732   6.134   1.333  14.045  0.5512 -0.4457 -0.0093
 3414TIP3    H131733   6.210   1.390  14.056  0.6019 -0.4935 -0.1046
 3414TIP3    H231734   6.077   1.380  13.985  0.2802 -0.1887  0.4452
 3415TIP3   OH231735   6.280   3.343  15.075 -0.2554  0.3285  0.1230
 3415TIP3    H131736   6.292   3.304  14.989 -0.4312 -0.6165  0.5227
 3415TIP3    H231737   6.364   3.385  15.094  0.1625 -0.4311 -0.0183
 3416TIP3   OH231738   6.080   2.605  13.687 -0.1599 -0.3530 -0.0368
 3416TIP3    H131739   6.023   2.541  13.645 -1.8497  1.7563 -1.1105
 3416TIP3    H231740   6.166   2.590  13.647 -0.6524 -1.4934 -0.7294
 3417TIP3   OH231741   6.075   3.208   1.161  0.2191 -0.1251 -0.3164
 3417TIP3    H131742   6.109   3.293   1.189  0.8197 -0.4330 -0.0815
 3417TIP3    H231743   6.032   3.172   1.238 -1.3365  0.5845 -0.8171
 3418TIP3   OH231744   5.598   5.679  15.884 -1.0104 -0.4341 -0.4630
 3418TIP3    H131745   5.525   5.734  15.857  0.7474  1.2378 -2.0584
 3418TIP3    H231746   5.662   5.740  15.922 -0.2399 -1.8023  0.5462
 3419TIP3   OH231747   4.721   4.634  13.223 -0.0266 -0.0663  0.4884
 3419TIP3    H131748   4.807   4.627  13.180 -0.3639  0.4425 -0.2894
 3419TIP3    H231749   4.723   4.718  13.268 -0.7420  0.7629 -0.9777
 3420TIP3   OH231750   1.058   3.421   0.396  0.6027 -0.0209 -0.0695
 3420TIP3    H131751   1.062   3.390   0.487 -2.0438 -1.1438 -0.2317
 3420TIP3    H231752   0.964   3.437   0.382  1.2953  3.6739 -1.4973
 3421TIP3   OH231753   2.079   1.090  14.056 -0.2436 -0.5067  0.1466
 3421TIP3    H131754   2.144   1.110  14.124 -0.1750  0.7131 -0.2438
 3421TIP3    H231755   2.118   1.019  14.005 -0.4057 -1.6056  1.5085
 3422TIP3   OH231756   2.929   1.757   3.220 -0.1354  0.1377  0.4605
 3422TIP3    H131757   3.006   1.815   3.227  0.1596 -0.1108 -0.6256
 3422TIP3    H231758   2.859   1.807   3.262  0.4492  0.6668  0.8439
 3423TIP3   OH231759   3.576   2.183  11.194  0.5989 -0.1601 -0.7146
 3423TIP3    H131760   3.635   2.194  11.120 -0.9386  0.2723 -1.9435
 3423TIP3    H231761   3.532   2.268  11.203  3.4535  1.1894  3.2669
 3424TIP3   OH231762   4.381   4.138  17.017 -0.5031 -0.5593  0.3755
 3424TIP3    H131763   4.446   4.073  17.042  0.6887  1.3902  2.7207
 3424TIP3    H231764   4.357   4.114  16.928  3.8628 -1.0805 -0.8968
 3425TIP3   OH231765   1.794   0.179  14.434  0.0879 -0.2542  0.6320
 3425TIP3    H131766   1.794   0.273  14.452  0.9691 -0.4186  1.5988
 3425TIP3    H231767   1.853   0.168  14.360 -0.6910  0.0365 -0.0448
 3426TIP3   OH231768   5.940   2.337   1.883  0.7456  0.4294  0.1612
 3426TIP3    H131769   5.935   2.433   1.879  1.4882  0.5136  0.9175
 3426TIP3    H231770   5.971   2.311   1.796 -1.5962  0.6825 -0.8078
 3427TIP3   OH231771   6.182   0.882  15.104  0.3080  0.3831 -0.1367
 3427TIP3    H131772   6.185   0.841  15.017 -1.5222 -0.7851  0.3027
 3427TIP3    H231773   6.095   0.860  15.138  0.3215  2.2981  1.2944
 3428TIP3   OH231774   0.191   6.104   0.618  0.3112  0.8725  0.9630
 3428TIP3    H131775   0.150   6.022   0.645 -0.4380  0.3731 -1.4717
 3428TIP3    H231776   0.281   6.079   0.596 -0.3615  0.2831 -1.3715
 3429TIP3   OH231777   5.901   0.104  15.162 -0.3838 -0.0723  0.4032
 3429TIP3    H131778   5.983   0.153  15.158 -0.3143 -0.2567 -1.2077
 3429TIP3    H231779   5.924   0.016  15.132 -0.8518 -0.6219  1.5961
 3430TIP3   OH231780   0.642   3.943   2.976 -0.1527  0.1220  0.1538
 3430TIP3    H131781   0.673   4.033   2.979 -0.0540  0.1901 -1.6391
 3430TIP3    H231782   0.716   3.894   2.940 -0.7395 -0.3877 -0.3866
 3431TIP3   OH231783   3.819   3.618   4.811 -0.3412 -0.6030  0.2499
 3431TIP3    H131784   3.729   3.649   4.816  0.0993  1.0734 -1.3901
 3431TIP3    H231785   3.848   3.614   4.903 -1.4134  0.8717  0.6852
 3432TIP3   OH231786   0.911   3.135  13.556  0.6702 -0.0598 -0.1801
 3432TIP3    H131787   0.993   3.152  13.601  0.7899 -1.3184  0.1305
 3432TIP3    H231788   0.844   3.176  13.610  1.0285  0.3348 -0.0385
 3433TIP3   OH231789   5.874   5.773   0.495 -0.1226 -0.0840 -0.3020
 3433TIP3    H131790   5.938   5.841   0.477  0.0927 -0.5612 -1.4308
 3433TIP3    H231791   5.825   5.764   0.414  0.1496 -1.5699 -0.3343
 3434TIP3   OH231792   0.184   6.584  12.602 -0.5157 -0.5525 -0.4619
 3434TIP3    H131793   0.206   6.634  12.524 -0.3710 -0.0117 -0.0800
 3434TIP3    H231794   0.239   6.506  12.597  3.8975  1.9985  1.8869
 3435TIP3   OH231795   1.083   3.423  12.450 -0.0761 -0.2415 -0.1615
 3435TIP3    H131796   1.165   3.421  12.499  0.0479  0.6035 -0.3151
 3435TIP3    H231797   1.017   3.392  12.512  0.2775 -0.4109  0.1308
 3436TIP3   OH231798   2.342   5.876   2.176  0.2726 -0.2785  0.2436
 3436TIP3    H131799   2.422   5.824   2.172  0.5837  0.1153  1.1846
 3436TIP3    H231800   2.282   5.825   2.230 -0.3559 -0.8644 -0.9567
 3437TIP3   OH231801   1.527   5.574   3.010  0.4401 -0.5072 -0.1375
 3437TIP3    H131802   1.573   5.641   2.958 -0.3659  0.6531  0.5923
 3437TIP3    H231803   1.591   5.548   3.076  1.2425 -1.5061 -1.2780
 3438TIP3   OH231804   4.488   6.225   3.496 -0.0778 -0.8385  0.1332
 3438TIP3    H131805   4.420   6.285   3.464 -0.9158 -1.2371  1.0876
 3438TIP3    H231806   4.486   6.237   3.591  2.7839  0.7931  0.0878
 3439TIP3   OH231807   0.114   4.576   2.611 -0.2098  0.1293 -0.4778
 3439TIP3    H131808   0.100   4.651   2.553 -0.5483  0.1140 -0.4189
 3439TIP3    H231809   0.150   4.508   2.553 -3.5331 -1.0155 -1.4760
 3440TIP3   OH231810   0.187   6.372  13.612 -0.1652 -0.5440 -0.1184
 3440TIP3    H131811   0.248   6.377  13.686 -0.8874  0.6596  0.4366
 3440TIP3    H231812   0.231   6.421  13.542 -0.0064 -0.6346 -0.0823
 3441TIP3   OH231813   0.493   6.728  14.616 -0.0828 -0.0652 -0.1548
 3441TIP3    H131814   0.546   6.705  14.692  1.4056 -1.4710 -1.5241
 3441TIP3    H231815   0.404   6.737  14.650  0.8266  1.3328  2.0562
 3442TIP3   OH231816   0.078   6.587  10.707 -0.3134 -0.0190 -0.3169
 3442TIP3    H131817   0.153   6.646  10.710 -0.5748  0.2667  0.8002
 3442TIP3    H231818   0.115   6.501  10.726 -0.4923  0.3620  1.9304
 3443TIP3   OH231819   3.890   4.535   3.903  0.4755 -0.5019  0.3613
 3443TIP3    H131820   3.978   4.572   3.900  1.0051 -1.4179  2.8810
 3443TIP3    H231821   3.891   4.464   3.839  0.8619  0.8286 -1.1694
 3444TIP3   OH231822   6.125   3.436   2.949 -0.2002 -0.2005 -0.1094
 3444TIP3    H131823   6.197   3.406   3.003 -0.7371 -1.2784  0.0403
 3444TIP3    H231824   6.079   3.356   2.924 -0.4963  0.3464 -1.4079
 3445TIP3   OH231825   3.417   6.158   2.608  0.1287 -0.1478 -0.0078
 3445TIP3    H131826   3.505   6.159   2.645 -0.1092  0.1294  0.5597
 3445TIP3    H231827   3.360   6.185   2.680 -0.5116 -1.0731 -0.1452
 3446TIP3   OH231828   0.573   1.921  13.599  0.2903  0.3339  0.6763
 3446TIP3    H131829   0.634   1.952  13.532  0.7656 -2.1470 -0.1382
 3446TIP3    H231830   0.563   1.995  13.659  2.3797  1.5453 -0.3772
 3447TIP3   OH231831   0.809   6.597   1.464 -0.3446 -0.1810  0.0105
 3447TIP3    H131832   0.883   6.628   1.518 -1.1836  0.1400  1.0156
 3447TIP3    H231833   0.816   6.647   1.383  0.9354 -0.6490 -0.1974
 3448TIP3   OH231834   3.046   5.807   6.599 -0.1207 -0.1488  0.3009
 3448TIP3    H131835   3.057   5.899   6.620 -3.6689  0.1278  1.4677
 3448TIP3    H231836   3.022   5.806   6.506  1.7877 -0.1759 -0.2523
 3449TIP3   OH231837   4.383   3.356   3.372  0.0660 -0.1604 -0.0768
 3449TIP3    H131838   4.458   3.296   3.377  0.1102 -0.1363 -0.4012
 3449TIP3    H231839   4.378   3.379   3.279  0.4453  0.8478  0.1423
 3450TIP3   OH231840   1.128   5.794  17.251 -0.6436  0.2697 -1.3333
 3450TIP3    H131841   1.079   5.719  17.218 -1.7679  0.6828 -0.6742
 3450TIP3    H231842   1.083   5.870  17.214 -1.6505  0.7255  0.6817
 3451TIP3   OH231843   4.266   0.582  13.385  0.2527  0.2859 -0.6996
 3451TIP3    H131844   4.171   0.597  13.381 -0.2710 -2.4588 -0.8812
 3451TIP3    H231845   4.288   0.594  13.478 -0.4312  0.2798 -0.5290
 3452TIP3   OH231846   3.779   3.119  16.254  0.0395 -0.9742  0.1943
 3452TIP3    H131847   3.745   3.059  16.320 -0.7508 -0.3454  0.3819
 3452TIP3    H231848   3.766   3.073  16.171  1.5251 -1.9860  0.4998
 3453TIP3   OH231849   2.949   2.864  10.792  0.5930  0.6975  0.1405
 3453TIP3    H131850   2.999   2.828  10.865  0.5468  0.6931  0.1697
 3453TIP3    H231851   2.965   2.959  10.797  1.2757  0.6151 -0.3453
 3454TIP3   OH231852   4.885   6.515   1.509 -0.1738  0.2141 -0.2788
 3454TIP3    H131853   4.932   6.433   1.519  1.6338  1.4010  2.0557
 3454TIP3    H231854   4.824   6.518   1.583 -1.7479  0.0839 -1.5280
 3455TIP3   OH231855   5.635   6.774   2.580  0.0004 -0.3553 -0.3970
 3455TIP3    H131856   5.677   6.689   2.568 -1.6617 -1.2808  0.0350
 3455TIP3    H231857   5.596   6.794   2.495 -2.3690 -1.6385  0.2927
 3456TIP3   OH231858   3.002   1.079   6.907  0.3848  0.0666  0.1280
 3456TIP3    H131859   3.077   1.055   6.852 -1.9414 -0.6843 -3.0409
 3456TIP3    H231860   2.989   1.172   6.892  0.5917  0.1675  0.5638
 3457TIP3   OH231861   2.356   0.652   0.128 -0.6093  0.0928  0.0288
 3457TIP3    H131862   2.408   0.582   0.089  2.2615  1.1599  1.6161
 3457TIP3    H231863   2.361   0.724   0.066 -0.3859  0.1139  0.0710
 3458TIP3   OH231864   5.299   3.703   0.981 -0.1322  0.3712 -0.3773
 3458TIP3    H131865   5.282   3.796   0.967 -0.7723  0.4135  0.5644
 3458TIP3    H231866   5.265   3.686   1.069  1.0100 -0.4980 -0.0912
 3459TIP3   OH231867   3.996   0.012   2.567  0.6594  0.0917 -0.3154
 3459TIP3    H131868   4.080   0.052   2.592  0.1517 -0.0831  1.8759
 3459TIP3    H231869   3.934   0.085   2.567  0.0070 -0.3798  2.3314
 3460TIP3   OH231870   2.039   0.900  16.893  0.8785 -0.2854  0.2016
 3460TIP3    H131871   2.114   0.876  16.838  1.0744 -0.6574  0.6141
 3460TIP3    H231872   1.984   0.822  16.893  0.5060 -0.0243 -0.0718
 3461TIP3   OH231873   5.411   2.530   5.416  0.1528 -0.2730  0.4666
 3461TIP3    H131874   5.356   2.536   5.338 -1.8145  0.2374  1.8153
 3461TIP3    H231875   5.413   2.619   5.451  1.9534 -0.2674  0.4121
 3462TIP3   OH231876   2.541   4.785   0.372 -0.2837  0.8595  0.2645
 3462TIP3    H131877   2.544   4.761   0.464  1.0204 -0.4360 -0.0796
 3462TIP3    H231878   2.473   4.852   0.367 -2.6944 -1.2970  1.6492
 3463TIP3   OH231879   5.059   3.176   1.230 -0.7941  0.0423 -0.5090
 3463TIP3    H131880   5.141   3.126   1.234 -0.1178  1.1699  0.9150
 3463TIP3    H231881   5.029   3.179   1.321 -2.7809 -0.8833 -1.0963
 3464TIP3   OH231882   0.009   1.266  14.336 -0.1750  0.1106  0.0341
 3464TIP3    H131883  -0.059   1.331  14.319 -0.0884 -0.2548 -1.8867
 3464TIP3    H231884  -0.040   1.189  14.367 -0.5754  0.1373 -0.5046
 3465TIP3   OH231885   3.250   6.242   4.489  0.4728 -0.5375  0.4161
 3465TIP3    H131886   3.186   6.313   4.487 -0.9228 -1.6554  2.1397
 3465TIP3    H231887   3.211   6.173   4.436  1.7906 -0.0972 -1.1982
 3466TIP3   OH231888   5.941   3.973  13.904  0.6545  0.2466 -0.3520
 3466TIP3    H131889   6.007   3.957  13.972  1.9926  0.5556 -1.5325
 3466TIP3    H231890   5.905   3.886  13.886 -0.1333  0.2414  1.1364
 3467TIP3   OH231891   3.065   0.215   4.382  0.2494 -0.2185 -0.2280
 3467TIP3    H131892   3.156   0.191   4.398 -0.1360 -0.9369  0.9805
 3467TIP3    H231893   3.039   0.264   4.460  0.0633  1.4358 -1.2716
 3468TIP3   OH231894   0.996   0.588  17.179  0.1951 -0.3637  0.0110
 3468TIP3    H131895   1.004   0.520  17.245  1.2544 -1.9441 -1.6737
 3468TIP3    H231896   0.922   0.560  17.124  0.0230  0.3542 -0.1417
 3469TIP3   OH231897   3.805   6.333   4.084 -0.8004  0.1657 -0.0144
 3469TIP3    H131898   3.847   6.357   4.166 -1.7058  1.8226  0.0035
 3469TIP3    H231899   3.754   6.255   4.105 -0.5503  0.2230  0.8467
 3470TIP3   OH231900   5.534   5.064  16.076 -0.6341  0.1080 -0.0677
 3470TIP3    H131901   5.570   5.115  16.002  3.4645 -1.7302  0.4097
 3470TIP3    H231902   5.541   4.973  16.048  1.2956 -0.6655  2.5904
 3471TIP3   OH231903   4.938   1.090   0.657 -0.4789  0.3105 -0.3894
 3471TIP3    H131904   4.956   1.036   0.581  0.9906 -0.6723  0.6181
 3471TIP3    H231905   5.019   1.139   0.673 -0.4585 -0.1228  1.0176
 3472TIP3   OH231906   5.307   0.576  17.085 -0.2691  0.1199  0.2755
 3472TIP3    H131907   5.226   0.535  17.114 -1.0879  0.8020 -0.9863
 3472TIP3    H231908   5.296   0.669  17.103  0.0753  0.2667 -0.2214
 3473TIP3   OH231909   5.243   1.746  15.341  0.3523  0.2568  0.3271
 3473TIP3    H131910   5.203   1.802  15.407  0.4774  0.1299  0.5130
 3473TIP3    H231911   5.243   1.799  15.261 -0.9192 -0.0198  0.1127
 3474TIP3   OH231912   0.616   0.280  13.022  0.6518 -0.3908  0.1000
 3474TIP3    H131913   0.542   0.220  13.015  1.1816 -1.4867  2.6083
 3474TIP3    H231914   0.674   0.255  12.950 -0.7818 -0.3757 -1.1164
 3475TIP3   OH231915   4.671   0.730  14.192  0.2291  0.0116  0.3893
 3475TIP3    H131916   4.665   0.752  14.285 -0.3085  1.2549  0.0881
 3475TIP3    H231917   4.763   0.744  14.169  0.1381  0.8067  0.4885
 3476TIP3   OH231918   5.347   2.179   4.058  0.0672 -0.3765 -0.2103
 3476TIP3    H131919   5.328   2.268   4.027 -1.2878 -1.2178 -1.9801
 3476TIP3    H231920   5.336   2.124   3.981 -3.4833 -2.6206  1.5957
 3477TIP3   OH231921   1.734   5.858  14.721  0.0696  0.2510  0.1262
 3477TIP3    H131922   1.779   5.803  14.657 -1.8984  0.3039 -1.3808
 3477TIP3    H231923   1.650   5.815  14.736 -0.1429  1.0811  1.5121
 3478TIP3   OH231924   1.149   5.352   0.865  0.6994  0.6700 -0.4339
 3478TIP3    H131925   1.085   5.295   0.909  1.8241 -0.1441  0.2034
 3478TIP3    H231926   1.180   5.410   0.935  1.1389  0.6156 -0.5845
 3479TIP3   OH231927   3.384   0.453  11.413 -0.4043 -0.1379 -0.4080
 3479TIP3    H131928   3.451   0.504  11.458  0.3861 -0.6573 -0.9797
 3479TIP3    H231929   3.393   0.477  11.321  0.2645 -1.6044 -0.7495
 3480TIP3   OH231930   5.065   0.088   5.237  0.2383  0.1950 -0.2826
 3480TIP3    H131931   5.075   0.151   5.167  3.4118  2.2668  1.7775
 3480TIP3    H231932   5.123   0.016   5.213  2.2617  1.4435  0.6499
 3481TIP3   OH231933   4.638   5.257  16.092 -0.6184 -0.1188  0.1038
 3481TIP3    H131934   4.569   5.307  16.049  0.6046  1.1349 -0.4653
 3481TIP3    H231935   4.675   5.317  16.156 -0.9232 -1.2296  1.3713
 3482TIP3   OH231936   1.146   3.693  12.660  0.1941  0.6273  0.1099
 3482TIP3    H131937   1.176   3.603  12.647 -0.1048  0.7678 -1.8331
 3482TIP3    H231938   1.077   3.705  12.595  0.2268  2.2680  0.3359
 3483TIP3   OH231939   6.606   3.594   2.361  0.0044  0.1559 -0.1889
 3483TIP3    H131940   6.658   3.516   2.341 -0.3042 -0.4024  1.0982
 3483TIP3    H231941   6.661   3.667   2.333  0.3582 -0.5091 -1.2888
 3484TIP3   OH231942   6.696   2.487   1.691  0.4968  0.0690 -0.1324
 3484TIP3    H131943   6.663   2.434   1.618 -0.0978  1.3413 -0.8230
 3484TIP3    H231944   6.788   2.461   1.700  0.7066  0.2169 -1.6410
 3485TIP3   OH231945   5.496   0.078  14.462 -0.3354  0.0986 -0.0988
 3485TIP3    H131946   5.527   0.168  14.451  0.8511 -0.0136  1.7590
 3485TIP3    H231947   5.490   0.043  14.374  2.5071  0.9623 -0.7342
 3486TIP3   OH231948   5.700   1.796   1.968 -0.6749  0.1915 -0.6908
 3486TIP3    H131949   5.707   1.863   2.036 -2.3817  1.3150 -1.5609
 3486TIP3    H231950   5.611   1.763   1.975 -0.4723 -0.5920 -1.5639
 3487TIP3   OH231951   0.759   4.561   6.561 -0.3118 -0.5419  0.0884
 3487TIP3    H131952   0.798   4.586   6.477 -4.4183 -0.4857 -2.0578
 3487TIP3    H231953   0.728   4.472   6.546 -1.5869 -0.3328  1.3604
 3488TIP3   OH231954   3.200   1.502  15.287  0.0689  0.6822  0.0199
 3488TIP3    H131955   3.254   1.451  15.348  1.4334  0.6663 -1.1451
 3488TIP3    H231956   3.211   1.593  15.316  1.7911  0.8278 -0.9266
 3489TIP3   OH231957   1.782   4.773   2.675  0.0361  0.0024  0.0444
 3489TIP3    H131958   1.762   4.698   2.620 -1.1659 -1.7187  2.6095
 3489TIP3    H231959   1.877   4.783   2.669  0.4687 -2.8038  0.7932
 3490TIP3   OH231960   5.809   6.495  15.217 -0.0930 -0.0445 -0.0230
 3490TIP3    H131961   5.747   6.486  15.289 -0.2275 -0.0991 -0.1460
 3490TIP3    H231962   5.805   6.412  15.171  0.6189 -0.3243  0.4003
 3491TIP3   OH231963   5.276   4.385  15.867 -1.0765 -0.4309 -0.5364
 3491TIP3    H131964   5.219   4.380  15.790  0.0512 -0.5750 -1.3894
 3491TIP3    H231965   5.283   4.478  15.886 -0.3592 -0.2974 -1.3973
 3492TIP3   OH231966   3.950   3.887   5.668  0.3211  0.3997 -0.2534
 3492TIP3    H131967   4.012   3.895   5.741  1.8846 -0.0661 -1.4806
 3492TIP3    H231968   4.003   3.904   5.590 -0.5559 -2.2592 -1.5386
 3493TIP3   OH231969   3.641   0.796   1.841  0.0251 -0.5769 -0.2710
 3493TIP3    H131970   3.718   0.810   1.896 -0.9687 -0.2053  1.0845
 3493TIP3    H231971   3.674   0.803   1.752  1.2200  1.5890  0.2658
 3494TIP3   OH231972   5.423   2.616  14.802  0.4514  0.4311 -0.5662
 3494TIP3    H131973   5.507   2.578  14.780 -1.0648 -3.2369 -0.8028
 3494TIP3    H231974   5.369   2.601  14.724 -1.0637  0.3504  0.4592
 3495TIP3   OH231975   4.198   5.343  16.352  0.1464 -0.0248 -0.0295
 3495TIP3    H131976   4.187   5.404  16.424  0.5994 -0.9071  0.8066
 3495TIP3    H231977   4.116   5.293  16.349 -0.0685  0.3442 -0.4581
 3496TIP3   OH231978   1.028   4.618  11.882  1.0928  0.2914 -0.0568
 3496TIP3    H131979   1.013   4.705  11.845  1.0929  0.2754 -0.0950
 3496TIP3    H231980   1.022   4.559  11.807  1.5881  0.3113 -0.1162
 3497TIP3   OH231981   5.738   0.352   2.182 -0.3872 -0.0201  0.6587
 3497TIP3    H131982   5.714   0.444   2.189 -1.0250 -0.0899 -0.4567
 3497TIP3    H231983   5.661   0.304   2.213 -0.6428 -0.1991 -0.2368
 3498TIP3   OH231984   1.687   4.209   5.802 -0.3502  0.0237  0.2233
 3498TIP3    H131985   1.647   4.253   5.877  0.6923  0.2125  0.6908
 3498TIP3    H231986   1.706   4.280   5.740  1.2215  0.2711  0.9273
 3499TIP3   OH231987   0.777   2.381   4.866 -0.2272  0.7307 -0.5934
 3499TIP3    H131988   0.726   2.462   4.864 -0.2128  0.7730  0.3516
 3499TIP3    H231989   0.755   2.341   4.950  0.4072  0.1664 -0.6886
 3500TIP3   OH231990   6.276   1.976   1.049 -0.3283  0.3028 -0.3200
 3500TIP3    H131991   6.301   2.069   1.045  3.2313 -0.5134 -0.8572
 3500TIP3    H231992   6.329   1.941   1.121 -1.5583 -1.3516 -0.1773
 3501TIP3   OH231993   6.519   2.555  12.867 -0.1057  0.4156 -0.3413
 3501TIP3    H131994   6.445   2.569  12.926 -2.5091 -0.9191 -2.7941
 3501TIP3    H231995   6.497   2.606  12.788  1.5479 -0.1003 -1.1872
 3502TIP3   OH231996   5.222   2.597  12.227  0.0599 -0.0600 -0.0858
 3502TIP3    H131997   5.247   2.557  12.144  0.6172 -0.0870  0.0922
 3502TIP3    H231998   5.143   2.550  12.254  1.4650 -2.0629  0.8294
 3503TIP3   OH231999   6.650   3.597  16.142 -0.0765  0.1204  0.1817
 3503TIP3    H132000   6.730   3.644  16.119  0.0823 -0.5742 -0.7415
 3503TIP3    H232001   6.640   3.532  16.073 -0.5367 -0.8992  1.1747
 3504TIP3   OH232002   1.799   5.987  14.951  0.4337  0.0296  0.1548
 3504TIP3    H132003   1.777   5.925  14.882  0.7154  1.9785 -1.7891
 3504TIP3    H232004   1.727   6.051  14.949  0.5882  0.2730  1.5061
 3505TIP3   OH232005   0.261   2.360  13.650  0.5458 -0.1358 -0.5302
 3505TIP3    H132006   0.330   2.334  13.589  1.1293  1.0246 -0.3940
 3505TIP3    H232007   0.307   2.373  13.733 -0.3925 -2.7135  0.4923
 3506TIP3   OH232008   1.981   5.511   5.656  0.5871 -0.2448  0.2807
 3506TIP3    H132009   1.970   5.424   5.693  0.4608 -0.1598  0.4466
 3506TIP3    H232010   2.075   5.527   5.659  0.6061 -0.3574  0.2903
 3507TIP3   OH232011   5.966   3.462   5.542 -0.0611 -0.1700 -0.2750
 3507TIP3    H132012   6.001   3.495   5.460  0.7559  1.0313  0.5105
 3507TIP3    H232013   6.001   3.374   5.551  0.7209  0.0918 -0.7056
 3508TIP3   OH232014   4.524   3.854   2.241  0.6162  0.0830 -0.1200
 3508TIP3    H132015   4.521   3.941   2.201 -0.1627 -0.4388 -1.2492
 3508TIP3    H232016   4.558   3.869   2.329 -0.4922  1.6698  0.0708
 3509TIP3   OH232017   2.690   6.645   1.967  0.7600 -0.3074  0.1424
 3509TIP3    H132018   2.629   6.572   1.967 -0.3753  0.5703  1.6517
 3509TIP3    H232019   2.662   6.701   1.895 -0.8087  0.4874  1.3010
 3510TIP3   OH232020   1.724   6.027   4.893  0.2419  0.5474 -0.5995
 3510TIP3    H132021   1.648   5.980   4.859 -0.4116  0.4094  0.9558
 3510TIP3    H232022   1.720   6.112   4.851 -1.1195  0.7406 -0.1362
 3511TIP3   OH232023   4.005   0.535   0.135 -0.2685 -0.1415  0.2791
 3511TIP3    H132024   3.972   0.568   0.052  0.2465  1.4988  0.6838
 3511TIP3    H232025   4.014   0.613   0.190 -0.9039 -1.2191  1.9926
 3512TIP3   OH232026   0.599   2.730   2.387 -0.2480  0.3575  0.3505
 3512TIP3    H132027   0.519   2.680   2.406 -0.7996  1.2585  0.4231
 3512TIP3    H232028   0.633   2.689   2.307 -0.5445 -0.3159  0.5618
 3513TIP3   OH232029   4.832   3.762  14.708  0.0224 -0.8940 -0.4956
 3513TIP3    H132030   4.848   3.808  14.791  2.7331 -0.5059 -1.1417
 3513TIP3    H232031   4.781   3.686  14.732 -1.3167  0.4503  1.1666
 3514TIP3   OH232032   1.807   1.679   5.815 -0.4665 -0.4124 -0.1863
 3514TIP3    H132033   1.829   1.586   5.825 -0.6576 -0.5838 -1.2617
 3514TIP3    H232034   1.762   1.685   5.731 -0.1803  0.7081 -0.2826
 3515TIP3   OH232035   4.229   3.393   5.583  0.0590 -0.3810 -0.0001
 3515TIP3    H132036   4.172   3.466   5.604 -0.1734  0.3295 -2.7362
 3515TIP3    H232037   4.230   3.340   5.663 -1.0960  1.7038  1.5011
 3516TIP3   OH232038   6.622   1.839   5.697 -0.0034  0.1141  0.0024
 3516TIP3    H132039   6.593   1.780   5.767  1.7449 -1.1465 -0.2420
 3516TIP3    H232040   6.544   1.887   5.671 -1.5071 -1.9830  0.3583
 3517TIP3   OH232041   1.548   6.416  10.701  0.1687  0.1529  0.4487
 3517TIP3    H132042   1.478   6.368  10.744 -0.2060 -0.9236 -1.2886
 3517TIP3    H232043   1.523   6.508  10.711 -2.1765 -0.2230 -1.1373
 3518TIP3   OH232044   3.673   1.670   4.661 -0.0420  0.5578  0.1622
 3518TIP3    H132045   3.729   1.705   4.730  1.1007 -0.1689 -0.3483
 3518TIP3    H232046   3.666   1.742   4.598  0.0991  0.7483  0.3605
 3519TIP3   OH232047   1.428   1.721  10.830  0.3632 -0.1920  0.3517
 3519TIP3    H132048   1.349   1.688  10.873 -0.2365  1.3747  0.5121
 3519TIP3    H232049   1.412   1.708  10.737  0.1322 -0.3399  0.4106
 3520TIP3   OH232050   4.618   0.030  12.625 -0.5493 -0.1483 -0.4903
 3520TIP3    H132051   4.606  -0.005  12.713  1.7012 -0.4692 -0.2475
 3520TIP3    H232052   4.607   0.125  12.635 -0.1374 -0.1682  0.1733
 3521TIP3   OH232053   1.115   1.515  12.419 -0.3371 -0.2270  0.5736
 3521TIP3    H132054   1.173   1.457  12.469 -0.3059 -1.3866 -0.7532
 3521TIP3    H232055   1.043   1.535  12.479 -0.5588 -1.9996  0.9396
 3522TIP3   OH232056   1.387   2.672  13.852  0.3070  0.1592 -0.4164
 3522TIP3    H132057   1.440   2.696  13.928  0.0892 -0.2596 -0.1272
 3522TIP3    H232058   1.399   2.578  13.843 -0.3411  0.0646 -0.3772
 3523TIP3   OH232059   3.809   5.150  13.383 -0.3172 -0.5863  0.3398
 3523TIP3    H132060   3.888   5.102  13.361 -0.6612 -0.6503 -0.8418
 3523TIP3    H232061   3.813   5.229  13.329 -1.2249 -0.7727 -0.0334
 3524TIP3   OH232062   5.546   5.427   4.610  0.7845 -0.2090 -0.0017
 3524TIP3    H132063   5.469   5.370   4.601  0.6779  0.0227 -0.6521
 3524TIP3    H232064   5.553   5.470   4.525  0.1616  1.6333  0.8175
 3525TIP3   OH232065   4.144   5.704   1.280  0.5018  0.3533  0.5331
 3525TIP3    H132066   4.083   5.685   1.208 -0.4931  1.0626  1.1741
 3525TIP3    H232067   4.195   5.623   1.289  1.0184  0.4226 -1.3028
 3526TIP3   OH232068   4.653   4.006   0.581  0.8147 -0.0903 -0.7527
 3526TIP3    H132069   4.630   3.914   0.596 -0.0897  0.2854  0.3119
 3526TIP3    H232070   4.727   4.002   0.521  2.0444 -1.6034  0.7202
 3527TIP3   OH232071   2.988   4.141   0.072  0.0821 -0.5886  0.1864
 3527TIP3    H132072   2.984   4.046   0.066  0.2630 -0.4909 -2.2455
 3527TIP3    H232073   2.900   4.167   0.101 -0.4994 -1.4149 -0.7956
 3528TIP3   OH232074   5.303   0.049  17.055  0.2246 -0.0832  0.2959
 3528TIP3    H132075   5.302   0.111  17.128 -0.5055  2.1587 -1.5125
 3528TIP3    H232076   5.227  -0.007  17.071  0.5260 -0.1644  1.6296
 3529TIP3   OH232077   6.344   5.800   1.936  0.1974  0.1212 -0.2550
 3529TIP3    H132078   6.408   5.872   1.943 -0.3965  0.5297  1.7497
 3529TIP3    H232079   6.260   5.841   1.955 -0.4326 -0.7609 -1.0543
 3530TIP3   OH232080   1.098   1.780   0.128 -0.1048  0.3297 -0.5159
 3530TIP3    H132081   1.105   1.874   0.145  0.2889  0.3266 -0.6659
 3530TIP3    H232082   1.171   1.742   0.176  1.1251  0.3285 -2.2892
 3531TIP3   OH232083   5.376   4.517  14.506  0.3791  0.4859  0.1079
 3531TIP3    H132084   5.393   4.423  14.515 -0.1607  0.4450  0.9006
 3531TIP3    H232085   5.437   4.547  14.439 -0.2001 -0.6422 -0.9654
 3532TIP3   OH232086   2.884   6.076   6.434  0.2438  0.2636 -0.2433
 3532TIP3    H132087   2.862   6.161   6.472  0.3679  0.6601 -1.0172
 3532TIP3    H232088   2.965   6.051   6.477  0.3150  0.6386 -0.1511
 3533TIP3   OH232089   4.100   2.987   2.409  0.0144 -0.2547 -0.9764
 3533TIP3    H132090   4.125   3.059   2.466  0.3005 -1.1330  0.0489
 3533TIP3    H232091   4.180   2.966   2.360 -0.1256  0.2383 -1.4322
 3534TIP3   OH232092   1.009   4.223  15.510 -0.8628  0.6568 -0.3274
 3534TIP3    H132093   0.964   4.154  15.462 -0.6860  0.6104 -0.4252
 3534TIP3    H232094   1.086   4.243  15.457  0.1395 -0.4231  0.6836
 3535TIP3   OH232095   4.703   1.641  15.473 -0.4388 -0.1647 -0.3902
 3535TIP3    H132096   4.735   1.558  15.508 -0.2083 -0.5438 -1.4844
 3535TIP3    H232097   4.702   1.629  15.378 -0.2311  1.1468 -0.5749
 3536TIP3   OH232098   0.237   2.641  11.714  0.5047  0.2214 -0.3103
 3536TIP3    H132099   0.291   2.719  11.701 -0.4929  1.0709  0.4847
 3536TIP3    H232100   0.225   2.605  11.626 -0.0478  1.6633 -0.8408
 3537TIP3   OH232101   0.148   4.278  13.084 -0.7116 -0.3349  0.1010
 3537TIP3    H132102   0.125   4.187  13.065  0.9847 -0.4481 -1.7988
 3537TIP3    H232103   0.227   4.272  13.137 -0.4096  0.0175 -0.3015
 3538TIP3   OH232104   1.685   1.346  12.499  0.2863  0.2248  0.0415
 3538TIP3    H132105   1.679   1.365  12.405 -0.2685 -0.0720  0.0115
 3538TIP3    H232106   1.654   1.256  12.507  0.6139  0.1468  0.4768
 3539TIP3   OH232107   3.149   3.634  14.639  0.2476  0.0987  0.3469
 3539TIP3    H132108   3.095   3.566  14.599  3.1052 -0.8609 -2.2823
 3539TIP3    H232109   3.224   3.586  14.675  1.5545  1.6824 -0.1542
 3540TIP3   OH232110   6.412   3.613   3.334 -0.4843  0.5860  0.5113
 3540TIP3    H132111   6.415   3.700   3.295 -0.6794 -0.2186 -1.4102
 3540TIP3    H232112   6.469   3.560   3.279 -0.2011 -0.4817  1.7771
 3541TIP3   OH232113   2.777   5.662   4.868  0.3977 -0.4534  0.2352
 3541TIP3    H132114   2.869   5.635   4.878  0.2787 -0.6910  0.7482
 3541TIP3    H232115   2.727   5.592   4.910  0.0906  0.6989  1.8993
 3542TIP3   OH232116   2.128   6.634  11.724  0.3870 -1.0024 -0.0658
 3542TIP3    H132117   2.078   6.650  11.804  0.9372 -1.3987  0.3631
 3542TIP3    H232118   2.217   6.616  11.754  0.9044  0.1087 -0.8381
 3543TIP3   OH232119   6.161   1.068  11.485 -0.4041  0.2930  0.2079
 3543TIP3    H132120   6.244   1.022  11.475 -0.0349  0.7483  1.0587
 3543TIP3    H232121   6.186   1.160  11.498 -1.0975  0.6380 -0.7336
 3544TIP3   OH232122   6.014   1.650  16.561  0.8126 -0.1872  0.3564
 3544TIP3    H132123   6.042   1.712  16.628  0.4433 -0.9355  1.2160
 3544TIP3    H232124   5.949   1.698  16.510 -0.0094 -0.0851  1.4640
 3545TIP3   OH232125   1.418   0.251  15.191  0.1521 -1.0994 -0.1581
 3545TIP3    H132126   1.460   0.168  15.214  1.7217 -0.7537 -1.5982
 3545TIP3    H232127   1.445   0.268  15.101 -2.6966 -0.5637 -1.0284
 3546TIP3   OH232128   2.970   1.083   5.957  0.1712 -0.2531 -0.6135
 3546TIP3    H132129   3.015   1.084   5.872  0.5616 -0.8493 -0.4175
 3546TIP3    H232130   3.040   1.093   6.022 -0.2911  2.1273 -0.3933
 3547TIP3   OH232131   0.217   4.095  14.781  0.0200  0.2260 -0.0627
 3547TIP3    H132132   0.140   4.038  14.774  0.8037 -0.8294 -0.1900
 3547TIP3    H232133   0.265   4.061  14.857  1.1093 -0.0411 -0.8562
 3548TIP3   OH232134   4.039   3.228  14.199 -0.2025  0.3328  0.1063
 3548TIP3    H132135   4.023   3.136  14.181 -0.1790  0.3157  0.1739
 3548TIP3    H232136   4.018   3.239  14.292  2.1410 -0.1242  0.7445
 3549TIP3   OH232137   6.016   0.383   2.363 -0.1988  0.2731 -0.0637
 3549TIP3    H132138   5.964   0.350   2.436  0.4368  0.7972  0.6457
 3549TIP3    H232139   6.100   0.409   2.403 -0.1566  1.3852 -0.8259
 3550TIP3   OH232140   5.268   1.163   4.722 -0.3881  0.4032 -0.2203
 3550TIP3    H132141   5.349   1.126   4.758 -0.0023  0.8331 -0.6253
 3550TIP3    H232142   5.210   1.088   4.713 -0.3138  0.2107  0.7961
 3551TIP3   OH232143   2.353   5.037   5.769  0.3383 -0.1081  0.2707
 3551TIP3    H132144   2.320   5.069   5.853  1.5277  1.9820  0.0245
 3551TIP3    H232145   2.377   5.117   5.721  2.2035 -1.3326 -0.9708
 3552TIP3   OH232146   2.255   4.903   1.815  0.3932  0.4705  0.0160
 3552TIP3    H132147   2.277   4.830   1.872  1.2457  0.3224 -0.4853
 3552TIP3    H232148   2.276   4.981   1.867 -0.6343  0.3794  0.5960
 3553TIP3   OH232149   0.011   2.873  12.152  0.0275  0.4904  0.1095
 3553TIP3    H132150  -0.036   2.817  12.090  1.5017 -2.4614  1.4489
 3553TIP3    H232151   0.081   2.817  12.186  1.4713  3.1305  1.7937
 3554TIP3   OH232152   5.856   1.647   2.797 -0.5025 -0.1809  0.5076
 3554TIP3    H132153   5.869   1.675   2.707 -2.5083  2.0005  0.7962
 3554TIP3    H232154   5.827   1.726   2.843  1.0939 -1.0640  3.2491
 3555TIP3   OH232155   2.951   3.412  10.584 -0.0378 -0.5442 -0.4711
 3555TIP3    H132156   3.044   3.391  10.578 -0.0985 -0.8640 -0.2615
 3555TIP3    H232157   2.913   3.377  10.503 -0.0867 -0.9721 -0.2626
 3556TIP3   OH232158   0.047   4.995   0.277  0.3833 -0.3381 -0.4675
 3556TIP3    H132159   0.095   4.921   0.314  1.0622  0.1324 -0.3938
 3556TIP3    H232160   0.096   5.020   0.200 -1.1170 -1.4105 -1.8456
 3557TIP3   OH232161   6.474   3.489  14.737 -0.1541 -0.4235 -0.0193
 3557TIP3    H132162   6.456   3.483  14.643  0.0766 -0.6226 -0.0518
 3557TIP3    H232163   6.528   3.567  14.746 -0.9696  0.1517  0.0731
 3558TIP3   OH232164   5.263   6.683  11.656  0.3143  0.1025 -0.5921
 3558TIP3    H132165   5.211   6.668  11.577  1.3020 -0.0140 -1.2279
 3558TIP3    H232166   5.350   6.651  11.635  0.1902 -1.5620  1.1528
 3559TIP3   OH232167   3.706   2.615   5.180 -0.0603 -0.0824  1.0611
 3559TIP3    H132168   3.627   2.669   5.174 -0.8503 -0.9683  2.7979
 3559TIP3    H232169   3.716   2.598   5.274  1.2874 -1.3188  0.7252
 3560TIP3   OH232170   1.156   1.687  10.879  0.5692  0.0367 -0.3406
 3560TIP3    H132171   1.110   1.739  10.814 -0.7662  0.9157  1.2294
 3560TIP3    H232172   1.108   1.604  10.882  0.8044 -0.1140 -0.6538
 3561TIP3   OH232173   3.111   6.669  13.901 -0.2417 -0.6408  0.6015
 3561TIP3    H132174   3.148   6.586  13.872  1.3606  0.3496 -0.3677
 3561TIP3    H232175   3.075   6.650  13.988  1.3913 -2.0215  1.0379
 3562TIP3   OH232176   2.612   3.034  16.553  0.0407  0.3919  0.3867
 3562TIP3    H132177   2.619   3.010  16.460 -0.7967 -0.3199  0.5004
 3562TIP3    H232178   2.673   2.974  16.597  0.6744  0.9387  0.2757
 3563TIP3   OH232179   6.556   1.310   0.612  0.5930  0.5257 -0.2329
 3563TIP3    H132180   6.642   1.348   0.632  0.4098  0.3983  0.8525
 3563TIP3    H232181   6.493   1.377   0.638  0.3506  1.8512 -3.6697
 3564TIP3   OH232182   6.081   3.159   6.593  0.5311  0.1219 -0.0459
 3564TIP3    H132183   6.075   3.069   6.562  1.0106 -0.1294  0.5492
 3564TIP3    H232184   6.134   3.204   6.528  0.3205 -0.0368 -0.3260
 3565TIP3   OH232185   5.277   2.881  15.450  0.5374 -0.4588  0.4410
 3565TIP3    H132186   5.338   2.947  15.419  1.2573 -1.3948 -0.1990
 3565TIP3    H232187   5.297   2.870  15.543  0.4389  0.1784  0.5404
 3566TIP3   OH232188   3.794   6.699  16.429 -0.8994  0.3562  0.1126
 3566TIP3    H132189   3.722   6.750  16.393 -1.4676 -0.5235 -0.0545
 3566TIP3    H232190   3.751   6.635  16.486 -0.2985 -0.4929 -0.3545
 3567TIP3   OH232191   1.826   1.474  15.864 -0.2801  1.0544  0.0170
 3567TIP3    H132192   1.833   1.565  15.892  0.8258  0.5947  1.3255
 3567TIP3    H232193   1.916   1.442  15.861 -0.6258  0.0790 -0.7098
 3568TIP3   OH232194   5.076   2.618  16.454 -0.3518  0.0005  0.0253
 3568TIP3    H132195   5.058   2.605  16.547  0.1118  0.5318  0.1974
 3568TIP3    H232196   5.171   2.611  16.447 -0.2991  0.8995 -0.2448
 3569TIP3   OH232197   0.741   4.748  16.225 -0.6491  0.3063 -0.1260
 3569TIP3    H132198   0.726   4.778  16.135  0.7008  0.7985 -0.2116
 3569TIP3    H232199   0.743   4.653  16.218 -2.1015  0.2749 -0.3436
 3570TIP3   OH232200   6.737   1.075   3.945  0.2321 -0.3121 -0.3009
 3570TIP3    H132201   6.805   1.105   4.005 -0.9419 -0.5269  1.2070
 3570TIP3    H232202   6.714   0.988   3.977 -0.7763 -0.2279 -0.7505
 3571TIP3   OH232203   3.913   1.765   4.473 -0.1001 -0.0291 -0.3727
 3571TIP3    H132204   3.869   1.708   4.411 -1.3932 -0.4010  0.8297
 3571TIP3    H232205   3.860   1.845   4.474 -0.2491 -0.1318  0.4316
 3572TIP3   OH232206   0.195   4.386  13.504 -0.1111  0.4170 -0.4544
 3572TIP3    H132207   0.202   4.346  13.591  0.7860  0.8791 -0.3070
 3572TIP3    H232208   0.133   4.330  13.457 -1.1273  0.5585  0.6948
 3573TIP3   OH232209   1.666   2.279  12.249 -0.1574 -0.9131 -0.2009
 3573TIP3    H132210   1.577   2.251  12.271 -0.6912 -0.2296 -1.3388
 3573TIP3    H232211   1.703   2.205  12.201 -0.1697 -1.1476  0.1534
 3574TIP3   OH232212   0.690   5.661   0.620  0.2116 -0.3320 -0.0348
 3574TIP3    H132213   0.758   5.614   0.571  0.9185  0.3477  0.2723
 3574TIP3    H232214   0.738   5.727   0.669 -0.2250 -1.9498  2.8030
 3575TIP3   OH232215   2.683   5.192   0.472 -0.1085  0.2026  0.7617
 3575TIP3    H132216   2.643   5.269   0.512  0.2114 -0.3352  2.1919
 3575TIP3    H232217   2.653   5.119   0.526  0.4882 -0.5344  0.1113
 3576TIP3   OH232218   5.470   1.943  14.190 -0.0942 -0.6600 -0.1091
 3576TIP3    H132219   5.498   1.853  14.173  1.9592  0.2531 -1.9576
 3576TIP3    H232220   5.549   1.996  14.177 -0.7117  1.2584  2.9866
 3577TIP3   OH232221   5.247   3.355  12.724  0.1390  0.2473 -0.4646
 3577TIP3    H132222   5.240   3.307  12.641  0.0707  0.6812 -0.7086
 3577TIP3    H232223   5.342   3.364  12.737  0.1798 -0.6644 -0.0027
 3578TIP3   OH232224   0.309   0.453   1.249 -0.0856  0.2178 -0.4107
 3578TIP3    H132225   0.327   0.403   1.169 -1.6926 -3.3013  1.2026
 3578TIP3    H232226   0.390   0.500   1.267  2.2903 -3.1659 -1.2690
 3579TIP3   OH232227   3.435   0.578   0.696 -0.2524  0.7904 -0.2539
 3579TIP3    H132228   3.389   0.586   0.612  0.2558 -0.2387 -0.6481
 3579TIP3    H232229   3.367   0.592   0.762 -0.4697  2.6367 -0.8174
 3580TIP3   OH232230   2.342   3.189   2.861  1.3650 -0.2285  0.5471
 3580TIP3    H132231   2.262   3.234   2.886  1.6728  0.1863  0.7960
 3580TIP3    H232232   2.317   3.096   2.856  0.1691  0.1380 -2.1693
 3581TIP3   OH232233   1.813   0.521   2.838 -0.0776  0.2498 -0.1678
 3581TIP3    H132234   1.831   0.590   2.774 -0.9007  0.7511  0.1309
 3581TIP3    H232235   1.898   0.479   2.852  0.5573  1.5857  0.1095
 3582TIP3   OH232236   5.878   5.785  12.877  0.1304 -0.0316  0.5926
 3582TIP3    H132237   5.813   5.855  12.885  0.4665  0.1225  2.5893
 3582TIP3    H232238   5.836   5.720  12.821 -0.1765  1.7323 -1.3787
 3583TIP3   OH232239   6.290   1.035   2.688  0.0798  0.4750  0.1698
 3583TIP3    H132240   6.270   0.980   2.764 -2.6100 -0.8526 -1.3607
 3583TIP3    H232241   6.235   1.113   2.699  1.2551  1.2774  0.5710
 3584TIP3   OH232242   2.928   5.187   3.076 -0.2048 -0.0004 -0.0677
 3584TIP3    H132243   2.939   5.210   3.169  0.4129  1.6052 -0.5017
 3584TIP3    H232244   2.851   5.236   3.048  0.2496  0.3871 -0.6614
 3585TIP3   OH232245   4.298   6.457  14.704  0.7518 -0.0038 -0.5316
 3585TIP3    H132246   4.301   6.374  14.752  0.0923 -0.3715 -1.1077
 3585TIP3    H232247   4.265   6.433  14.617 -0.9104  1.0587 -0.2429
 3586TIP3   OH232248   4.506   4.699   3.001  0.2575 -0.3214  0.2493
 3586TIP3    H132249   4.580   4.745   2.961 -0.3026  0.8037  0.4618
 3586TIP3    H232250   4.533   4.607   3.003  1.2899 -0.0536 -0.4657
 3587TIP3   OH232251   2.144   5.316   1.392  0.0971 -0.5189 -0.2518
 3587TIP3    H132252   2.157   5.294   1.299  0.9174 -0.4179 -0.1669
 3587TIP3    H232253   2.050   5.309   1.405 -0.0694 -0.1958 -1.1840
 3588TIP3   OH232254   1.361   4.720   2.483  0.5278 -0.5606  0.2828
 3588TIP3    H132255   1.405   4.805   2.478 -1.3460  0.4776  0.1703
 3588TIP3    H232256   1.399   4.668   2.413  0.5737  0.7928 -0.7293
 3589TIP3   OH232257   1.774   0.352  13.402 -0.0257  0.4466 -0.0233
 3589TIP3    H132258   1.809   0.315  13.483  1.9047 -0.6157 -1.2652
 3589TIP3    H232259   1.679   0.351  13.415  0.2086  0.1012  2.1186
 3590TIP3   OH232260   5.844   2.871   4.207  0.4546 -0.5179  0.1851
 3590TIP3    H132261   5.897   2.918   4.272  0.0460 -1.0363  0.9067
 3590TIP3    H232262   5.879   2.899   4.123  0.8106  0.3855  0.6226
 3591TIP3   OH232263   4.291   0.796   2.893  0.0143  0.2530 -0.0743
 3591TIP3    H132264   4.282   0.761   2.805 -1.0849 -2.2411  0.9495
 3591TIP3    H232265   4.203   0.825   2.916 -0.1756 -1.0214  0.9062
 3592TIP3   OH232266   3.001   2.531   1.482  0.2758 -0.3692 -0.2605
 3592TIP3    H132267   2.968   2.539   1.393 -0.9277  1.6816  0.2909
 3592TIP3    H232268   2.961   2.451   1.516  0.3273 -0.8746 -1.3669
 3593TIP3   OH232269   4.651   0.042  14.740 -0.1307 -0.1005 -0.1819
 3593TIP3    H132270   4.617   0.111  14.798 -0.5933  0.3756 -1.0010
 3593TIP3    H232271   4.586  -0.028  14.746 -0.8844  0.4920 -1.1421
 3594TIP3   OH232272   3.007   4.535   0.685 -0.4075 -0.1392 -0.6794
 3594TIP3    H132273   3.000   4.524   0.590 -0.7835  0.3128 -0.7154
 3594TIP3    H232274   3.100   4.529   0.704 -0.4211 -1.2661 -0.9375
 3595TIP3   OH232275   2.835   4.851   5.024 -0.0537  0.1261 -0.5091
 3595TIP3    H132276   2.861   4.876   4.936 -0.3720  1.9093 -0.1469
 3595TIP3    H232277   2.844   4.756   5.026 -0.4225 -0.0052 -2.5749
 3596TIP3   OH232278   6.351   0.161  10.434 -0.6099  0.6108  0.1034
 3596TIP3    H132279   6.402   0.084  10.459 -0.2255  1.0039  0.5859
 3596TIP3    H232280   6.265   0.128  10.410 -0.7261  0.1107  1.1438
 3597TIP3   OH232281   3.896   3.592   4.423 -0.3289 -0.0591  0.4496
 3597TIP3    H132282   3.860   3.650   4.489 -0.8154  1.0524 -0.7547
 3597TIP3    H232283   3.831   3.591   4.353 -0.2124 -1.8625  0.3056
 3598TIP3   OH232284   6.737   5.862  14.929 -0.2102 -0.4251 -0.4516
 3598TIP3    H132285   6.687   5.810  14.867 -0.1249  1.1030 -1.8822
 3598TIP3    H232286   6.719   5.953  14.905  0.2905  0.2316  1.4099
 3599TIP3   OH232287   3.465   5.397   0.227  0.0767  0.0357  0.8355
 3599TIP3    H132288   3.382   5.433   0.257  0.6928 -0.4592  3.3692
 3599TIP3    H232289   3.523   5.473   0.220 -0.7087  0.4942 -1.7136
 3600TIP3   OH232290   3.200   0.008   3.625  0.0309  0.0292 -0.1736
 3600TIP3    H132291   3.202   0.098   3.592  0.4138 -0.3230 -1.1389
 3600TIP3    H232292   3.203   0.018   3.721 -0.3965  1.0469 -0.2448
 3601TIP3   OH232293   1.586   2.111   2.494  1.0719 -0.3480  0.3198
 3601TIP3    H132294   1.674   2.147   2.484  1.4703 -0.8835  1.6844
 3601TIP3    H232295   1.592   2.055   2.571 -0.1856 -1.2871 -0.2361
 3602TIP3   OH232296   1.543   6.078  12.728 -0.3805 -0.2741  0.0185
 3602TIP3    H132297   1.544   6.155  12.671 -0.5225  0.3278  0.8215
 3602TIP3    H232298   1.552   6.113  12.816  0.6114 -1.2492  0.3317
 3603TIP3   OH232299   4.592   0.894  12.183  0.3512 -0.1674 -0.2390
 3603TIP3    H132300   4.621   0.804  12.166 -0.5591 -0.1496 -2.0418
 3603TIP3    H232301   4.505   0.900  12.143  1.4114  2.2269 -2.4883
 3604TIP3   OH232302   5.822   2.661  14.493 -0.1869  0.6306 -0.1219
 3604TIP3    H132303   5.803   2.688  14.583 -1.9845 -0.6205 -0.0677
 3604TIP3    H232304   5.745   2.690  14.443 -0.0023 -0.1996 -0.9156
 3605TIP3   OH232305   4.251   0.103  12.258  0.6162  0.3618  0.0890
 3605TIP3    H132306   4.158   0.087  12.242  0.5008  2.3339 -1.7420
 3605TIP3    H232307   4.262   0.197  12.245  3.0265  0.0460 -0.7015
 3606TIP3   OH232308   3.058   6.814   1.489 -0.3741 -0.2991 -0.1724
 3606TIP3    H132309   3.102   6.743   1.536 -0.0259 -0.1874 -0.3217
 3606TIP3    H232310   3.091   6.808   1.399 -2.9049 -2.0564 -1.0711
 3607TIP3   OH232311   5.598   2.329  12.975 -0.0593 -0.5192  0.3828
 3607TIP3    H132312   5.638   2.323  13.062 -0.2610 -0.4661  0.4809
 3607TIP3    H232313   5.563   2.241  12.959  0.2481 -0.6129  0.2230
 3608TIP3   OH232314   0.065   1.413   3.334  0.3889  0.0092 -0.1169
 3608TIP3    H132315   0.147   1.399   3.287  0.0780 -2.0064 -0.1568
 3608TIP3    H232316   0.053   1.508   3.335  2.4211  0.3040 -0.5981
 3609TIP3   OH232317   5.666   5.116  15.701 -0.1619 -0.0282  0.0014
 3609TIP3    H132318   5.628   5.175  15.635  0.4485  0.4970  0.0993
 3609TIP3    H232319   5.669   5.168  15.781 -0.3994 -0.4833  0.3080
 3610TIP3   OH232320   3.782   0.103   0.112  0.4936  0.1709  0.0525
 3610TIP3    H132321   3.736   0.020   0.124 -1.5482  0.9674 -1.6418
 3610TIP3    H232322   3.768   0.151   0.193  1.0658 -0.8283  0.7609
 3611TIP3   OH232323   1.390   4.032   3.551 -0.1679 -0.2908  0.1230
 3611TIP3    H132324   1.467   4.090   3.546  0.0274 -0.5730 -0.1487
 3611TIP3    H232325   1.408   3.963   3.487 -1.3589  0.4872 -1.1267
 3612TIP3   OH232326   3.265   0.765   3.142 -0.4783 -0.1056  0.0205
 3612TIP3    H132327   3.307   0.684   3.115  0.5717 -0.0169  1.3014
 3612TIP3    H232328   3.310   0.834   3.092  0.3484 -0.0873  0.7815
 3613TIP3   OH232329   4.171   4.921  14.229 -0.1417  0.0460  0.8995
 3613TIP3    H132330   4.108   4.871  14.281 -1.9321  1.5487  0.2671
 3613TIP3    H232331   4.236   4.951  14.292 -0.6268 -0.6580  1.7574
 3614TIP3   OH232332   3.004   5.322  13.351 -0.1062 -0.2683 -0.3946
 3614TIP3    H132333   3.092   5.356  13.369  0.3931 -1.5879 -0.2264
 3614TIP3    H232334   2.969   5.381  13.285  1.1795 -0.1104 -0.9677
 3615TIP3   OH232335   1.532   6.566  13.654 -0.5879 -0.0452 -0.3689
 3615TIP3    H132336   1.587   6.499  13.613  0.0213 -0.6234  1.3259
 3615TIP3    H232337   1.507   6.624  13.582  0.7843 -0.7748 -1.4704
 3616TIP3   OH232338   4.708   3.096   0.011 -0.7897  0.2386 -0.4879
 3616TIP3    H132339   4.726   3.141  -0.071  1.0721  0.3523 -0.0520
 3616TIP3    H232340   4.696   3.166   0.075 -0.4254  0.1396 -0.3092
 3617TIP3   OH232341   0.156   4.719  13.512  0.2072 -0.6756  0.3992
 3617TIP3    H132342   0.172   4.810  13.534  0.3155 -0.4969 -0.4078
 3617TIP3    H232343   0.061   4.710  13.511  0.1521 -0.1752 -1.0677
 3618TIP3   OH232344   4.372   2.853  15.203 -0.4983  0.0425 -0.1037
 3618TIP3    H132345   4.433   2.915  15.163 -0.3564  0.0409  0.1114
 3618TIP3    H232346   4.292   2.904  15.217 -1.4027 -0.5502 -2.6102
 3619TIP3   OH232347   6.667   0.675  17.010 -0.2694 -0.1199  0.4316
 3619TIP3    H132348   6.690   0.666  17.103 -0.1434 -2.4132  0.2395
 3619TIP3    H232349   6.745   0.714  16.970  0.2454 -0.4564  1.0826
 3620TIP3   OH232350   6.229   6.718  15.228 -0.1266 -0.1180 -0.1794
 3620TIP3    H132351   6.238   6.793  15.169  0.6703  0.5069  0.6957
 3620TIP3    H232352   6.162   6.746  15.292 -0.9521 -0.7701 -0.7322
 3621TIP3   OH232353   4.013   0.723   0.384  0.8188 -1.1471  0.4667
 3621TIP3    H132354   4.085   0.735   0.446  0.6667  1.1399  0.2792
 3621TIP3    H232355   3.966   0.806   0.385 -0.1543 -1.6030 -1.4916
 3622TIP3   OH232356   1.903   5.020  16.811  0.0492  1.1651  0.2324
 3622TIP3    H132357   1.906   5.031  16.906 -1.3004  3.3646  0.0806
 3622TIP3    H232358   1.813   4.993  16.792  0.3207  0.6737 -0.4412
 3623TIP3   OH232359   5.952   0.561   0.797  0.4669  0.3007  0.6615
 3623TIP3    H132360   5.983   0.651   0.806 -1.5999  0.9551  2.2303
 3623TIP3    H232361   5.860   0.565   0.825  0.1206 -2.1790  0.1105
 3624TIP3   OH232362   3.175   5.781  16.568 -0.2821  0.0476 -0.1687
 3624TIP3    H132363   3.263   5.805  16.597 -1.2941  1.7216  1.7679
 3624TIP3    H232364   3.160   5.694  16.605  0.5944 -0.3305 -0.6698
 3625TIP3   OH232365   5.968   6.068  15.891 -0.5772  0.1308 -0.2734
 3625TIP3    H132366   5.993   6.114  15.971 -0.5771 -0.2043 -0.0787
 3625TIP3    H232367   5.940   6.137  15.831  0.4892  0.4906 -0.3803
 3626TIP3   OH232368   5.646   2.980  13.241 -0.0310 -0.9375 -0.3350
 3626TIP3    H132369   5.731   2.998  13.281  0.2894  0.0095 -1.3610
 3626TIP3    H232370   5.587   3.046  13.279 -0.5002 -2.0380  0.9028
 3627TIP3   OH232371   1.206   2.330   3.265  0.0395  0.4073 -0.7131
 3627TIP3    H132372   1.117   2.297   3.270 -0.4607  1.8826  1.3162
 3627TIP3    H232373   1.231   2.319   3.173 -1.7857 -1.0878 -1.0727
 3628TIP3   OH232374   2.339   6.585   0.287 -0.0016  0.2531  0.0482
 3628TIP3    H132375   2.270   6.636   0.245 -0.8492  0.4381  1.6296
 3628TIP3    H232376   2.348   6.507   0.231 -1.2376  0.3940 -0.3707
 3629TIP3   OH232377   5.185   6.326  12.204 -0.3683 -0.2817 -0.2102
 3629TIP3    H132378   5.106   6.379  12.211  0.1647  0.5195 -0.1114
 3629TIP3    H232379   5.222   6.326  12.292  0.6262  0.7739 -0.5989
 3630TIP3   OH232380   0.132   4.955  12.692 -0.0997  0.3734  0.5873
 3630TIP3    H132381   0.113   5.010  12.768 -1.4547  0.9286 -0.1083
 3630TIP3    H232382   0.060   4.973  12.631 -0.8529 -2.4454  0.4794
 3631TIP3   OH232383   2.313   4.473   4.188  0.0216 -0.0112 -0.1738
 3631TIP3    H132384   2.346   4.480   4.098 -1.2581 -1.7984 -0.8313
 3631TIP3    H232385   2.387   4.438   4.237  0.5621  0.4447 -0.6411
 3632TIP3   OH232386   0.289   4.708  12.258 -0.4133 -0.3162  0.2768
 3632TIP3    H132387   0.220   4.691  12.195  0.1093  1.0463 -0.7172
 3632TIP3    H232388   0.254   4.777  12.315 -0.1691 -0.1634  0.2470
 3633TIP3   OH232389   5.186   5.176   2.133  0.5249 -0.2500 -0.1887
 3633TIP3    H132390   5.213   5.198   2.043 -1.4061  0.1084 -0.7261
 3633TIP3    H232391   5.132   5.098   2.123 -1.9799  1.3131  0.2507
 3634TIP3   OH232392   1.385   2.930  13.572 -0.0348 -0.4899  0.7077
 3634TIP3    H132393   1.307   2.882  13.599 -0.4696 -0.1470  0.0963
 3634TIP3    H232394   1.398   2.996  13.640 -0.5622 -0.2382  0.5689
 3635TIP3   OH232395   2.915   1.379   5.318  0.3040  0.0147  0.0248
 3635TIP3    H132396   2.977   1.439   5.276 -1.0414  0.5513 -1.2915
 3635TIP3    H232397   2.835   1.430   5.328 -0.4389 -1.1368  0.1845
 3636TIP3   OH232398   5.294   3.099  16.002 -0.3501 -0.1460 -0.1657
 3636TIP3    H132399   5.236   3.147  16.062  0.4025  0.0036  0.4746
 3636TIP3    H232400   5.377   3.094  16.050 -0.4357 -2.2007 -0.1802
 3637TIP3   OH232401   2.857   0.751  13.268 -0.7210 -0.0457  0.2774
 3637TIP3    H132402   2.786   0.790  13.218 -1.1969  1.3990  1.9720
 3637TIP3    H232403   2.908   0.826  13.299  1.5986 -1.0375 -0.9241
 3638TIP3   OH232404   0.399   0.099  13.872 -0.1889  0.1301 -0.5434
 3638TIP3    H132405   0.354   0.018  13.849  3.0035 -1.8571 -0.2340
 3638TIP3    H232406   0.392   0.104  13.968  2.1445 -1.5012 -0.2145
 3639TIP3   OH232407   4.630   4.632   0.208  0.0631 -0.3835 -0.4255
 3639TIP3    H132408   4.544   4.664   0.235  1.0881  1.1888  1.2157
 3639TIP3    H232409   4.629   4.539   0.231 -0.1313  0.2707  2.6940
 3640TIP3   OH232410   6.092   0.819  17.212  0.3337 -0.0416  0.3936
 3640TIP3    H132411   6.097   0.900  17.263  0.8821  0.3385 -0.2429
 3640TIP3    H232412   6.145   0.756  17.262  0.0965  0.0521  0.7682
 3641TIP3   OH232413   2.095   6.167  15.586 -0.5107  0.2253 -0.1089
 3641TIP3    H132414   2.087   6.223  15.663 -0.4291  0.0188  0.0523
 3641TIP3    H232415   2.014   6.181  15.537  0.1508  1.6729 -0.8763
 3642TIP3   OH232416   5.133   1.506   0.764 -0.0039 -0.8731  0.6071
 3642TIP3    H132417   5.080   1.528   0.841 -0.4599 -1.2255  0.4000
 3642TIP3    H232418   5.113   1.414   0.747 -1.9980 -0.1685 -1.4998
 3643TIP3   OH232419   0.911   1.455  15.142 -0.7731  0.5858  0.4891
 3643TIP3    H132420   0.905   1.395  15.216 -0.4428  1.5608  1.3451
 3643TIP3    H232421   0.926   1.541  15.183 -1.1313  1.2298 -0.6922
 3644TIP3   OH232422   1.420   6.586   4.707  0.1029  0.6416 -0.1312
 3644TIP3    H132423   1.423   6.531   4.786  1.1052  0.3885 -0.3366
 3644TIP3    H232424   1.328   6.588   4.683 -0.4058  1.5835  1.6497
 3645TIP3   OH232425   2.046   6.213   0.055  0.0187 -0.7360 -0.0128
 3645TIP3    H132426   2.106   6.268   0.004  0.7179 -0.4223  1.1080
 3645TIP3    H232427   2.007   6.273   0.119  0.3230 -1.4113  0.8269
 3646TIP3   OH232428   2.892   5.306   1.084  0.4483  0.0781 -0.5099
 3646TIP3    H132429   2.831   5.304   1.011  0.6008  0.1934 -0.6402
 3646TIP3    H232430   2.978   5.293   1.044  0.4278 -1.0480 -0.2338
 3647TIP3   OH232431   1.925   4.465  11.350 -0.0068 -0.1008 -0.5275
 3647TIP3    H132432   1.950   4.555  11.370  2.0281 -0.5545 -0.7693
 3647TIP3    H232433   1.996   4.432  11.294 -1.0923 -1.6179 -1.0938
 3648TIP3   OH232434   1.421   6.517  16.800 -0.5503  0.4060 -0.4025
 3648TIP3    H132435   1.366   6.438  16.807 -2.1242  1.5677  1.5670
 3648TIP3    H232436   1.463   6.524  16.886  0.8358  0.8782 -1.0910
 3649TIP3   OH232437   1.529   3.915   6.314  0.0900  0.7427 -0.2773
 3649TIP3    H132438   1.468   3.976   6.273 -1.9887 -3.2345 -3.9693
 3649TIP3    H232439   1.491   3.897   6.400  0.5203  3.9966  0.7306
 3650TIP3   OH232440   3.933   3.642   2.049 -0.1805 -0.2050  0.1197
 3650TIP3    H132441   3.994   3.576   2.015 -1.9329 -1.1695 -1.3117
 3650TIP3    H232442   3.961   3.657   2.139 -0.5329 -3.9137  0.9656
 3651TIP3   OH232443   5.909   1.617   4.490 -0.0129 -0.2921 -0.3323
 3651TIP3    H132444   5.928   1.699   4.443  0.4567  0.4861  1.1616
 3651TIP3    H232445   5.991   1.569   4.489 -0.5583 -1.2778 -2.1352
 3652TIP3   OH232446   1.859   6.676  14.438 -0.1018 -0.0606 -0.1583
 3652TIP3    H132447   1.883   6.727  14.360 -0.0981  0.0353 -0.0947
 3652TIP3    H232448   1.837   6.742  14.504 -1.3604 -0.1439 -0.4639
 3653TIP3   OH232449   6.470   1.941   3.464 -0.9269 -0.2482 -1.0935
 3653TIP3    H132450   6.514   1.931   3.549 -2.6409  2.8791  0.3446
 3653TIP3    H232451   6.537   1.980   3.408 -0.5922  0.4843 -0.2263
 3654TIP3   OH232452   5.933   2.546  12.234 -0.1005 -0.9009 -0.2941
 3654TIP3    H132453   5.999   2.477  12.232  0.6967 -0.2787 -4.3168
 3654TIP3    H232454   5.853   2.503  12.205 -0.2744 -0.6708 -0.1594
 3655TIP3   OH232455   4.751   5.097  13.858  0.1085  0.6590 -0.0514
 3655TIP3    H132456   4.816   5.102  13.788 -2.6625 -0.9822 -3.0229
 3655TIP3    H232457   4.776   5.020  13.909 -0.0634 -0.6914 -1.9048
 3656TIP3   OH232458   6.188   2.595   4.601  0.0280 -0.3188  0.2653
 3656TIP3    H132459   6.157   2.594   4.692  1.1871 -2.7412  0.7331
 3656TIP3    H232460   6.283   2.586   4.609  0.3043  1.0333 -1.1960
 3657TIP3   OH232461   1.653   1.588  11.049  0.0875  0.9041 -0.0441
 3657TIP3    H132462   1.710   1.589  10.972 -0.0204  0.5876 -0.1292
 3657TIP3    H232463   1.569   1.556  11.016  0.0856  0.6250  0.2376
 3658TIP3   OH232464   0.924   6.431   6.431  0.0988  0.0655 -0.0329
 3658TIP3    H132465   0.969   6.486   6.368 -0.2270 -0.8655 -1.1169
 3658TIP3    H232466   0.859   6.488   6.472 -2.3261 -0.1048 -3.2515
 3659TIP3   OH232467   5.106   0.808   6.084 -0.1661  0.5019  0.3608
 3659TIP3    H132468   5.198   0.809   6.057 -0.2086 -2.2001 -0.2074
 3659TIP3    H232469   5.108   0.810   6.179  0.6141 -1.1271  0.4099
 3660TIP3   OH232470   0.468   6.103  16.985 -0.6035 -0.1518 -0.2921
 3660TIP3    H132471   0.454   6.162  16.912  1.5046 -0.1823 -0.7587
 3660TIP3    H232472   0.500   6.159  17.056  1.2291 -0.6576 -0.6808
 3661TIP3   OH232473   1.568   1.331  12.257  0.3592 -0.6941 -0.3206
 3661TIP3    H132474   1.495   1.275  12.230 -0.2291  0.9405 -2.4972
 3661TIP3    H232475   1.627   1.330  12.182  1.1264  0.3041  0.2477
 3662TIP3   OH232476   6.725   1.201   3.382 -0.1429  0.0821 -0.3894
 3662TIP3    H132477   6.774   1.277   3.350  0.0518 -0.1702 -0.6959
 3662TIP3    H232478   6.670   1.236   3.452  0.1132  0.4628 -0.3742
 3663TIP3   OH232479   6.092   1.395   3.068 -0.1979  0.2892  0.1057
 3663TIP3    H132480   6.073   1.428   2.980  1.1780 -0.5094 -0.5401
 3663TIP3    H232481   6.185   1.373   3.065 -0.3833 -0.8079  1.4202
 3664TIP3   OH232482   3.923   6.307   6.286 -0.0510 -0.5091  0.3956
 3664TIP3    H132483   3.884   6.295   6.373  2.7679 -0.7872  1.7734
 3664TIP3    H232484   3.940   6.218   6.255 -0.5034 -0.3977 -0.1775
 3665TIP3   OH232485   6.263   1.583   3.882 -0.4512 -0.4802 -0.2176
 3665TIP3    H132486   6.199   1.653   3.894 -1.0359 -0.9361 -0.5956
 3665TIP3    H232487   6.258   1.562   3.788  1.5860  0.7349 -0.6561
 3666TIP3   OH232488   4.677   2.798  16.592  0.4833  0.1442  0.1123
 3666TIP3    H132489   4.636   2.740  16.656 -0.0876  0.5333  0.1085
 3666TIP3    H232490   4.606   2.856  16.564  0.7131 -0.0369 -0.8896
 3667TIP3   OH232491   5.718   1.675   4.931  0.3527 -0.0336 -0.4435
 3667TIP3    H132492   5.688   1.764   4.912  1.1534  0.2602 -0.3920
 3667TIP3    H232493   5.714   1.668   5.026  1.7041  0.4897 -0.3223
 3668TIP3   OH232494   1.050   1.430  11.631 -0.1913  0.3774 -0.2811
 3668TIP3    H132495   1.077   1.339  11.644  0.6547  0.8350  1.5354
 3668TIP3    H232496   1.110   1.480  11.687 -2.0669  1.8481  0.5039
 3669TIP3   OH232497   6.683   2.355  14.093 -0.2533 -0.4902  0.1892
 3669TIP3    H132498   6.610   2.400  14.137 -0.4664 -0.1585 -0.4958
 3669TIP3    H232499   6.696   2.276  14.145 -1.1870 -0.6167  0.2500
 3670TIP3   OH232500   1.556   4.254   4.529 -0.0340 -0.2888 -0.0713
 3670TIP3    H132501   1.594   4.200   4.598 -1.0072 -1.8364 -0.6723
 3670TIP3    H232502   1.630   4.294   4.485  0.5860  1.4726  2.3865
 3671TIP3   OH232503   0.539   0.521  15.973  0.4326  0.5423  0.5056
 3671TIP3    H132504   0.444   0.535  15.971  0.5036  2.4077  3.6105
 3671TIP3    H232505   0.550   0.437  16.018  0.2389  0.2959  0.0887
 3672TIP3   OH232506   2.920   1.123   1.385  0.0785 -0.2035  0.1385
 3672TIP3    H132507   2.971   1.123   1.466  0.9208 -0.3038 -0.3815
 3672TIP3    H232508   2.866   1.202   1.391 -0.1739 -0.4280  0.9814
 3673TIP3   OH232509   6.115   0.018   1.832  0.7139  0.1928  0.5382
 3673TIP3    H132510   6.184  -0.036   1.872  1.2137  1.4812  1.4684
 3673TIP3    H232511   6.036  -0.005   1.881  0.5916 -0.7595 -0.0602
 3674TIP3   OH232512   5.019   2.384  15.859 -0.0737  0.2495  0.3985
 3674TIP3    H132513   5.056   2.423  15.938 -0.1245 -0.7121  0.9092
 3674TIP3    H232514   5.068   2.425  15.788  0.3323  0.7502  0.9539
 3675TIP3   OH232515   4.685   5.506  13.627 -0.6469 -0.3546  0.4985
 3675TIP3    H132516   4.703   5.566  13.699 -2.4987  0.3586  0.4409
 3675TIP3    H232517   4.589   5.499  13.626 -0.5098 -3.7856  0.8581
 3676TIP3   OH232518   2.351   3.940   5.832  0.4335 -0.2448 -0.4909
 3676TIP3    H132519   2.365   3.914   5.923  1.4507  1.8086 -0.0131
 3676TIP3    H232520   2.319   3.860   5.789 -0.4636 -1.1556  1.7278
 3677TIP3   OH232521   5.136   2.812  13.305  0.1210 -0.1194  0.4391
 3677TIP3    H132522   5.151   2.882  13.241  3.0541 -1.6639 -0.7774
 3677TIP3    H232523   5.164   2.849  13.389 -0.3456  0.7940  0.2061
 3678TIP3   OH232524   3.095   6.615  11.923  0.4190  0.3760  0.0244
 3678TIP3    H132525   3.073   6.665  11.844  1.1322 -0.3238 -0.6494
 3678TIP3    H232526   3.031   6.642  11.988 -0.9238  0.1355 -1.1475
 3679TIP3   OH232527   4.191   5.561  14.390 -0.0756  0.2895  0.2681
 3679TIP3    H132528   4.221   5.603  14.470 -2.3140  1.3258  0.6487
 3679TIP3    H232529   4.155   5.477  14.420 -0.8248  0.6361  0.3808
 3680TIP3   OH232530   1.008   5.767  16.500 -0.0367  0.0870  0.2937
 3680TIP3    H132531   0.918   5.743  16.480  0.2340 -0.8494  0.1802
 3680TIP3    H232532   1.012   5.861  16.483 -1.8095  0.8190  3.2358
 3681TIP3   OH232533   4.400   1.525  12.347 -0.0094 -0.4325  0.0515
 3681TIP3    H132534   4.472   1.463  12.336 -1.0678 -1.7657  0.3642
 3681TIP3    H232535   4.390   1.566  12.261  0.3462 -1.1116 -0.3216
 3682TIP3   OH232536   5.700   2.200   4.372 -0.4988  0.3143  0.6062
 3682TIP3    H132537   5.613   2.171   4.344 -0.3481 -0.2771  0.7246
 3682TIP3    H232538   5.734   2.251   4.299  0.5330 -2.4777 -1.0180
 3683TIP3   OH232539   2.775   1.732   6.509  0.6058 -0.7003  0.7255
 3683TIP3    H132540   2.827   1.719   6.429 -1.1938  1.9399 -1.0195
 3683TIP3    H232541   2.813   1.809   6.551 -0.8223  0.2731  0.2943
 3684TIP3   OH232542   5.740   4.737   2.336  0.5763 -0.4490  0.1857
 3684TIP3    H132543   5.685   4.713   2.410  0.1490 -0.6464 -0.1904
 3684TIP3    H232544   5.746   4.658   2.283 -0.6536  0.1795 -0.9410
 3685TIP3   OH232545   4.533   2.745  14.049  0.4095  0.5470 -0.2350
 3685TIP3    H132546   4.575   2.809  13.991  0.6836  0.6115  0.0300
 3685TIP3    H232547   4.529   2.789  14.134  1.3581 -0.0829  0.1538
 3686TIP3   OH232548   3.513   1.123  15.442  0.0432 -0.1521 -0.0470
 3686TIP3    H132549   3.420   1.144  15.433  0.0271 -0.9124 -2.3574
 3686TIP3    H232550   3.514   1.037  15.484 -0.3848 -0.6925 -1.0928
 3687TIP3   OH232551   5.755   0.598  14.898 -0.0608 -0.5501 -0.2861
 3687TIP3    H132552   5.770   0.687  14.930 -1.9640 -0.2864  0.0282
 3687TIP3    H232553   5.841   0.566  14.872  0.5149  1.8270 -1.5665
 3688TIP3   OH232554   0.281   6.269   2.295  0.5400 -0.0042  0.0587
 3688TIP3    H132555   0.374   6.283   2.275  0.5646  0.9722  0.7686
 3688TIP3    H232556   0.257   6.345   2.348 -1.1403  0.6926 -1.6193
 3689TIP3   OH232557   0.558   4.894  12.481  0.0669  0.6050 -0.1726
 3689TIP3    H132558   0.490   4.844  12.528 -0.2595  2.4978  1.5039
 3689TIP3    H232559   0.640   4.863  12.519 -0.1177  1.1407  0.6871
 3690TIP3   OH232560   1.514   2.187  13.282 -0.3125  0.0978 -0.2532
 3690TIP3    H132561   1.477   2.112  13.328 -1.1219  1.3256  1.1896
 3690TIP3    H232562   1.498   2.168  13.190  0.9801 -2.2450 -0.0830
 3691TIP3   OH232563   2.696   0.920  16.624  0.1847  0.4628  0.5033
 3691TIP3    H132564   2.707   1.001  16.674  1.9690  0.9671 -0.6215
 3691TIP3    H232565   2.777   0.871  16.638  0.1813  0.0274 -0.8358
 3692TIP3   OH232566   6.067   4.638   1.648 -0.6669  0.1865 -0.1565
 3692TIP3    H132567   5.985   4.681   1.624 -1.2149 -0.7090  0.0838
 3692TIP3    H232568   6.047   4.590   1.728  0.4428  0.9976  0.6281
 3693TIP3   OH232569   4.171   2.724   0.339  0.2458 -0.6195  0.0133
 3693TIP3    H132570   4.186   2.775   0.259 -1.1834 -1.0529 -0.5700
 3693TIP3    H232571   4.110   2.655   0.312 -0.2183 -0.8136  1.4650
 3694TIP3   OH232572   3.547   3.781   2.423  0.0156  0.2070 -0.4046
 3694TIP3    H132573   3.634   3.802   2.392  0.3943 -0.5621  0.0879
 3694TIP3    H232574   3.561   3.745   2.511 -0.9643  1.8267  0.4702
 3695TIP3   OH232575   4.430   3.958  12.884  0.7374  0.2810  0.0725
 3695TIP3    H132576   4.479   3.964  12.966  0.2932 -1.8457  0.5660
 3695TIP3    H232577   4.487   3.997  12.819  2.0423  0.0855  1.0542
 3696TIP3   OH232578   4.384   0.472   1.756  0.2434 -0.3037  0.2810
 3696TIP3    H132579   4.325   0.448   1.827  0.5424  1.2145  1.0716
 3696TIP3    H232580   4.469   0.483   1.797  0.6331 -0.3594 -0.4850
 3697TIP3   OH232581   0.590   1.808  13.951  0.2084  0.1769 -0.3494
 3697TIP3    H132582   0.649   1.807  13.875  1.9347 -4.6106  0.7062
 3697TIP3    H232583   0.503   1.799  13.913  0.6647  1.2881 -1.7861
 3698TIP3   OH232584   5.557   3.756  14.934  0.8336  0.1204 -0.8000
 3698TIP3    H132585   5.561   3.686  15.000  0.1419  0.3941 -0.4468
 3698TIP3    H232586   5.604   3.721  14.858  1.4001 -0.3151 -0.2637
 3699TIP3   OH232587   5.803   4.447  14.736  0.1713 -0.2146 -0.8389
 3699TIP3    H132588   5.770   4.484  14.818 -0.6278 -1.0396 -0.7762
 3699TIP3    H232589   5.824   4.524  14.682  0.2871  0.3340 -0.0426
 3700TIP3   OH232590   6.734   2.762  12.955 -0.0616  0.1652  0.0649
 3700TIP3    H132591   6.685   2.720  13.025  0.6290 -0.9628 -0.1093
 3700TIP3    H232592   6.696   2.850  12.949 -0.2487  0.2266  1.7169
 3701TIP3   OH232593   0.130   3.586  15.837 -0.0380 -0.2135 -0.0015
 3701TIP3    H132594   0.121   3.517  15.771 -0.5775  0.1639 -0.3320
 3701TIP3    H232595   0.146   3.539  15.919  0.5015 -0.6925 -0.3771
 3702TIP3   OH232596   3.438   5.752   0.407 -0.5156  0.1998  0.4769
 3702TIP3    H132597   3.346   5.778   0.409 -1.4571 -2.7681  0.7469
 3702TIP3    H232598   3.468   5.774   0.319 -2.2301 -0.9793 -0.4432
 3703TIP3   OH232599   3.673   0.036  15.069  0.0461  0.9701  0.2347
 3703TIP3    H132600   3.636  -0.041  15.025  2.7219 -0.9164  0.9909
 3703TIP3    H232601   3.741   0.067  15.009  0.7810  1.0595  1.0867
 3704TIP3   OH232602   0.633   0.026   5.284  0.1443 -0.2580  0.0574
 3704TIP3    H132603   0.686  -0.009   5.355  0.3571 -0.7527 -0.3367
 3704TIP3    H232604   0.588  -0.050   5.248 -0.8522  0.1539  0.3884
 3705TIP3   OH232605   3.396   5.501   3.114 -0.5866 -0.1625 -0.0985
 3705TIP3    H132606   3.301   5.498   3.118 -0.5935 -0.9025 -0.5540
 3705TIP3    H232607   3.416   5.530   3.025 -0.4093 -2.3436 -0.8539
 3706TIP3   OH232608   2.637   6.708   1.164  0.0951  1.0678  0.1662
 3706TIP3    H132609   2.640   6.736   1.073 -3.3264  0.9628 -0.1091
 3706TIP3    H232610   2.663   6.785   1.214 -1.4021  2.2838 -0.8359
 3707TIP3   OH232611   6.523   6.231   3.848 -0.3130  0.4083  0.3339
 3707TIP3    H132612   6.497   6.141   3.831  2.0233 -0.1566 -0.5647
 3707TIP3    H232613   6.467   6.259   3.921 -1.0354 -1.7649  0.6649
 3708TIP3   OH232614   4.925   1.744   3.497  0.8019 -0.8584 -0.0270
 3708TIP3    H132615   4.977   1.793   3.433  1.0441  0.7380  1.3295
 3708TIP3    H232616   4.980   1.738   3.575 -0.6461  0.0852  1.1369
 3709TIP3   OH232617   2.861   1.478  11.179 -0.1603  0.4002 -0.5034
 3709TIP3    H132618   2.925   1.414  11.150  1.0530  1.0828  0.5766
 3709TIP3    H232619   2.819   1.438  11.255  0.9541  1.0366  0.4868
 3710TIP3   OH232620   2.019   1.139   5.899  0.2377  0.1961  0.2565
 3710TIP3    H132621   1.950   1.135   5.833 -0.1049 -0.0968  0.6294
 3710TIP3    H232622   1.999   1.217   5.950  0.4315  0.3532  0.0938
 3711TIP3   OH232623   5.736   2.810  17.002 -0.0970  0.0849 -0.1346
 3711TIP3    H132624   5.690   2.825  17.084 -0.3996  0.2740 -0.3385
 3711TIP3    H232625   5.756   2.897  16.969 -1.8564  0.0896 -1.3239
 3712TIP3   OH232626   3.546   2.506  14.135 -0.8639  0.2070  0.4232
 3712TIP3    H132627   3.596   2.437  14.179 -0.6028 -1.2100 -1.8999
 3712TIP3    H232628   3.600   2.584  14.142  0.6480 -0.7501 -0.0714
 3713TIP3   OH232629   2.737   6.283  16.156  0.2243 -0.1453  0.1594
 3713TIP3    H132630   2.680   6.210  16.179 -0.4523  0.5531  0.7563
 3713TIP3    H232631   2.692   6.328  16.084 -0.7417  1.2376  1.5557
 3714TIP3   OH232632   2.518   4.298  16.470  0.0176 -0.1748 -0.4716
 3714TIP3    H132633   2.599   4.279  16.517 -1.5075 -1.2827  1.8854
 3714TIP3    H232634   2.523   4.245  16.390  1.8897  0.3798 -0.7951
 3715TIP3   OH232635   3.160   3.205   5.739 -0.5333  0.2953  0.3141
 3715TIP3    H132636   3.236   3.156   5.771 -0.4803  0.7523  0.9060
 3715TIP3    H232637   3.096   3.138   5.717 -0.1632 -0.0744  0.3451
 3716TIP3   OH232638   6.503   6.425  13.546  0.0083  0.0323 -0.7874
 3716TIP3    H132639   6.589   6.382  13.551  0.1286  0.4177  1.6409
 3716TIP3    H232640   6.524   6.518  13.548 -0.4606  0.1422  1.7443
 3717TIP3   OH232641   2.225   1.037  13.356 -0.3530 -0.3595  0.0257
 3717TIP3    H132642   2.317   1.057  13.370 -0.5138  0.4935 -0.0793
 3717TIP3    H232643   2.208   1.066  13.266 -1.5161  2.6771  1.0875
 3718TIP3   OH232644   1.656   6.741   0.267  0.1798 -1.1541 -0.2049
 3718TIP3    H132645   1.590   6.785   0.215  0.0888  0.2321  1.0188
 3718TIP3    H232646   1.610   6.667   0.307 -0.0910 -1.4041 -0.9568
 3719TIP3   OH232647   2.608   5.316   6.296  0.5195 -0.1160 -0.0612
 3719TIP3    H132648   2.700   5.290   6.302  0.2244 -1.1753  0.0860
 3719TIP3    H232649   2.598   5.383   6.364  0.9011 -0.8699  0.7575
 3720TIP3   OH232650   3.541   3.233  14.432  0.3748 -0.5983 -0.3683
 3720TIP3    H132651   3.516   3.314  14.478 -2.0426 -0.7823 -1.2107
 3720TIP3    H232652   3.544   3.167  14.501  1.4164  0.0078  0.1865
 3721TIP3   OH232653   3.474   0.146   0.274  0.0539  0.9044  0.3080
 3721TIP3    H132654   3.412   0.154   0.201  0.0208  0.4156  0.2783
 3721TIP3    H232655   3.503   0.055   0.271  2.2918  1.5765 -0.9011
 3722TIP3   OH232656   6.412   0.239  13.750 -0.5914 -0.0184  0.9334
 3722TIP3    H132657   6.356   0.256  13.674  0.7165  1.4050  0.2283
 3722TIP3    H232658   6.453   0.323  13.769  1.5038 -1.0306  1.2367
 3723TIP3   OH232659   0.951   2.991  11.791  0.6559  0.1738  0.7513
 3723TIP3    H132660   0.978   3.078  11.822 -1.3109  0.4529  1.8871
 3723TIP3    H232661   0.901   3.009  11.711  2.0033 -0.1498 -0.1997
 3724TIP3   OH232662   1.578   0.451  13.594  0.0136  0.2779  0.3011
 3724TIP3    H132663   1.579   0.504  13.673 -1.7468  1.5319 -0.4479
 3724TIP3    H232664   1.486   0.431  13.579  0.4613 -1.4534 -0.4743
 3725TIP3   OH232665   2.224   3.392  11.331 -0.1665  0.0714 -0.5832
 3725TIP3    H132666   2.306   3.348  11.352  0.9126  1.0134 -2.5418
 3725TIP3    H232667   2.182   3.406  11.416  0.1124 -3.2896  0.2429
 3726TIP3   OH232668   0.990   6.795  15.235 -0.3163  0.6129 -0.0340
 3726TIP3    H132669   0.925   6.865  15.245 -0.8490  0.1734 -0.3369
 3726TIP3    H232670   0.966   6.730  15.301 -1.3715 -0.4220 -1.3669
 3727TIP3   OH232671   6.048   0.898   2.322  0.2853  0.1601 -0.6744
 3727TIP3    H132672   6.135   0.860   2.317  1.1334  1.1185  3.4491
 3727TIP3    H232673   6.054   0.979   2.271  1.9943  0.4794 -0.0170
 3728TIP3   OH232674   3.291   2.475  14.052  0.0439  0.3551 -0.5553
 3728TIP3    H132675   3.284   2.556  14.001  0.0924  1.3584  0.9769
 3728TIP3    H232676   3.385   2.462  14.064  0.0182  0.3629 -0.3437
 3729TIP3   OH232677   2.482   4.001   3.666  0.1302  0.4207 -0.2434
 3729TIP3    H132678   2.408   3.940   3.658 -0.9770  1.7844 -0.6511
 3729TIP3    H232679   2.472   4.061   3.593  3.4753 -1.2138 -2.2817
 3730TIP3   OH232680   4.037   4.227  13.491  0.0408 -0.2155  0.1234
 3730TIP3    H132681   4.095   4.272  13.553 -0.2301  0.5885 -0.2024
 3730TIP3    H232682   4.072   4.138  13.486  0.1695 -0.2496  1.3042
 3731TIP3   OH232683   2.332   1.996  13.049  0.1778  0.0617  0.0518
 3731TIP3    H132684   2.266   1.996  12.979 -2.0863  1.4507  2.0181
 3731TIP3    H232685   2.374   2.081  13.041  1.5927 -0.6991 -0.9990
 3732TIP3   OH232686   4.185   0.956   0.372 -0.0056 -0.6057 -0.3799
 3732TIP3    H132687   4.171   0.913   0.456  0.2073 -0.2684 -0.1694
 3732TIP3    H232688   4.125   1.030   0.372  0.7895  0.0459 -0.0510
 3733TIP3   OH232689   1.932   0.504   0.770 -0.5181  0.2668  0.4864
 3733TIP3    H132690   1.936   0.551   0.686  0.2439  0.0803  0.4143
 3733TIP3    H232691   1.838   0.492   0.786 -0.6653  0.0348 -0.4957
 3734TIP3   OH232692   1.966   1.734  16.140 -0.1823  0.1273  0.1553
 3734TIP3    H132693   2.043   1.791  16.143  1.2108 -1.6752  2.3486
 3734TIP3    H232694   1.906   1.777  16.079  2.3068  1.9155 -1.1865
 3735TIP3   OH232695   4.554   5.917   4.332  0.1111 -0.0212  0.5304
 3735TIP3    H132696   4.536   6.009   4.310 -0.4190  0.5272  2.9417
 3735TIP3    H232697   4.583   5.920   4.423 -0.8422 -2.3321  0.9651
 3736TIP3   OH232698   5.629   1.335  16.073 -0.2056 -0.1926  0.3622
 3736TIP3    H132699   5.722   1.322  16.055 -0.2434 -0.2300  0.1930
 3736TIP3    H232700   5.615   1.429  16.060 -0.2287 -0.2165  0.2129
 3737TIP3   OH232701   4.515   4.048   3.410  0.2700 -0.5583  0.5118
 3737TIP3    H132702   4.508   4.055   3.505  0.9017 -1.5963  0.6495
 3737TIP3    H232703   4.531   3.955   3.394 -1.2375 -0.6382 -0.7069
 3738TIP3   OH232704   5.219   0.577  10.877  0.6456 -0.1343 -0.3590
 3738TIP3    H132705   5.270   0.509  10.920  0.7051  0.3381  0.3330
 3738TIP3    H232706   5.259   0.586  10.790 -0.9318 -2.7368 -1.4748
 3739TIP3   OH232707   6.594   4.694   2.885  0.4133  0.0466  0.1449
 3739TIP3    H132708   6.659   4.626   2.870  0.9220  1.0253 -2.4972
 3739TIP3    H232709   6.510   4.654   2.862  0.5700 -0.0646 -0.2379
 3740TIP3   OH232710   4.044   4.321  11.983 -0.6040 -0.4630 -0.0524
 3740TIP3    H132711   4.081   4.233  11.991 -0.3998 -0.3542  0.2333
 3740TIP3    H232712   4.111   4.371  11.936 -0.9292 -0.5820 -0.6507
 3741TIP3   OH232713   2.584   0.073  16.287  0.5596  0.0899  0.1469
 3741TIP3    H132714   2.621   0.155  16.321  1.0406 -0.7934  1.8944
 3741TIP3    H232715   2.500   0.065  16.333  0.8674 -0.7540  0.5916
 3742TIP3   OH232716   3.479   3.794  15.732  0.0884 -0.5461  0.2252
 3742TIP3    H132717   3.439   3.729  15.674  1.7266 -0.6624 -0.8434
 3742TIP3    H232718   3.436   3.780  15.816 -1.1202 -1.5489 -0.5141
 3743TIP3   OH232719   6.098   6.548   5.498  0.0571  0.2264  0.2712
 3743TIP3    H132720   6.145   6.496   5.432  0.6957  1.4297 -0.2594
 3743TIP3    H232721   6.167   6.575   5.559 -0.2223  0.6327  0.4074
 3744TIP3   OH232722   0.263   0.048  10.550  0.0652 -0.0634  0.5487
 3744TIP3    H132723   0.251  -0.012  10.477  0.7889 -1.3020  1.4141
 3744TIP3    H232724   0.202   0.120  10.533 -0.8284 -1.0440 -0.5010
 3745TIP3   OH232725   5.895   0.703   2.410  0.2407 -0.0307 -0.2257
 3745TIP3    H132726   5.955   0.675   2.479 -0.1825  0.5514  0.3969
 3745TIP3    H232727   5.940   0.775   2.365  0.1067  0.2606  0.1007
 3746TIP3   OH232728   1.204   2.618   4.210 -0.9533  0.4172  0.1659
 3746TIP3    H132729   1.146   2.692   4.230 -0.0833  1.0173  0.4892
 3746TIP3    H232730   1.198   2.561   4.288 -0.9342  0.5888  0.2930
 3747TIP3   OH232731   2.212   3.664   0.687 -0.1874  0.5112  0.0573
 3747TIP3    H132732   2.245   3.605   0.755 -0.4897  0.3828  0.0917
 3747TIP3    H232733   2.278   3.734   0.682 -0.1703  0.5262  0.4880
 3748TIP3   OH232734   1.300   3.162  16.093 -0.2925 -0.1700 -0.6550
 3748TIP3    H132735   1.227   3.123  16.047 -0.5657 -0.4649  0.0216
 3748TIP3    H232736   1.368   3.095  16.093 -0.6567 -0.5456  0.2523
 3749TIP3   OH232737   3.694   5.887   4.239 -0.6100  0.3070  0.0112
 3749TIP3    H132738   3.660   5.976   4.231 -0.2616  0.3202 -1.4482
 3749TIP3    H232739   3.644   5.836   4.175  0.0919 -0.2772 -0.0836
 3750TIP3   OH232740   5.356   4.868  15.632  0.1612  0.6535  0.3986
 3750TIP3    H132741   5.331   4.957  15.658 -0.9440  0.5442 -0.2066
 3750TIP3    H232742   5.377   4.824  15.714  0.5729  1.4232  0.7159
 3751TIP3   OH232743   5.479   5.722  11.599  0.2689  0.8627  0.2666
 3751TIP3    H132744   5.551   5.781  11.575 -0.9329  1.5392 -1.8360
 3751TIP3    H232745   5.433   5.768  11.669  1.0371  1.0739  0.6454
 3752TIP3   OH232746   2.873   4.811  17.152 -0.3256 -0.3317 -0.3086
 3752TIP3    H132747   2.882   4.851  17.066 -1.3263 -0.4169 -0.4664
 3752TIP3    H232748   2.786   4.837  17.182 -0.3148 -0.9796  0.3190
 3753TIP3   OH232749   6.052   2.322   1.630  0.3420 -0.0825 -0.1796
 3753TIP3    H132750   6.017   2.288   1.547 -1.8320 -2.3033  1.4804
 3753TIP3    H232751   6.142   2.346   1.610 -0.2262 -0.0782 -3.2681
 3754TIP3   OH232752   6.090   6.132   0.939 -0.5876 -0.3739 -1.0838
 3754TIP3    H132753   6.036   6.207   0.912  0.5371  0.6809 -0.5034
 3754TIP3    H232754   6.146   6.114   0.864  0.6431  0.7975 -0.4867
 3755TIP3   OH232755   4.832   1.634   5.277  0.1606 -0.0520 -0.1457
 3755TIP3    H132756   4.918   1.591   5.282 -0.2287 -0.8983 -0.6253
 3755TIP3    H232757   4.806   1.627   5.185  0.1146  1.3034 -0.2674
 3756TIP3   OH232758   0.683   0.851  16.521  0.0292  0.0281  0.3041
 3756TIP3    H132759   0.758   0.861  16.580  0.7201 -0.4522 -0.4905
 3756TIP3    H232760   0.607   0.872  16.576  0.6347 -0.6829  1.4480
 3757TIP3   OH232761   3.845   0.751   5.211 -0.1359  0.2156 -0.0076
 3757TIP3    H132762   3.779   0.815   5.238 -0.5445 -0.7184  1.2544
 3757TIP3    H232763   3.882   0.718   5.292 -0.0460 -1.2794 -0.6274
 3758TIP3   OH232764   5.779   6.745   4.932 -0.1020  0.1711  0.1123
 3758TIP3    H132765   5.731   6.827   4.922 -1.7265 -0.3531  2.6355
 3758TIP3    H232766   5.726   6.694   4.993  2.1902 -1.7008  0.6722
 3759TIP3   OH232767   1.797   5.158   1.282  1.1691 -0.0333 -0.1813
 3759TIP3    H132768   1.820   5.138   1.372  1.9964  1.4461 -0.0387
 3759TIP3    H232769   1.714   5.205   1.288  2.7261  2.8880  0.1577
 3760TIP3   OH232770   3.870   6.299  12.762  0.6202 -0.2463 -0.2268
 3760TIP3    H132771   3.817   6.377  12.744  1.4250  0.4936  0.5408
 3760TIP3    H232772   3.815   6.226  12.733 -0.7426  0.5147  0.3396
 3761TIP3   OH232773   6.073   6.768   2.932 -0.4355  0.4394  0.0331
 3761TIP3    H132774   5.996   6.825   2.935  0.1253  1.5132 -2.7727
 3761TIP3    H232775   6.141   6.818   2.978 -1.1090 -0.1682  1.8122
 3762TIP3   OH232776   4.883   1.749  13.405 -0.2201  0.0014 -0.1359
 3762TIP3    H132777   4.919   1.668  13.441 -0.0878  0.0963 -0.0532
 3762TIP3    H232778   4.950   1.781  13.344 -1.5604 -1.5865 -2.5987
 3763TIP3   OH232779   5.831   0.187   3.638  0.3266  0.0433  0.2808
 3763TIP3    H132780   5.757   0.232   3.680  0.8730 -0.4753  1.8504
 3763TIP3    H232781   5.802   0.096   3.630 -0.3749  0.3962 -1.9617
 3764TIP3   OH232782   4.067   4.886  11.781  0.6606  0.2374  0.1100
 3764TIP3    H132783   4.048   4.972  11.744  0.6506 -0.7189 -2.2587
 3764TIP3    H232784   3.992   4.832  11.759  0.6578 -0.4133  1.5762
 3765TIP3   OH232785   4.761   0.152   4.237  0.3512 -0.2790 -0.2745
 3765TIP3    H132786   4.756   0.057   4.225 -0.8295 -0.4539  1.2669
 3765TIP3    H232787   4.830   0.164   4.302 -0.8390 -0.2869  1.0432
 3766TIP3   OH232788   2.754   5.349  12.161 -0.2077  0.2220  0.5422
 3766TIP3    H132789   2.849   5.343  12.150 -0.2603  0.7293 -0.3499
 3766TIP3    H232790   2.728   5.264  12.196  0.3712 -0.5602 -0.8516
 3767TIP3   OH232791   2.897   4.608  16.488 -0.3196 -0.0579  0.0784
 3767TIP3    H132792   2.889   4.650  16.574  0.4649  0.4702 -0.0921
 3767TIP3    H232793   2.991   4.600  16.474 -0.4541 -1.1112 -0.2774
 3768TIP3   OH232794   3.465   1.887  16.342 -0.7251 -0.3308  0.1391
 3768TIP3    H132795   3.493   1.795  16.337  0.6251  0.1065 -0.8152
 3768TIP3    H232796   3.498   1.917  16.427  0.4587 -0.2402 -0.3324
 3769TIP3   OH232797   4.885   4.225  16.542  0.7105 -0.1554 -0.5886
 3769TIP3    H132798   4.900   4.131  16.538 -1.0099 -0.6049  1.5563
 3769TIP3    H232799   4.793   4.234  16.567  1.2100  2.0451  0.7716
 3770TIP3   OH232800   3.482   4.931   2.817  0.9733  0.0226 -0.5334
 3770TIP3    H132801   3.459   4.975   2.735 -0.8801 -0.3164 -0.2487
 3770TIP3    H232802   3.439   4.983   2.885  0.6403 -0.9402  0.0165
 3771TIP3   OH232803   2.862   3.863   2.962 -0.0856  0.1016 -0.2988
 3771TIP3    H132804   2.895   3.856   2.872 -0.5713  2.3972 -0.7116
 3771TIP3    H232805   2.791   3.927   2.957 -1.0694 -0.7577  1.5096
 3772TIP3   OH232806   6.754   5.013  14.443  0.2628 -0.2159 -0.3845
 3772TIP3    H132807   6.669   5.058  14.436  0.1954 -0.3224 -0.2538
 3772TIP3    H232808   6.784   5.033  14.531 -0.1257 -1.0587 -0.0488
 3773TIP3   OH232809   4.649   5.284   4.738 -0.2559 -0.6810 -0.8815
 3773TIP3    H132810   4.622   5.193   4.732  2.0778 -1.4036 -1.2966
 3773TIP3    H232811   4.702   5.289   4.817  0.0794  0.1932 -1.1466
 3774TIP3   OH232812   1.409   2.640   1.769 -0.6718  1.0746 -0.0036
 3774TIP3    H132813   1.460   2.653   1.689 -0.5680 -0.0630 -0.1486
 3774TIP3    H232814   1.323   2.614   1.738  0.1484 -2.3099  0.1552
 3775TIP3   OH232815   1.842   6.636   0.077  0.0122  0.0091  0.2896
 3775TIP3    H132816   1.815   6.545   0.066  0.2444 -0.0343  0.0780
 3775TIP3    H232817   1.798   6.665   0.158 -0.7953 -0.0127 -0.1353
 3776TIP3   OH232818   5.790   6.312   2.665 -0.2046  0.0074  0.3695
 3776TIP3    H132819   5.819   6.364   2.740 -1.0164 -1.4169  1.7175
 3776TIP3    H232820   5.701   6.340   2.649  0.2841  1.0094 -0.7341
 3777TIP3   OH232821   2.885   3.757   6.408 -0.1848  0.3798  1.0584
 3777TIP3    H132822   2.920   3.846   6.409  0.8720 -0.0216  1.5965
 3777TIP3    H232823   2.955   3.705   6.368 -1.2941 -0.0255 -0.4151
 3778TIP3   OH232824   5.325   1.873  16.402 -0.1485 -0.6452 -0.1863
 3778TIP3    H132825   5.301   1.792  16.447  1.4103 -0.1706  1.6033
 3778TIP3    H232826   5.241   1.914  16.381 -0.9609 -2.4814 -0.7613
 3779TIP3   OH232827   4.481   5.953   3.416  0.7131 -0.1783  0.3539
 3779TIP3    H132828   4.487   6.047   3.432  1.6434 -0.5789  2.6543
 3779TIP3    H232829   4.472   5.946   3.321  2.4004  2.1553 -0.0721
 3780TIP3   OH232830   3.522   4.150   5.969  0.1553 -0.4802 -0.2440
 3780TIP3    H132831   3.445   4.176   6.019  0.4277  1.7657 -0.8912
 3780TIP3    H232832   3.504   4.180   5.880  1.2914 -0.9797 -0.6635
 3781TIP3   OH232833   0.740   0.899  13.517  0.1595 -0.5245 -0.1964
 3781TIP3    H132834   0.753   0.848  13.438 -0.8902  0.5294 -1.0890
 3781TIP3    H232835   0.645   0.910  13.523  0.0401 -2.0581  2.1998
 3782TIP3   OH232836   0.366   6.135   4.524 -0.1142  0.1977  0.4073
 3782TIP3    H132837   0.361   6.160   4.616  1.8709 -1.5595  1.0628
 3782TIP3    H232838   0.377   6.040   4.526 -0.8139  0.0195 -1.7029
 3783TIP3   OH232839   0.370   1.893   5.012  0.8666  0.1566  0.2866
 3783TIP3    H132840   0.447   1.923   4.965  0.4774  0.2424 -0.3011
 3783TIP3    H232841   0.296   1.922   4.959  0.4482 -0.6097  0.4353
 3784TIP3   OH232842   4.961   6.519  16.252 -0.2268 -0.1762 -0.1654
 3784TIP3    H132843   5.048   6.552  16.271 -0.1041 -0.6349  0.0658
 3784TIP3    H232844   4.903   6.593  16.270  0.0576 -0.0546  0.2591
 3785TIP3   OH232845   5.664   5.035   4.147 -0.3327  0.0596 -0.2317
 3785TIP3    H132846   5.606   4.971   4.106  0.9996 -1.9156  0.8398
 3785TIP3    H232847   5.629   5.048   4.235  0.4917 -0.7095  0.2239
 3786TIP3   OH232848   1.928   3.982   0.532  0.5390 -0.0269 -0.1279
 3786TIP3    H132849   1.973   4.065   0.548  1.1723 -0.3616 -0.1380
 3786TIP3    H232850   1.840   3.995   0.567  0.8170  0.4511  0.4034
 3787TIP3   OH232851   3.466   5.966   3.647  0.6374  0.1107 -0.1215
 3787TIP3    H132852   3.556   5.959   3.614  0.5286 -3.9848  0.0005
 3787TIP3    H232853   3.412   5.927   3.578 -0.5629 -0.9300  1.3425
 3788TIP3   OH232854   2.690   5.905   4.920  0.0021 -0.8074 -0.4645
 3788TIP3    H132855   2.729   5.953   4.847 -0.2304 -1.0919 -0.7779
 3788TIP3    H232856   2.728   5.817   4.914  1.0341 -0.4631  0.5755
 3789TIP3   OH232857   2.698   3.794  16.704 -0.1114  0.5837 -0.3541
 3789TIP3    H132858   2.606   3.796  16.728 -0.4613 -0.9138 -1.4195
 3789TIP3    H232859   2.745   3.823  16.782 -1.3315 -1.3877  1.1929
 3790TIP3   OH232860   4.293   1.992  14.675 -0.1683  0.0798  0.0200
 3790TIP3    H132861   4.380   1.994  14.716  0.0503 -1.0408 -0.3565
 3790TIP3    H232862   4.232   2.012  14.746  0.4541  2.0273  0.0530
 3791TIP3   OH232863   4.605   2.726  14.879 -0.3963  0.3790 -0.1248
 3791TIP3    H132864   4.666   2.724  14.953 -2.4957  0.2616  1.7032
 3791TIP3    H232865   4.558   2.642  14.885 -1.0159  0.6276 -1.2520
 3792TIP3   OH232866   2.974   1.188  14.098 -0.0243 -0.2873  0.2896
 3792TIP3    H132867   2.896   1.155  14.142 -0.7010 -1.4657 -1.6554
 3792TIP3    H232868   2.945   1.208  14.009  2.0693 -1.8589 -0.8365
 3793TIP3   OH232869   3.527   4.516  12.760 -0.7003 -0.1620  0.4815
 3793TIP3    H132870   3.498   4.507  12.669 -0.8857 -0.6670  0.5882
 3793TIP3    H232871   3.608   4.466  12.765 -1.3350 -1.1765  0.8893
 3794TIP3   OH232872   0.078   4.005   1.741  0.9479  0.0421  0.9731
 3794TIP3    H132873  -0.003   4.039   1.703 -0.0438 -0.7783  2.2771
 3794TIP3    H232874   0.143   4.073   1.725  0.0037  0.7311 -0.0670
 3795TIP3   OH232875   3.900   3.926  13.066 -0.2117  0.0772 -0.1133
 3795TIP3    H132876   3.896   3.897  13.156 -0.1572  0.2262 -0.0617
 3795TIP3    H232877   3.994   3.930  13.047 -0.2342 -0.6363 -0.4010
 3796TIP3   OH232878   1.410   6.359  12.428  0.0086 -0.1546  0.4837
 3796TIP3    H132879   1.459   6.276  12.424 -0.2371 -0.2860  0.1059
 3796TIP3    H232880   1.415   6.386  12.520 -1.1361 -1.3295  0.9150
 3797TIP3   OH232881   0.024   3.915  14.335 -0.3261 -0.0061  0.0173
 3797TIP3    H132882   0.108   3.958  14.325 -0.4533  0.2399 -0.0102
 3797TIP3    H232883   0.006   3.918  14.429  0.3864 -1.3931  0.2250
 3798TIP3   OH232884   2.189   5.678   5.306  0.3135 -0.4314  0.4705
 3798TIP3    H132885   2.194   5.774   5.303 -2.8689 -0.1765 -0.1904
 3798TIP3    H232886   2.254   5.653   5.371 -0.1617  2.3798  2.2218
 3799TIP3   OH232887   2.686   3.605   1.298 -0.7134  0.5127  0.1602
 3799TIP3    H132888   2.778   3.630   1.298 -0.6548  0.3233  0.7023
 3799TIP3    H232889   2.686   3.512   1.274 -0.5359 -0.1508  2.4663
 3800TIP3   OH232890   6.417   2.993   4.948  0.8796  0.4292 -0.1624
 3800TIP3    H132891   6.428   3.058   4.878  1.0540  0.7455  0.1547
 3800TIP3    H232892   6.455   3.035   5.025 -1.5798  1.1776  0.7462
 3801TIP3   OH232893   3.606   3.513   0.314 -0.1778  0.9770 -0.1499
 3801TIP3    H132894   3.526   3.490   0.266 -0.5927  3.3827 -0.7342
 3801TIP3    H232895   3.643   3.586   0.265  2.4141 -0.0434  0.1285
 3802TIP3   OH232896   0.471   1.317  11.184  0.6630  0.5944  0.0766
 3802TIP3    H132897   0.392   1.305  11.131  0.3483 -0.9496  0.8201
 3802TIP3    H232898   0.540   1.335  11.120  0.2744 -1.1067 -0.8871
 3803TIP3   OH232899   5.068   1.213  12.506 -0.1873 -0.1198  0.1230
 3803TIP3    H132900   5.120   1.196  12.428 -0.5457 -1.6475  0.1880
 3803TIP3    H232901   5.062   1.309  12.510  1.0499  0.0279 -0.8931
 3804TIP3   OH232902   5.398   6.409  16.532  0.3274 -0.3861  0.0198
 3804TIP3    H132903   5.391   6.497  16.570  1.2335 -0.3370  0.1034
 3804TIP3    H232904   5.492   6.391  16.533  0.4179 -0.3172 -2.3653
 3805TIP3   OH232905   1.453   1.087  16.235  0.1279  0.7180 -0.1658
 3805TIP3    H132906   1.547   1.080  16.252  0.7991 -0.1250 -3.5206
 3805TIP3    H232907   1.419   1.000  16.258  0.1274  1.0351  1.0882
 3806TIP3   OH232908   6.426   0.799   1.623  0.1160 -0.4984  0.1838
 3806TIP3    H132909   6.455   0.861   1.555 -1.0799 -0.9148 -0.7422
 3806TIP3    H232910   6.338   0.828   1.646  0.6090 -0.1926  1.8119
 3807TIP3   OH232911   3.959   3.648  13.591  0.7001 -0.1574 -0.2168
 3807TIP3    H132912   3.980   3.599  13.511  1.3826  0.5831 -0.5088
 3807TIP3    H232913   3.996   3.735  13.576  1.6446 -0.2591  1.2527
 3808TIP3   OH232914   3.340   0.140  16.020  0.2611  0.3046  0.9633
 3808TIP3    H132915   3.429   0.149  16.055  0.5958  0.9755 -0.0088
 3808TIP3    H232916   3.288   0.201  16.072  0.6877  1.0593  0.5223
 3809TIP3   OH232917   4.984   5.841  17.285  0.0472  0.3364  0.4271
 3809TIP3    H132918   5.021   5.754  17.273 -2.9652 -0.8675 -1.0420
 3809TIP3    H232919   4.924   5.831  17.359 -0.1701  1.2617  0.3834
 3810TIP3   OH232920   4.774   1.141   6.256  0.1983  0.2795 -0.2183
 3810TIP3    H132921   4.732   1.055   6.245  3.4910 -1.5132 -0.1738
 3810TIP3    H232922   4.823   1.153   6.174  1.7116  0.8914  0.7407
 3811TIP3   OH232923   0.271   5.202   4.991  0.3811  0.4910  0.1192
 3811TIP3    H132924   0.190   5.245   4.965 -0.2164 -0.3188  0.6081
 3811TIP3    H232925   0.305   5.163   4.910  0.7289  1.5264 -0.2488
 3812TIP3   OH232926   0.195   2.387  17.146  0.2733  0.5235  0.2912
 3812TIP3    H132927   0.262   2.453  17.130  0.8347  0.0099  0.4640
 3812TIP3    H232928   0.233   2.306  17.114  0.0970  0.0652  1.1930
 3813TIP3   OH232929   4.128   5.040   6.436  0.6209 -0.0510  0.1817
 3813TIP3    H132930   4.062   5.073   6.375  0.4605 -0.5369  0.0933
 3813TIP3    H232931   4.087   4.963   6.476  0.7103  0.2773  0.9233
 3814TIP3   OH232932   4.814   2.475  11.114 -0.1872  0.3764  0.1768
 3814TIP3    H132933   4.886   2.423  11.078 -0.8169 -1.4366  1.4337
 3814TIP3    H232934   4.842   2.566  11.100  2.5786 -0.2357  0.9785
 3815TIP3   OH232935   5.592   6.304  13.423  0.9292  0.0271 -0.0498
 3815TIP3    H132936   5.547   6.362  13.484  2.0909  0.0278  0.8540
 3815TIP3    H232937   5.523   6.250  13.386  0.2823 -1.0281  2.4397
 3816TIP3   OH232938   5.457   4.048   0.967 -0.4077 -0.1369 -0.0053
 3816TIP3    H132939   5.375   4.005   0.991 -1.4275 -0.3784 -3.4725
 3816TIP3    H232940   5.445   4.139   0.995 -0.0023 -0.9591  3.3360
 3817TIP3   OH232941   1.562   1.268   4.473  0.0947 -0.8333 -0.1447
 3817TIP3    H132942   1.475   1.272   4.434  0.3036  2.2837 -0.6022
 3817TIP3    H232943   1.546   1.264   4.567 -0.5422 -0.5690 -0.2358
 3818TIP3   OH232944   6.713   0.832   0.883  0.1959 -0.2237 -0.0272
 3818TIP3    H132945   6.741   0.842   0.974  2.0274 -0.6609 -0.4890
 3818TIP3    H232946   6.750   0.907   0.838 -0.9526  0.1463 -0.3781
 3819TIP3   OH232947   2.639   2.803   1.068  0.1635 -0.0642 -0.3107
 3819TIP3    H132948   2.571   2.784   1.004 -1.0744 -0.6602  1.1189
 3819TIP3    H232949   2.601   2.872   1.124  0.4951 -0.7708  0.8273
 3820TIP3   OH232950   6.445   6.171  13.923  0.5616 -0.1040 -0.1967
 3820TIP3    H132951   6.525   6.136  13.885  0.1709  1.2871 -2.5060
 3820TIP3    H232952   6.384   6.177  13.850 -2.0496 -1.9308  1.6011
 3821TIP3   OH232953   2.849   6.526  15.234 -0.2985  0.6633  0.3005
 3821TIP3    H132954   2.888   6.613  15.228 -1.0289  0.9017 -2.7789
 3821TIP3    H232955   2.827   6.516  15.327  2.0077  2.7056  1.1783
 3822TIP3   OH232956   0.626   4.888  11.989 -0.6219  0.1643  0.2563
 3822TIP3    H132957   0.566   4.891  12.063  1.4906  0.2128  2.0672
 3822TIP3    H232958   0.671   4.973  11.991  0.1999 -0.2387 -0.4040
 3823TIP3   OH232959   5.245   4.970   0.986 -0.6279  0.0856  0.0881
 3823TIP3    H132960   5.304   4.896   0.998  0.1038  0.6243 -0.1428
 3823TIP3    H232961   5.298   5.047   1.005 -1.0373  0.6217 -0.8523
 3824TIP3   OH232962   0.928   3.415   1.099 -0.4507 -0.7170  0.1224
 3824TIP3    H132963   0.842   3.433   1.059 -0.3110  0.9254  0.4905
 3824TIP3    H232964   0.990   3.428   1.028 -0.2367  1.8025  0.6802
 3825TIP3   OH232965   2.852   0.385  10.725  0.2953 -0.1713  0.0648
 3825TIP3    H132966   2.814   0.312  10.677 -0.4285  0.3421 -0.1592
 3825TIP3    H232967   2.910   0.428  10.662 -0.7288  0.5611 -0.3976
 3826TIP3   OH232968   4.863   5.231   5.683  0.1508  0.1910  0.3198
 3826TIP3    H132969   4.812   5.151   5.699 -0.3096  0.3889 -0.1498
 3826TIP3    H232970   4.854   5.247   5.589 -0.5646  1.3306  0.5589
 3827TIP3   OH232971   5.272   3.164   4.475  0.1919 -0.0824  0.5082
 3827TIP3    H132972   5.293   3.081   4.432  1.0747  0.5156 -0.2656
 3827TIP3    H232973   5.355   3.196   4.509  0.4256  1.7606 -1.5604
 3828TIP3   OH232974   4.515   2.834  11.478  0.5309  0.6306 -0.2517
 3828TIP3    H132975   4.554   2.828  11.391 -0.1506  1.6095 -0.6455
 3828TIP3    H232976   4.539   2.921  11.510  4.2193 -1.0755  2.3085
 3829TIP3   OH232977   0.630   5.297   5.299  0.2407  0.3101 -0.4515
 3829TIP3    H132978   0.632   5.347   5.217 -0.4704  2.1946  0.6248
 3829TIP3    H232979   0.542   5.311   5.334  0.4542 -0.6742  0.5263
 3830TIP3   OH232980   0.898   1.145   5.809 -0.0832 -0.6271 -0.2239
 3830TIP3    H132981   0.841   1.220   5.823  0.9161  0.4212 -1.6200
 3830TIP3    H232982   0.857   1.075   5.861 -0.9281  0.8948  1.2633
 3831TIP3   OH232983   1.119   2.767  16.788  0.8989 -0.3651  0.1787
 3831TIP3    H132984   1.114   2.784  16.694  1.2456  1.5489  0.4692
 3831TIP3    H232985   1.170   2.687  16.795  1.1469 -0.3607 -1.2504
 3832TIP3   OH232986   0.429   0.553  11.534  0.1570  0.4614  0.2335
 3832TIP3    H132987   0.478   0.501  11.597 -1.8604 -0.9794  0.7077
 3832TIP3    H232988   0.485   0.557  11.457  1.7890  0.5017  1.3747
 3833TIP3   OH232989   6.293   4.849   2.254  0.0945 -0.1670  0.1045
 3833TIP3    H132990   6.283   4.860   2.349  1.1065 -2.8396  0.6138
 3833TIP3    H232991   6.230   4.781   2.231 -0.7738  1.0510 -1.3748
 3834TIP3   OH232992   3.647   2.782  11.974 -0.2932 -0.9485  0.5240
 3834TIP3    H132993   3.597   2.842  12.029  0.6967 -1.8791  2.5520
 3834TIP3    H232994   3.587   2.709  11.959 -0.8355 -0.3430 -0.3188
 3835TIP3   OH232995   4.820   2.583  16.095  0.3841 -0.2557 -1.1994
 3835TIP3    H132996   4.750   2.558  16.035  1.3294  1.2903 -3.0378
 3835TIP3    H232997   4.777   2.593  16.180 -1.6096  0.5609 -2.2561
 3836TIP3   OH232998   3.308   0.799  12.153 -0.6006 -0.5250  0.6276
 3836TIP3    H132999   3.290   0.731  12.218 -0.6383 -0.6480  0.4889
 3836TIP3    H233000   3.345   0.872  12.204  0.8066 -1.1788  0.5968
 3837TIP3   OH233001   5.730   2.466  15.887 -0.3295  0.2553 -0.7311
 3837TIP3    H133002   5.676   2.492  15.813 -0.1711  1.0784 -0.5711
 3837TIP3    H233003   5.820   2.473  15.855 -0.2149  1.5731 -0.1952
 3838TIP3   OH233004   4.956   3.513   4.868  0.4534 -0.4142  0.3093
 3838TIP3    H133005   4.948   3.437   4.924 -0.8164  0.4497  1.3469
 3838TIP3    H233006   4.885   3.503   4.804  0.4840 -0.2660  0.2525
 3839TIP3   OH233007   3.954   3.649  14.378 -0.1161 -0.7692 -0.1592
 3839TIP3    H133008   3.937   3.743  14.370  2.1604 -0.2442  0.5242
 3839TIP3    H233009   3.989   3.623  14.293  0.9809 -0.5639  0.2115
 3840TIP3   OH233010   6.117   5.298   0.880  0.3896  0.5017  0.9719
 3840TIP3    H133011   6.103   5.314   0.973  1.1361  1.1499  0.9807
 3840TIP3    H233012   6.206   5.329   0.863  0.5590 -0.3493  0.2104
 3841TIP3   OH233013   2.618   5.705   1.130 -0.9286 -0.6996  0.0943
 3841TIP3    H133014   2.636   5.761   1.206 -1.7571 -0.5182  0.1685
 3841TIP3    H233015   2.641   5.617   1.160 -1.7420 -0.7031  0.7447
 3842TIP3   OH233016   5.891   2.272   2.147 -0.6993 -0.4311 -0.1283
 3842TIP3    H133017   5.930   2.302   2.064  0.0277 -0.4525  0.1967
 3842TIP3    H233018   5.828   2.206   2.121  0.2603 -1.1805 -0.6076
 3843TIP3   OH233019   3.275   0.078   5.274 -0.5914  0.5141  0.0577
 3843TIP3    H133020   3.344   0.098   5.337  0.3950 -0.1340 -0.7754
 3843TIP3    H233021   3.272   0.155   5.217 -0.1928  0.3432 -0.2033
 3844TIP3   OH233022   5.543   2.297  11.626 -0.2679 -0.2051  0.1854
 3844TIP3    H133023   5.589   2.325  11.546  0.1140 -2.4732 -0.4725
 3844TIP3    H233024   5.462   2.256  11.594 -0.5901 -0.2560  1.0328
 3845TIP3   OH233025   1.768   3.155  17.257  0.2557 -0.5221 -0.0115
 3845TIP3    H133026   1.700   3.094  17.287  0.1245 -0.2473  0.2483
 3845TIP3    H233027   1.736   3.186  17.172  0.0747 -0.4179  0.0951
 3846TIP3   OH233028   4.030   0.894   3.253 -0.0000  0.1564  0.4603
 3846TIP3    H133029   4.106   0.882   3.310 -0.2535  0.3592  0.8491
 3846TIP3    H233030   3.964   0.834   3.290  0.1812 -0.5183 -0.2731
 3847TIP3   OH233031   1.824   0.904   0.253 -0.0490  0.2891  0.1259
 3847TIP3    H133032   1.880   0.951   0.191  0.0497  0.1331  0.0973
 3847TIP3    H233033   1.829   0.956   0.334  2.6328 -1.3653  1.1367
 3848TIP3   OH233034   5.897   1.941   5.018 -0.1727 -0.3272  0.1394
 3848TIP3    H133035   5.802   1.937   5.026 -0.1609  0.7592  1.1013
 3848TIP3    H233036   5.914   1.927   4.925 -1.2273 -1.0977  0.0438
 3849TIP3   OH233037   5.349   2.831   3.164  0.2357  0.2039 -0.2226
 3849TIP3    H133038   5.374   2.767   3.098 -1.2988  0.2563 -0.9091
 3849TIP3    H233039   5.304   2.780   3.231 -0.1580  0.4243 -0.3135
 3850TIP3   OH233040   5.929   3.347  12.757  0.1320  0.7367 -0.1943
 3850TIP3    H133041   5.991   3.290  12.713 -0.5667  0.1387 -0.4286
 3850TIP3    H233042   5.917   3.421  12.697 -1.7426 -0.6551 -1.6418
 3851TIP3   OH233043   6.007   3.434   2.206 -0.0715  0.8307  0.1733
 3851TIP3    H133044   6.100   3.415   2.190 -0.0611 -0.0453  1.1162
 3851TIP3    H233045   6.007   3.518   2.251  0.5634 -0.4296  2.7627
 3852TIP3   OH233046   0.089   0.724  16.412  0.3982 -0.1628 -0.3602
 3852TIP3    H133047   0.177   0.698  16.384  0.5316  0.9599 -1.0350
 3852TIP3    H233048   0.093   0.724  16.507  1.3047  0.4279 -0.3898
 3853TIP3   OH233049   4.486   3.332   1.402 -0.1339 -0.3096  0.3824
 3853TIP3    H133050   4.439   3.252   1.426  0.1934 -1.1249 -1.4720
 3853TIP3    H233051   4.449   3.400   1.458 -3.6262 -0.8860 -0.9897
 3854TIP3   OH233052   3.088   0.986  12.018 -0.1059  0.4321  0.3567
 3854TIP3    H133053   3.129   0.923  12.077 -0.1782 -0.0751 -0.1280
 3854TIP3    H233054   3.012   1.019  12.066 -1.1718 -1.2539 -0.0874
 3855TIP3   OH233055   1.876   3.767   3.075 -0.0983  0.1928 -0.4620
 3855TIP3    H133056   1.802   3.733   3.024 -0.3272 -0.8301  0.4985
 3855TIP3    H233057   1.933   3.808   3.011 -0.6481 -0.5738 -1.4641
 3856TIP3   OH233058   4.992   4.270   3.311  0.0918 -0.2086 -0.2419
 3856TIP3    H133059   5.053   4.238   3.377 -0.7520  2.3672  1.9807
 3856TIP3    H233060   5.036   4.345   3.272 -0.7276  0.3034 -0.2151
 3857TIP3   OH233061   2.721   6.564  15.481 -0.4934  0.0435  0.2143
 3857TIP3    H133062   2.750   6.655  15.486 -1.7566  0.5756 -1.3008
 3857TIP3    H233063   2.626   6.570  15.471 -0.5081 -1.3909 -0.8605
 3858TIP3   OH233064   4.882   0.079   3.201 -0.2954 -0.5833  0.3551
 3858TIP3    H133065   4.911   0.163   3.237 -1.6113 -0.7979  2.0734
 3858TIP3    H233066   4.786   0.083   3.203 -0.4269 -2.6086  1.8217
 3859TIP3   OH233067   3.295   5.929   2.216  0.3764 -0.2281  0.2056
 3859TIP3    H133068   3.284   6.022   2.235  2.6822 -0.0599  0.9445
 3859TIP3    H233069   3.325   5.891   2.298  1.3606 -1.2549 -0.5966
 3860TIP3   OH233070   5.604   3.254   2.821  0.2538  0.1253  0.3814
 3860TIP3    H133071   5.570   3.302   2.897 -0.7807 -0.7903  0.5129
 3860TIP3    H233072   5.695   3.236   2.844 -0.0694 -0.2230  1.4605
 3861TIP3   OH233073   1.475   4.785  12.343  0.2888  0.2333  0.3189
 3861TIP3    H133074   1.535   4.720  12.308  0.0735 -0.1373  0.6295
 3861TIP3    H233075   1.532   4.855  12.376  0.4803  0.9200 -1.3680
 3862TIP3   OH233076   2.244   5.550   0.609  0.0922  0.3063  0.0853
 3862TIP3    H133077   2.281   5.595   0.685 -0.0164  0.3970  0.0855
 3862TIP3    H233078   2.160   5.516   0.641  0.8281 -1.1617  0.5072
 3863TIP3   OH233079   2.892   6.471  10.953 -0.1855  0.4305  0.4518
 3863TIP3    H133080   2.923   6.547  10.902  1.7591 -0.0223  0.8754
 3863TIP3    H233081   2.971   6.438  10.996 -0.4880 -3.1571 -1.4015
 3864TIP3   OH233082   3.576   2.606   2.130  0.0374 -0.3203  0.0917
 3864TIP3    H133083   3.485   2.584   2.151 -0.1902  0.4952 -0.0069
 3864TIP3    H233084   3.618   2.619   2.215 -0.8937  3.0325  0.2107
 3865TIP3   OH233085   3.381   2.293   5.726  0.0396 -0.4527  0.2109
 3865TIP3    H133086   3.436   2.231   5.678 -0.8305 -1.3295  0.3067
 3865TIP3    H233087   3.386   2.374   5.676  0.7785 -0.7471 -0.2116
 3866TIP3   OH233088   0.263   4.961   3.585 -0.5546  0.2000  0.0673
 3866TIP3    H133089   0.327   5.000   3.526 -0.1394 -0.3888  0.1176
 3866TIP3    H233090   0.306   4.961   3.671 -0.7453  0.0889  0.1648
 3867TIP3   OH233091   5.022   6.794  13.576 -0.3049  0.0708  0.1219
 3867TIP3    H133092   5.060   6.707  13.584  1.5236  0.3596 -3.3324
 3867TIP3    H233093   5.095   6.854  13.591 -0.8251  0.8758 -0.4726
 3868TIP3   OH233094   4.947   5.724  11.911  0.1430  0.0814  0.1034
 3868TIP3    H133095   4.866   5.737  11.959  0.2783 -1.4666  0.8106
 3868TIP3    H233096   5.005   5.794  11.943 -0.4559  0.3451  0.6320
 3869TIP3   OH233097   2.885   4.631  12.517 -0.7037  0.1826  0.0958
 3869TIP3    H133098   2.837   4.605  12.438  0.7165 -0.4375 -0.5935
 3869TIP3    H233099   2.961   4.572  12.520 -0.6030  0.3373  1.8117
 3870TIP3   OH233100   1.973   6.307  15.809 -0.1464 -0.0868  0.6524
 3870TIP3    H133101   1.978   6.295  15.904  0.1114  0.1369  0.6674
 3870TIP3    H233102   1.963   6.402  15.797 -0.0399 -0.0991  0.4527
 3871TIP3   OH233103   3.055   0.962   5.393  0.5774 -0.4779  0.1999
 3871TIP3    H133104   3.077   1.054   5.410  2.1729 -0.6643 -0.6405
 3871TIP3    H233105   2.982   0.943   5.451  0.2480  1.3144  0.4197
 3872TIP3   OH233106   1.241   4.944  13.745 -0.7598  0.1247 -0.1204
 3872TIP3    H133107   1.309   4.965  13.682 -0.4221 -0.8891 -0.1031
 3872TIP3    H233108   1.288   4.910  13.821 -1.0688  2.2566  1.1157
 3873TIP3   OH233109   6.213   2.365   5.274  0.3283  0.1861 -0.0780
 3873TIP3    H133110   6.143   2.332   5.218  1.1029  0.6691 -1.3556
 3873TIP3    H233111   6.170   2.431   5.329 -0.4118 -0.2174 -0.1498
 3874TIP3   OH233112   5.133   4.498  14.323  0.0775 -0.1000  0.4384
 3874TIP3    H133113   5.139   4.591  14.345  2.4677  0.1151 -0.8644
 3874TIP3    H233114   5.187   4.455  14.389  0.9283 -0.2840 -0.3634
 3875TIP3   OH233115   5.163   1.291   1.524  0.0043  0.3300  0.0313
 3875TIP3    H133116   5.122   1.228   1.465 -0.4906  0.1302  0.5884
 3875TIP3    H233117   5.118   1.374   1.506  0.0610  0.3372 -0.0810
 3876TIP3   OH233118   2.854   3.824  11.055  0.1047  0.3665  0.1920
 3876TIP3    H133119   2.823   3.898  11.003  1.4748 -0.3127 -1.6988
 3876TIP3    H233120   2.782   3.761  11.053  0.7975 -0.4835 -2.6815
 3877TIP3   OH233121   6.246   6.466  11.463 -0.6096 -0.3646 -0.2772
 3877TIP3    H133122   6.244   6.385  11.412 -1.0642  0.6915 -2.0355
 3877TIP3    H233123   6.324   6.512  11.432 -0.8849  0.2981 -0.0218
 3878TIP3   OH233124   4.788   4.089  13.613 -0.1435 -0.1811 -0.3700
 3878TIP3    H133125   4.749   4.028  13.551  1.9471 -1.4836 -0.4918
 3878TIP3    H233126   4.856   4.038  13.658 -0.2358  1.2776  1.5806
 3879TIP3   OH233127   6.005   0.611   3.799 -0.1494 -0.5208  0.8242
 3879TIP3    H133128   6.065   0.603   3.873 -0.0874 -1.4157  0.6859
 3879TIP3    H233129   6.057   0.654   3.730  1.0067 -2.9846  0.0281
 3880TIP3   OH233130   1.766   6.308  11.267 -0.2605  0.5808 -0.0909
 3880TIP3    H133131   1.788   6.401  11.271  2.1994  0.0925 -0.8394
 3880TIP3    H233132   1.789   6.281  11.178  1.2106 -1.2070  0.7682
 3881TIP3   OH233133   0.721   3.191  16.721 -0.0395 -0.2226  0.1128
 3881TIP3    H133134   0.778   3.265  16.698 -0.0204  0.1850  1.3962
 3881TIP3    H233135   0.644   3.201  16.666 -0.1588  0.9229  0.4727
 3882TIP3   OH233136   3.068   4.656  14.411  0.1055 -0.0102 -0.0553
 3882TIP3    H133137   3.076   4.563  14.391 -2.0873  0.2429 -2.4987
 3882TIP3    H233138   3.158   4.689  14.405  0.8435 -1.8119  0.3081
 3883TIP3   OH233139   4.579   0.408   5.512  0.4411  0.0329 -0.6940
 3883TIP3    H133140   4.592   0.472   5.582  1.1539 -0.7621 -0.0742
 3883TIP3    H233141   4.542   0.459   5.439 -0.2773  0.8832  0.2381
 3884TIP3   OH233142   6.066   5.928  14.930 -0.3104 -0.2955  0.4502
 3884TIP3    H133143   6.143   5.890  14.888  0.7308 -1.2751  3.0194
 3884TIP3    H233144   6.003   5.857  14.934  0.4631 -0.9380  2.4617
 3885TIP3   OH233145   1.484   3.783   3.149 -1.1005  0.0200  0.2925
 3885TIP3    H133146   1.405   3.749   3.189 -0.6930 -1.4424 -0.1000
 3885TIP3    H233147   1.520   3.844   3.215 -1.9885 -0.0955  0.8970
 3886TIP3   OH233148   1.507   0.135   2.612 -0.9012 -0.1044  0.6031
 3886TIP3    H133149   1.462   0.214   2.581  0.1243 -0.0312 -0.7695
 3886TIP3    H233150   1.437   0.072   2.628 -1.5657  0.2823 -0.6925
 3887TIP3   OH233151   3.886   1.302  16.336 -0.1938 -0.1589  1.0088
 3887TIP3    H133152   3.869   1.212  16.307  0.2395 -0.0518  0.3812
 3887TIP3    H233153   3.893   1.296  16.431 -1.0582 -0.6362  1.0507
 3888TIP3   OH233154   1.401   1.717  14.883  0.3445  0.2510 -0.0975
 3888TIP3    H133155   1.382   1.809  14.864 -3.1059 -0.6597 -2.0465
 3888TIP3    H233156   1.336   1.668  14.832  0.9436 -3.2488  2.1168
 3889TIP3   OH233157   4.124   1.564   0.502  0.0248 -0.0617  0.0142
 3889TIP3    H133158   4.196   1.607   0.548  0.7948 -0.5318 -0.7263
 3889TIP3    H233159   4.064   1.635   0.479  0.2511  0.3336  0.6212
 3890TIP3   OH233160   3.231   4.901  13.265 -0.0019  0.1491 -0.2408
 3890TIP3    H133161   3.278   4.865  13.341 -1.4504 -0.5007  0.3822
 3890TIP3    H233162   3.249   4.839  13.194 -2.1475 -1.7086  0.7174
 3891TIP3   OH233163   4.438   1.367  11.116 -0.3862 -0.4476  0.6124
 3891TIP3    H133164   4.416   1.309  11.043  0.4940  1.0360 -0.9157
 3891TIP3    H233165   4.440   1.454  11.077 -0.5931  0.4947  2.6002
 3892TIP3   OH233166   4.845   5.302   3.900  0.3413  0.0159 -0.0684
 3892TIP3    H133167   4.898   5.274   3.825  0.3711  0.7357 -0.3230
 3892TIP3    H233168   4.802   5.382   3.870 -1.2426 -0.7848 -0.0223
 3893TIP3   OH233169   3.996   0.823  14.765  0.3060 -0.2336  0.1438
 3893TIP3    H133170   3.964   0.854  14.850 -1.9327  1.6246 -1.2318
 3893TIP3    H233171   4.060   0.890  14.738  0.1803 -0.2165 -0.1116
 3894TIP3   OH233172   5.393   2.161  16.968 -0.9521 -0.1847  0.0742
 3894TIP3    H133173   5.320   2.203  16.923 -1.1337  2.7849  2.7361
 3894TIP3    H233174   5.461   2.230  16.971  0.6461 -1.7101  0.6008
 3895TIP3   OH233175   3.841   5.308  14.605 -0.4743 -0.4132 -0.0994
 3895TIP3    H133176   3.768   5.260  14.566  0.7811 -0.5729 -2.4727
 3895TIP3    H233177   3.822   5.400  14.587  0.2606 -0.5056 -1.5137
 3896TIP3   OH233178   5.251   3.160  17.080  0.0724 -0.2963 -0.0735
 3896TIP3    H133179   5.343   3.135  17.086 -0.0649 -0.6043  1.0572
 3896TIP3    H233180   5.239   3.189  16.989  0.7831 -2.1783 -0.8090
 3897TIP3   OH233181   5.327   1.836  17.220  0.3028  0.5573  0.6949
 3897TIP3    H133182   5.399   1.884  17.178 -0.5542  0.4956 -0.9034
 3897TIP3    H233183   5.280   1.796  17.148  0.3380 -1.8227  1.9079
 3898TIP3   OH233184   1.214   1.908   1.667  0.1180  0.1154 -0.3254
 3898TIP3    H133185   1.270   1.874   1.737 -1.1402 -0.7060  0.3198
 3898TIP3    H233186   1.208   2.002   1.685 -1.9371 -0.3507  2.0673
 3899TIP3   OH233187   5.974   0.614   3.336 -0.1328 -0.6117  0.3500
 3899TIP3    H133188   6.006   0.528   3.363  0.4829 -1.1294 -1.8928
 3899TIP3    H233189   5.898   0.595   3.281  0.4230  0.2383 -0.7315
 3900TIP3   OH233190   5.944   1.625   2.313 -0.9598 -0.6161 -0.0580
 3900TIP3    H133191   5.903   1.609   2.228 -0.2534  1.1796 -0.7943
 3900TIP3    H233192   6.036   1.599   2.300 -0.9664 -0.8334  0.3203
 3901TIP3   OH233193   0.285   3.547   1.979 -0.3611  0.0002 -0.6223
 3901TIP3    H133194   0.227   3.488   1.930 -0.5102 -1.7310  1.5177
 3901TIP3    H233195   0.229   3.623   1.999 -0.7150  0.0861 -1.8439
 3902TIP3   OH233196   3.719   0.601  14.765  0.0228  0.2785 -0.2293
 3902TIP3    H133197   3.740   0.508  14.772 -0.9423  0.0506 -0.0885
 3902TIP3    H233198   3.690   0.613  14.674  0.0455  0.4174 -0.2194
 3903TIP3   OH233199   4.465   5.648   3.304 -0.1174  0.1030 -0.3035
 3903TIP3    H133200   4.494   5.663   3.394  0.5147  1.0911 -0.6692
 3903TIP3    H233201   4.463   5.553   3.296 -0.7988 -0.0236  0.9474
 3904TIP3   OH233202   4.533   0.778  16.458  0.6191 -0.5144 -0.4596
 3904TIP3    H133203   4.536   0.828  16.540 -0.0647 -1.0896 -0.0647
 3904TIP3    H233204   4.610   0.721  16.461  0.6896 -0.4107 -0.2897
 3905TIP3   OH233205   5.593   3.516  13.629 -0.1522  0.0033 -0.2004
 3905TIP3    H133206   5.640   3.537  13.710  0.0778  0.3553 -0.4204
 3905TIP3    H233207   5.574   3.602  13.590  3.1045 -0.1430 -2.4370
 3906TIP3   OH233208   2.029   6.140  11.894  0.5345 -0.3618 -0.0325
 3906TIP3    H133209   1.981   6.223  11.890  1.7090  0.3637  0.4452
 3906TIP3    H233210   2.110   6.157  11.846  1.8747 -0.4775  2.0976
 3907TIP3   OH233211   2.104   3.015  14.790  0.0511 -0.0621 -0.1682
 3907TIP3    H133212   2.192   2.980  14.779 -0.3174 -0.6104 -1.6394
 3907TIP3    H233213   2.059   2.993  14.708 -1.9990 -1.3815  1.2040
 3908TIP3   OH233214   2.856   5.953   2.463  0.4049 -0.1325 -0.3961
 3908TIP3    H133215   2.816   6.038   2.484  1.5188  0.3780 -0.2997
 3908TIP3    H233216   2.868   5.955   2.368 -0.5045 -0.6169 -0.5360
 3909TIP3   OH233217   0.947   3.048  16.602 -0.4225 -0.4192 -0.5538
 3909TIP3    H133218   0.869   3.097  16.628  0.8826  0.8075  1.2929
 3909TIP3    H233219   0.921   2.956  16.609 -1.3297 -0.0610  1.3357
 3910TIP3   OH233220   4.738   5.065   3.992  0.0519  0.2839  0.0144
 3910TIP3    H133221   4.811   5.127   3.998 -0.4326  0.9093 -0.4221
 3910TIP3    H233222   4.659   5.119   4.003 -0.4250 -0.0984 -1.3100
 3911TIP3   OH233223   6.429   5.890   4.041 -0.2315  0.6577  0.4975
 3911TIP3    H133224   6.397   5.890   3.951 -1.1218  1.5558  0.7960
 3911TIP3    H233225   6.451   5.799   4.059  2.1793  0.7765 -1.3727
 3912TIP3   OH233226   3.505   2.009  12.114  0.1673  0.1892  0.1139
 3912TIP3    H133227   3.502   1.918  12.143  1.4724 -1.4242 -4.1137
 3912TIP3    H233228   3.416   2.029  12.087 -0.0889  0.1377  0.9061
 3913TIP3   OH233229   2.911   1.768  11.163  0.4900  0.6190  0.5128
 3913TIP3    H133230   2.881   1.678  11.178  0.2783  0.8916  1.9501
 3913TIP3    H233231   2.918   1.776  11.068 -1.0935 -0.4027  0.2640
 3914TIP3   OH233232   4.641   3.219   4.641 -0.1763  0.4543  0.9055
 3914TIP3    H133233   4.574   3.242   4.577  0.0395 -1.0770  0.0706
 3914TIP3    H233234   4.717   3.272   4.617  0.0185 -0.3667 -0.3686
 3915TIP3   OH233235   2.202   1.912   2.123 -0.2553  0.2027  0.0945
 3915TIP3    H133236   2.263   1.838   2.126 -0.3206  0.0465 -1.5080
 3915TIP3    H233237   2.118   1.874   2.098  0.1011  0.9740 -2.5375
 3916TIP3   OH233238   6.570   5.571   2.720 -0.3663  0.1295  0.7650
 3916TIP3    H133239   6.655   5.573   2.764 -0.4120 -1.2313  0.9571
 3916TIP3    H233240   6.581   5.628   2.644  0.4626  0.5974  1.2265
 3917TIP3   OH233241   0.920   4.022  11.105 -0.2574 -0.2251 -0.5695
 3917TIP3    H133242   0.841   4.071  11.082  1.0530  1.6171 -1.3914
 3917TIP3    H233243   0.981   4.040  11.033  0.4790 -2.7314 -0.6830
 3918TIP3   OH233244   6.043   6.321  15.309 -0.0944  0.0180  0.8492
 3918TIP3    H133245   6.034   6.264  15.233  2.2443  0.6053  0.0533
 3918TIP3    H233246   5.993   6.399  15.288  1.5798  0.7337 -0.7403
 3919TIP3   OH233247   6.354   3.153  12.181  0.2058  0.2963 -0.4902
 3919TIP3    H133248   6.275   3.107  12.212 -0.4448  1.0421 -1.0028
 3919TIP3    H233249   6.413   3.082  12.155  0.3986 -0.3351  1.4763
 3920TIP3   OH233250   1.291   2.344   5.817 -0.0817  0.1595 -0.7270
 3920TIP3    H133251   1.277   2.287   5.741 -1.8285 -0.4822  0.0102
 3920TIP3    H233252   1.346   2.292   5.876 -1.2872 -0.6254 -0.2562
 3921TIP3   OH233253   5.856   6.283  15.772 -0.1467  0.8324  0.0558
 3921TIP3    H133254   5.930   6.329  15.732 -1.3575 -0.0447 -3.5964
 3921TIP3    H233255   5.786   6.349  15.777  0.3788  1.3085  2.2662
 3922TIP3   OH233256   1.292   2.764  10.641  0.6078 -0.4078  0.6554
 3922TIP3    H133257   1.250   2.825  10.580 -1.2501 -2.1802  0.0247
 3922TIP3    H233258   1.342   2.705  10.585  1.1912 -0.3535  1.1147
 3923TIP3   OH233259   4.241   5.441   0.312  0.1509  0.2241 -0.4528
 3923TIP3    H133260   4.254   5.491   0.393 -0.8385 -1.1392  0.5739
 3923TIP3    H233261   4.155   5.469   0.280  1.1513  1.8791 -1.9120
 3924TIP3   OH233262   4.174   1.839  11.499  0.0650  0.1862 -0.1140
 3924TIP3    H133263   4.212   1.915  11.542  1.5351 -0.0765 -0.9108
 3924TIP3    H233264   4.155   1.778  11.570  1.8975  0.0032  0.2553
 3925TIP3   OH233265   0.496   0.689   0.253 -0.5853  0.3985 -0.0934
 3925TIP3    H133266   0.495   0.692   0.157 -0.3745  1.4851 -0.0711
 3925TIP3    H233267   0.520   0.598   0.273 -0.8381  0.1010 -1.0618
 3926TIP3   OH233268   2.812   2.990   3.382 -0.0690  0.7003 -0.0800
 3926TIP3    H133269   2.797   3.016   3.292 -2.4348 -0.1741 -0.0133
 3926TIP3    H233270   2.793   2.896   3.383  1.7550  0.2922  0.9834
 3927TIP3   OH233271   4.911   4.161   1.174  0.1098 -0.2893  0.6012
 3927TIP3    H133272   4.908   4.091   1.239 -0.5884  0.5670  1.5135
 3927TIP3    H233273   4.870   4.236   1.217  5.0618  2.2980  1.5765
 3928TIP3   OH233274   2.595   0.438   6.480 -0.2690  0.4875 -0.5407
 3928TIP3    H133275   2.576   0.466   6.570 -0.9206  0.9912 -0.8225
 3928TIP3    H233276   2.533   0.488   6.426  2.2332  2.6652 -1.6026
 3929TIP3   OH233277   2.222   2.518  12.344 -0.3730 -0.2018  0.2938
 3929TIP3    H133278   2.305   2.541  12.386 -1.0968  1.6892  0.8039
 3929TIP3    H233279   2.200   2.595  12.291 -1.4287 -0.9802 -0.4404
 3930TIP3   OH233280   0.980   6.297  14.896 -0.1630  0.0793 -0.7012
 3930TIP3    H133281   0.951   6.245  14.820 -2.5325  0.9175 -0.4615
 3930TIP3    H233282   0.906   6.295  14.956  1.2172  0.4444  1.1079
 3931TIP3   OH233283   3.471   0.979  14.214 -0.2519  0.4438 -0.4639
 3931TIP3    H133284   3.520   0.931  14.281 -0.9946  0.0982 -0.1554
 3931TIP3    H233285   3.492   1.071  14.229 -0.4719  0.3739  0.2894
 3932TIP3   OH233286   4.812   2.841  15.529  1.0246  0.0185 -0.4334
 3932TIP3    H133287   4.761   2.833  15.448  1.4720  0.2550 -0.7417
 3932TIP3    H233288   4.855   2.756  15.538  0.1567 -0.3720  0.1173
 3933TIP3   OH233289   1.259   1.981   4.983 -0.2066 -0.2074 -0.0620
 3933TIP3    H133290   1.270   2.076   4.974 -1.7762  0.0923  0.8586
 3933TIP3    H233291   1.347   1.946   4.972  0.6665  1.4932  1.0842
 3934TIP3   OH233292   4.121   2.510   2.789 -0.5392 -0.2142 -0.2403
 3934TIP3    H133293   4.126   2.530   2.882  1.4131  0.0708 -0.3680
 3934TIP3    H233294   4.064   2.577   2.753 -0.4381  0.3298  0.5794
 3935TIP3   OH233295   4.129   1.782  13.416 -0.4227  0.5155 -0.3069
 3935TIP3    H133296   4.078   1.849  13.370  1.1653  2.1794  0.2762
 3935TIP3    H233297   4.189   1.748  13.349 -0.1272  0.8251 -0.1984
 3936TIP3   OH233298   0.243   6.659  16.613 -0.1255  0.3333 -0.8953
 3936TIP3    H133299   0.204   6.652  16.526 -1.8323  1.3685 -0.2603
 3936TIP3    H233300   0.213   6.581  16.659  0.2738  0.0918 -1.0422
 3937TIP3   OH233301   0.641   4.256  13.374 -0.5412 -0.1760  0.5279
 3937TIP3    H133302   0.681   4.344  13.372 -2.5689  0.7997 -0.0398
 3937TIP3    H233303   0.591   4.255  13.455 -1.6905 -0.2371 -0.1673
 3938TIP3   OH233304   4.300   5.365  14.097 -0.2380  1.0365  0.1138
 3938TIP3    H133305   4.340   5.295  14.045  0.0411  1.4780 -0.2661
 3938TIP3    H233306   4.367   5.386  14.163 -0.9289 -0.1361  1.2347
 3939TIP3   OH233307   0.587   6.397   4.030 -0.5394 -0.2619  0.4540
 3939TIP3    H133308   0.674   6.433   4.013  0.2108 -1.8499  0.7615
 3939TIP3    H233309   0.604   6.311   4.069 -2.2503 -0.8178  0.0342
 3940TIP3   OH233310   1.253   6.013   0.909  0.1216 -0.3846 -0.1272
 3940TIP3    H133311   1.285   6.039   0.823 -1.7902 -0.7206 -0.9807
 3940TIP3    H233312   1.311   6.058   0.971  1.5816 -0.2060 -1.5638
 3941TIP3   OH233313   1.450   0.324   2.047  0.3163 -0.1048  0.6975
 3941TIP3    H133314   1.525   0.377   2.073  1.1190 -1.1473  0.5774
 3941TIP3    H233315   1.451   0.327   1.951  0.8521 -0.9651  0.6639
 3942TIP3   OH233316   2.002   4.152   1.948 -0.6828 -0.2111 -0.1527
 3942TIP3    H133317   2.013   4.109   2.032 -3.1945 -1.4972 -0.3892
 3942TIP3    H233318   1.967   4.238   1.969 -1.8346 -0.7338  0.1375
 3943TIP3   OH233319   0.091   4.386   0.995 -0.0549  0.0672 -0.1593
 3943TIP3    H133320   0.068   4.476   0.972  0.1670 -0.1958 -1.5357
 3943TIP3    H233321   0.018   4.333   0.963  0.3284 -0.3316 -0.4001
 3944TIP3   OH233322   5.472   0.360  17.120  0.1633 -0.4038 -0.0076
 3944TIP3    H133323   5.409   0.432  17.106  0.5554  0.2261  1.2946
 3944TIP3    H233324   5.468   0.344  17.214 -0.7803 -2.9278 -0.4078
 3945TIP3   OH233325   2.874   2.414   2.784 -0.0156 -0.5301 -0.2049
 3945TIP3    H133326   2.930   2.346   2.820  0.0199  0.6890  2.2468
 3945TIP3    H233327   2.785   2.387   2.808 -0.1548 -0.5682 -0.7521
 3946TIP3   OH233328   6.084   3.664   2.811  0.2342  0.4749  0.1097
 3946TIP3    H133329   6.101   3.579   2.851 -0.2734  0.2148 -0.2042
 3946TIP3    H233330   6.103   3.650   2.718  1.5441  1.1093  0.2655
 3947TIP3   OH233331   1.950   6.658   4.098 -0.0800  0.0289 -0.2534
 3947TIP3    H133332   2.045   6.665   4.107 -0.1002  1.1712 -0.7761
 3947TIP3    H233333   1.932   6.691   4.010 -0.9581 -0.3252 -0.2218
 3948TIP3   OH233334   6.083   6.029  12.718 -0.6042 -0.1575 -0.8928
 3948TIP3    H133335   6.011   5.969  12.700 -1.8450  1.7421 -2.7420
 3948TIP3    H233336   6.057   6.111  12.675  2.7640  0.5700 -1.8001
 3949TIP3   OH233337   0.456   4.340  11.537  0.1747 -0.2565  0.2213
 3949TIP3    H133338   0.546   4.312  11.557  0.8660  1.2289 -0.6419
 3949TIP3    H233339   0.430   4.285  11.463 -0.0408 -1.4156  1.1344
 3950TIP3   OH233340   2.259   6.306  14.800  0.4316  0.0804 -0.5745
 3950TIP3    H133341   2.271   6.218  14.834 -0.1826 -0.2777 -1.2344
 3950TIP3    H233342   2.327   6.358  14.841  0.5318 -0.6131  0.1516
 3951TIP3   OH233343   2.180   4.764   3.175  0.1390  0.5620 -0.1410
 3951TIP3    H133344   2.185   4.842   3.231  0.3477  1.5594 -1.4993
 3951TIP3    H233345   2.195   4.797   3.087  1.4295 -1.2009 -0.6388
 3952TIP3   OH233346   2.208   6.186   3.785 -0.9014 -0.6073 -0.8603
 3952TIP3    H133347   2.142   6.142   3.839  0.6820 -0.1619  1.6126
 3952TIP3    H233348   2.240   6.258   3.840 -0.0904  0.7137 -2.9426
 3953TIP3   OH233349   1.652   1.071   3.945  0.2721  0.2826 -0.1918
 3953TIP3    H133350   1.709   1.000   3.915 -0.4546  0.3666 -1.8478
 3953TIP3    H233351   1.712   1.139   3.973  0.9811 -0.4579  0.1479
 3954TIP3   OH233352   3.236   4.578   1.004  0.6417  0.0921  0.4516
 3954TIP3    H133353   3.288   4.637   1.059  3.2795  0.0500 -1.8250
 3954TIP3    H233354   3.178   4.635   0.955  2.8229  0.8899 -1.3620
 3955TIP3   OH233355   6.788   5.144  12.367 -0.8488 -0.4053  0.0304
 3955TIP3    H133356   6.755   5.197  12.441 -0.4618 -0.4538  0.2412
 3955TIP3    H233357   6.709   5.113  12.324 -1.1170  1.2488 -0.7618
 3956TIP3   OH233358   2.281   2.276  13.041 -0.9754 -0.0064 -0.6577
 3956TIP3    H133359   2.253   2.279  13.132 -0.2919  1.0593 -0.4561
 3956TIP3    H233360   2.208   2.235  12.994 -0.9524 -1.3972  0.4870
 3957TIP3   OH233361   0.973   5.637  15.387 -0.0732 -0.1891  0.2281
 3957TIP3    H133362   1.052   5.629  15.335 -0.5273  0.4969 -0.5995
 3957TIP3    H233363   0.927   5.712  15.350 -1.5806 -1.1389  0.0336
 3958TIP3   OH233364   3.566   5.981  13.738 -0.3934  0.4673  0.2755
 3958TIP3    H133365   3.473   5.993  13.721 -0.7757 -0.5543  1.5291
 3958TIP3    H233366   3.582   5.888  13.719  0.7547  0.9782 -1.5364
 3959TIP3   OH233367   3.978   3.170  13.280  0.5033 -0.6324  0.0246
 3959TIP3    H133368   4.005   3.090  13.325  0.9643 -0.3456  0.2695
 3959TIP3    H233369   3.916   3.140  13.213  0.2164 -1.1183  0.5023
 3960TIP3   OH233370   3.752   5.610   4.544  0.0613  0.1947  0.8074
 3960TIP3    H133371   3.782   5.638   4.631 -1.0779  0.2540  1.2051
 3960TIP3    H233372   3.744   5.515   4.551  1.0360  0.0660  0.3984
 3961TIP3   OH233373   0.805   5.724   1.358 -0.1161  0.2895  0.1347
 3961TIP3    H133374   0.878   5.786   1.349  0.4510 -0.5963 -2.0923
 3961TIP3    H233375   0.847   5.639   1.373 -0.8525  0.2481  2.2283
 3962TIP3   OH233376   0.150   3.393   1.063 -0.0077 -0.8159 -0.4807
 3962TIP3    H133377   0.059   3.377   1.085  0.3262 -1.7358  0.2981
 3962TIP3    H233378   0.182   3.310   1.028  0.8526 -0.8774  0.4074
 3963TIP3   OH233379   3.368   5.920  16.944  0.0403  0.1580 -0.0406
 3963TIP3    H133380   3.400   5.972  17.017 -0.1170  0.9125 -0.5028
 3963TIP3    H233381   3.273   5.930  16.948  0.0585  0.6275 -0.6524
 3964TIP3   OH233382   2.934   6.442   0.514 -0.1500  0.4028  0.1962
 3964TIP3    H133383   2.970   6.523   0.549 -0.7752  0.0394  1.7735
 3964TIP3    H233384   2.840   6.450   0.528 -0.5728  0.6069 -2.2840
 3965TIP3   OH233385   6.513   5.606  16.007  0.5713 -0.0865  0.4089
 3965TIP3    H133386   6.452   5.544  15.967  0.9118  0.4461 -0.9620
 3965TIP3    H233387   6.557   5.649  15.934  1.2105  0.9236  1.3436
 3966TIP3   OH233388   1.098   1.550  11.399  0.7984  0.1377  0.1484
 3966TIP3    H133389   1.193   1.550  11.413  0.8440 -2.3033  0.3042
 3966TIP3    H233390   1.062   1.510  11.478  0.0265 -2.4537 -1.3885
 3967TIP3   OH233391   2.165   0.075  12.179 -0.8176  0.2444 -0.2998
 3967TIP3    H133392   2.243   0.121  12.210 -0.3744  0.1064 -1.1743
 3967TIP3    H233393   2.106   0.073  12.254  0.0297  0.3397  0.3760
 3968TIP3   OH233394   1.223   1.922  13.053 -0.1000 -0.4012  0.2737
 3968TIP3    H133395   1.192   1.897  12.966  1.8706  2.2055 -1.3000
 3968TIP3    H233396   1.169   1.997  13.077  1.1757  0.6259  0.0127
 3969TIP3   OH233397   1.472   4.900   2.118  0.1047  0.5247 -0.4620
 3969TIP3    H133398   1.426   4.893   2.035 -2.2531 -0.5989  0.8372
 3969TIP3    H233399   1.440   4.982   2.156  1.2891  1.1146 -0.6708
 3970TIP3   OH233400   3.054   5.621  15.382 -0.1188  0.5666 -0.4163
 3970TIP3    H133401   3.017   5.698  15.339 -2.0367 -0.5221 -0.8323
 3970TIP3    H233402   3.068   5.648  15.473  0.2283  1.7110 -0.8003
 3971TIP3   OH233403   4.182   3.977  13.004 -0.1030  0.1732  0.0866
 3971TIP3    H133404   4.241   3.934  12.942 -0.2876 -0.1039  0.1056
 3971TIP3    H233405   4.220   4.065  13.014  1.1258 -0.4385  1.1674
 3972TIP3   OH233406   5.785   6.748   1.401  0.2729 -0.0604 -0.2048
 3972TIP3    H133407   5.803   6.757   1.494  1.2112  1.4106 -0.4916
 3972TIP3    H233408   5.825   6.665   1.376 -1.3899 -1.2811  0.9799
 3973TIP3   OH233409   5.900   2.456  13.533  0.4858  0.8913 -0.3186
 3973TIP3    H133410   5.813   2.490  13.551  0.7910  0.5850  2.0287
 3973TIP3    H233411   5.924   2.494  13.448 -1.6267  1.5162 -0.6846
 3974TIP3   OH233412   0.024   3.869   4.975 -0.2564 -0.4019  0.3477
 3974TIP3    H133413   0.043   3.930   4.904 -1.0080 -1.1203 -0.4840
 3974TIP3    H233414  -0.007   3.925   5.046 -0.0691  0.2708 -0.0907
 3975TIP3   OH233415   5.918   3.357  15.431  0.2254 -0.0336 -0.3125
 3975TIP3    H133416   5.964   3.342  15.514  0.6331  0.5234 -0.4314
 3975TIP3    H233417   5.952   3.440  15.399  0.5333 -0.5394 -1.3510
 3976TIP3   OH233418   5.640   0.242  11.749 -0.1862 -0.4513 -0.2669
 3976TIP3    H133419   5.665   0.201  11.666  0.8600 -3.2671  1.2876
 3976TIP3    H233420   5.546   0.226  11.756 -0.2346 -0.4310 -0.7858
 3977TIP3   OH233421   0.249   5.708  14.152  0.6862 -0.1277 -0.4087
 3977TIP3    H133422   0.309   5.777  14.121  1.5053 -0.4091  0.4857
 3977TIP3    H233423   0.259   5.710  14.248 -0.5140 -0.3976 -0.2642
 3978TIP3   OH233424   4.984   4.457   1.469  0.1581  0.0424 -0.1193
 3978TIP3    H133425   5.050   4.526   1.465 -0.9421  1.3756  2.3692
 3978TIP3    H233426   5.031   4.381   1.501  0.9682  0.2451 -0.7955
 3979TIP3   OH233427   5.740   5.023   1.263  0.4293 -0.1268  0.0995
 3979TIP3    H133428   5.741   4.937   1.304  1.1794  0.2459  0.9036
 3979TIP3    H233429   5.665   5.068   1.302  0.7889  0.0214  0.6152
 3980TIP3   OH233430   0.211   6.499   3.185 -0.0898  0.2355 -0.2688
 3980TIP3    H133431   0.145   6.568   3.196 -1.1468 -0.7840 -0.0810
 3980TIP3    H233432   0.199   6.442   3.261  1.0175  0.0275 -0.2376
 3981TIP3   OH233433   4.215   0.387   2.658 -0.3172  0.6246  0.2199
 3981TIP3    H133434   4.136   0.440   2.651 -1.2861 -0.6972  0.7372
 3981TIP3    H233435   4.271   0.418   2.587 -1.7138  0.9059 -0.8076
 3982TIP3   OH233436   2.480   2.153   2.716 -0.0902  0.1838 -0.4165
 3982TIP3    H133437   2.427   2.097   2.773  0.3944  0.7912  0.6719
 3982TIP3    H233438   2.513   2.222   2.774 -0.1438  1.2282 -1.5870
 3983TIP3   OH233439   0.400   6.082  13.182  0.3907 -0.1594 -0.1467
 3983TIP3    H133440   0.337   6.058  13.250 -0.4221  1.3640 -0.3312
 3983TIP3    H233441   0.456   6.148  13.223 -0.4191  1.1374 -1.0956
 3984TIP3   OH233442   1.321   0.955  12.054  0.4401  0.0055  0.2332
 3984TIP3    H133443   1.388   0.896  12.089  1.7455  2.1759  1.6951
 3984TIP3    H233444   1.322   0.940  11.960  1.9807 -1.0509  0.3805
 3985TIP3   OH233445   6.392   2.645  12.607  0.6868 -0.2028  0.1094
 3985TIP3    H133446   6.307   2.651  12.651  0.2588  0.0897 -0.7324
 3985TIP3    H233447   6.401   2.727  12.559  2.0455  0.3261  1.2079
 3986TIP3   OH233448   4.498   4.169  12.574 -0.3137  0.4043  0.6320
 3986TIP3    H133449   4.455   4.084  12.562  0.6641  0.1328 -1.3776
 3986TIP3    H233450   4.429   4.233  12.559 -0.3115 -0.0370 -1.7016
 3987TIP3   OH233451   5.745   2.553  17.115  0.8660 -0.3337 -0.2866
 3987TIP3    H133452   5.743   2.637  17.069 -0.1573 -0.4253 -0.4441
 3987TIP3    H233453   5.791   2.571  17.197 -0.4730  0.7102  0.2766
 3988TIP3   OH233454   0.985   3.887  16.514  0.5772  0.1464 -0.4766
 3988TIP3    H133455   0.964   3.900  16.422 -1.1110  0.3918 -0.0965
 3988TIP3    H233456   1.017   3.972  16.544  0.2037  0.3334 -0.6087
 3989TIP3   OH233457   4.735   6.427  15.841 -0.3923  0.4166  0.3494
 3989TIP3    H133458   4.664   6.423  15.904 -0.2586  1.3332  0.5801
 3989TIP3    H233459   4.796   6.490  15.879 -0.3382  1.0218 -0.7190
 3990TIP3   OH233460   3.005   1.338   1.658 -0.2126  0.2880  0.6737
 3990TIP3    H133461   2.974   1.296   1.739 -1.6191  1.1439  0.6057
 3990TIP3    H233462   3.100   1.325   1.660 -0.1760  0.4781  2.5757
 3991TIP3   OH233463   1.296   4.322   3.134 -0.2907  0.3160  0.2412
 3991TIP3    H133464   1.211   4.364   3.124  0.3013  1.4207 -0.4246
 3991TIP3    H233465   1.342   4.375   3.199  0.3572  0.5517 -0.3872
 3992TIP3   OH233466   3.195   0.925  14.342  0.0944  0.4038  0.0063
 3992TIP3    H133467   3.275   0.917  14.290  1.7954  1.9290  2.2094
 3992TIP3    H233468   3.155   1.006  14.313 -0.2720  0.0355 -0.5474
 3993TIP3   OH233469   1.391   0.700  12.564  0.4212  0.1697  0.0240
 3993TIP3    H133470   1.482   0.725  12.544  0.8499 -0.6540  0.8654
 3993TIP3    H233471   1.380   0.721  12.657 -0.9423  2.1926 -0.5340
 3994TIP3   OH233472   3.579   0.046  10.896  0.1792  0.0192 -0.0841
 3994TIP3    H133473   3.495   0.078  10.863  0.5192 -0.6150 -1.6848
 3994TIP3    H233474   3.556  -0.027  10.953 -0.3553 -0.6228 -1.0850
 3995TIP3   OH233475   2.021   5.398  13.546  0.4710 -0.8332 -0.3257
 3995TIP3    H133476   2.087   5.329  13.549 -0.1845 -1.4755 -0.3024
 3995TIP3    H233477   1.941   5.355  13.577  0.5054  0.4587  1.7325
 3996TIP3   OH233478   3.865   6.185   0.838  0.0012  0.1726  0.0379
 3996TIP3    H133479   3.872   6.278   0.815 -0.0921 -0.2366 -1.8405
 3996TIP3    H233480   3.815   6.147   0.766 -1.4099 -1.0560  1.6147
 3997TIP3   OH233481   3.998   1.986   2.779  0.4367  0.2871  0.6896
 3997TIP3    H133482   3.968   1.919   2.840  0.8816  1.6926  2.5587
 3997TIP3    H233483   4.062   1.941   2.724 -0.3936 -1.1755  0.8654
 3998TIP3   OH233484   1.642   5.091   0.974  0.6840  0.5471 -0.4153
 3998TIP3    H133485   1.639   5.020   0.910  1.3659 -0.1392  0.2967
 3998TIP3    H233486   1.576   5.067   1.039  0.4088  0.9469 -0.5410
 3999TIP3   OH233487   5.019   4.300   1.868  0.2873 -0.5940 -0.1225
 3999TIP3    H133488   4.959   4.370   1.843  2.2609  0.7807 -1.2609
 3999TIP3    H233489   5.023   4.305   1.963  1.0797  1.5028 -0.2152
 4000TIP3   OH233490   4.340   4.956   1.412  0.3789  0.3130  0.6638
 4000TIP3    H133491   4.331   5.007   1.493  0.1993  1.7902 -0.2473
 4000TIP3    H233492   4.435   4.947   1.400  0.4892  2.0373 -0.0871
 4001TIP3   OH233493   1.004   6.276  13.589  0.5763 -0.4234  0.0673
 4001TIP3    H133494   0.942   6.260  13.660  0.5674  1.2072  0.4861
 4001TIP3    H233495   1.009   6.193  13.542 -0.7712 -1.0301  0.9129
 4002TIP3   OH233496   5.064   2.496   2.039  0.3825  0.1261 -0.2133
 4002TIP3    H133497   5.063   2.478   2.133 -1.3117 -0.8384 -0.3658
 4002TIP3    H233498   5.011   2.575   2.029 -1.3443 -1.0004 -0.5009
 4003TIP3   OH233499   3.580   0.049  16.922 -0.3215  0.0407 -0.3224
 4003TIP3    H133500   3.572  -0.003  16.842 -1.4196 -0.1030 -0.1403
 4003TIP3    H233501   3.499   0.030  16.971 -0.0788  0.8160  0.4038
 4004TIP3   OH233502   3.421   1.782   3.343 -0.1280 -0.0030  0.2093
 4004TIP3    H133503   3.330   1.810   3.332  0.2664  1.2448 -0.0272
 4004TIP3    H233504   3.435   1.782   3.438 -0.4701 -0.5822  0.2701
 4005TIP3   OH233505   3.688   6.793   1.224  0.2225 -0.2153 -0.4746
 4005TIP3    H133506   3.770   6.744   1.222 -0.5017 -1.4507 -2.2359
 4005TIP3    H233507   3.620   6.727   1.238 -0.4951  0.8226  1.3195
 4006TIP3   OH233508   3.172   3.047  16.269 -0.0645  0.1359 -0.6259
 4006TIP3    H133509   3.262   3.056  16.300 -0.4387  3.5437 -0.1983
 4006TIP3    H233510   3.182   3.026  16.176  1.1581  0.1602 -0.5258
 4007TIP3   OH233511   1.170   6.633  16.529  0.1473  0.8319 -0.1518
 4007TIP3    H133512   1.145   6.720  16.561  0.5431  1.4121 -1.3815
 4007TIP3    H233513   1.127   6.625  16.444  0.8023  0.1715 -0.4337
 4008TIP3   OH233514   4.584   0.499   1.992 -0.3190  0.0505 -0.2480
 4008TIP3    H133515   4.601   0.585   2.030 -0.7772  0.6674 -1.4033
 4008TIP3    H233516   4.669   0.456   1.991 -0.0409  0.5837  0.0886
 4009TIP3   OH233517   6.610   1.334   4.005 -0.0130  0.2351 -0.1813
 4009TIP3    H133518   6.657   1.251   4.011 -0.8958 -0.2036  1.1038
 4009TIP3    H233519   6.635   1.370   3.920  3.2856  0.4424  0.7525
 4010TIP3   OH233520   0.321   0.326   6.291  0.5318  0.2931 -0.2865
 4010TIP3    H133521   0.409   0.320   6.327  0.2016  1.3859  0.7364
 4010TIP3    H233522   0.334   0.357   6.201  1.0885  2.6046  0.5434
 4011TIP3   OH233523   1.651   5.822  10.972  0.3098  0.5259 -0.7091
 4011TIP3    H133524   1.727   5.879  10.960 -1.0496  2.4380 -0.7614
 4011TIP3    H233525   1.659   5.755  10.903  1.4777  1.2262 -1.2772
 4012TIP3   OH233526   6.277   6.466  14.580  0.0319 -0.2260  0.0848
 4012TIP3    H133527   6.190   6.448  14.544  0.1504 -0.5564 -0.0461
 4012TIP3    H233528   6.309   6.380  14.609  0.1494 -0.0432  0.5040
 4013TIP3   OH233529   6.351   0.478   5.290 -0.2488 -0.1847  0.0770
 4013TIP3    H133530   6.256   0.478   5.297 -0.2533 -0.4347  0.0517
 4013TIP3    H233531   6.380   0.547   5.350 -0.5601  1.7585 -1.8845
 4014TIP3   OH233532   5.518   5.475   1.080 -0.7327 -0.4950 -0.4389
 4014TIP3    H133533   5.491   5.528   1.155 -0.1222 -0.5804 -0.1590
 4014TIP3    H233534   5.522   5.537   1.007 -0.8702 -0.3233 -0.3007
 4015TIP3   OH233535   4.886   5.723  15.296  0.2926  0.3878 -0.0332
 4015TIP3    H133536   4.799   5.751  15.268  1.5163  1.0157 -3.7424
 4015TIP3    H233537   4.925   5.801  15.335 -0.8020  0.0461  1.8370
 4016TIP3   OH233538   1.868   4.389  13.774 -0.4266  0.1055 -0.6143
 4016TIP3    H133539   1.902   4.477  13.759  0.0827  0.1558  0.6772
 4016TIP3    H233540   1.936   4.330  13.743 -0.6783  0.1631 -1.2851
 4017TIP3   OH233541   2.069   2.069  15.472  0.5772 -0.2954 -0.0015
 4017TIP3    H133542   2.048   2.015  15.396  0.1653 -2.1576  1.3659
 4017TIP3    H233543   1.999   2.050  15.535  0.9790  1.0935  0.8987
 4018TIP3   OH233544   3.119   1.640   4.059  0.1204  0.0597  0.4707
 4018TIP3    H133545   3.136   1.553   4.095  2.4002  1.5360  3.3682
 4018TIP3    H233546   3.205   1.678   4.045 -0.7978  1.5799 -1.7189
 4019TIP3   OH233547   4.455   2.218   4.143 -0.3048 -0.2628 -0.1622
 4019TIP3    H133548   4.446   2.297   4.196  0.8127 -0.9421  1.0678
 4019TIP3    H233549   4.524   2.167   4.185 -0.5687 -1.6246 -1.2861
 4020TIP3   OH233550   3.084   3.729   0.357 -0.1579 -0.5088  0.3815
 4020TIP3    H133551   3.096   3.799   0.422  1.2217 -0.2697 -0.1013
 4020TIP3    H233552   3.060   3.652   0.409  0.6841 -0.2576  1.1758
 4021TIP3   OH233553   6.483   3.474  14.449 -0.1639  0.2276 -0.7005
 4021TIP3    H133554   6.493   3.386  14.413  0.1603 -0.6576  1.4447
 4021TIP3    H233555   6.564   3.519  14.427  1.1033 -1.1123  1.0446
 4022TIP3   OH233556   4.283   2.709   1.893  1.0788  0.1478  0.5461
 4022TIP3    H133557   4.341   2.700   1.817  1.1061  0.1078  0.5713
 4022TIP3    H233558   4.212   2.647   1.875  0.8574  0.4577  0.3432
 4023TIP3   OH233559   1.394   6.607   1.103  0.5579 -0.4711  0.0147
 4023TIP3    H133560   1.379   6.513   1.093 -0.1452 -0.4860  1.0773
 4023TIP3    H233561   1.473   6.613   1.157  0.0650 -0.4623  0.7371
 4024TIP3   OH233562   1.779   0.412   3.717  0.2260  0.7604  0.5657
 4024TIP3    H133563   1.764   0.344   3.652 -0.2944 -1.0605  2.4931
 4024TIP3    H233564   1.706   0.473   3.706  0.1957  0.5499 -0.5693
 4025TIP3   OH233565   0.298   0.834  15.788  0.1898 -0.3269 -0.1910
 4025TIP3    H133566   0.367   0.901  15.788  0.0809 -0.1912 -1.2143
 4025TIP3    H233567   0.264   0.834  15.877 -0.4270  1.6296 -0.3796
 4026TIP3   OH233568   5.944   2.553  15.502 -0.0138  0.2905 -0.0979
 4026TIP3    H133569   5.912   2.637  15.470 -0.2455  0.9286  1.6763
 4026TIP3    H233570   6.039   2.555  15.486 -0.2006  0.2834 -1.2954
 4027TIP3   OH233571   5.217   0.028  14.338  0.3078 -0.3591 -0.0831
 4027TIP3    H133572   5.233   0.103  14.281 -1.1401 -0.0941 -0.1941
 4027TIP3    H233573   5.137   0.051  14.385  0.9099 -1.0263  1.2993
 4028TIP3   OH233574   4.440   6.093   3.025 -0.2917  0.1066 -0.1523
 4028TIP3    H133575   4.469   6.168   3.077  0.3729  0.7395 -1.3767
 4028TIP3    H233576   4.479   6.017   3.068 -2.1535  0.2441  1.9638
 4029TIP3   OH233577   0.478   3.530   1.640  0.3825 -0.6000  0.0479
 4029TIP3    H133578   0.392   3.498   1.665  1.0408 -2.1209  0.4731
 4029TIP3    H233579   0.539   3.482   1.695  1.5121  0.5551 -0.1400
 4030TIP3   OH233580   1.178   6.360  15.058  0.1021 -0.0840  0.2878
 4030TIP3    H133581   1.100   6.361  15.004 -0.7438  1.6682  1.4373
 4030TIP3    H233582   1.182   6.448  15.096  0.8090 -1.0916  2.7836
 4031TIP3   OH233583   5.813   4.746  16.196  0.3601  0.5384 -0.3151
 4031TIP3    H133584   5.850   4.698  16.270 -0.4534 -0.3536 -0.4591
 4031TIP3    H233585   5.879   4.739  16.127  0.7880  0.7072  0.0744
 4032TIP3   OH233586   3.728   6.653   0.154  0.2657  0.8468 -0.1793
 4032TIP3    H133587   3.702   6.628   0.065  1.5491 -1.3782  0.0046
 4032TIP3    H233588   3.823   6.659   0.151  0.1903  4.7539  0.1619
 4033TIP3   OH233589   4.816   1.759   3.208  0.0551 -0.5480 -0.2601
 4033TIP3    H133590   4.745   1.822   3.221  0.3510 -0.1031 -0.7467
 4033TIP3    H233591   4.840   1.731   3.296 -1.5680 -1.6868 -0.1296
 4034TIP3   OH233592   6.463   1.172  11.652  0.4440  0.1067  0.6359
 4034TIP3    H133593   6.388   1.229  11.668 -0.4079 -0.6461 -0.4660
 4034TIP3    H233594   6.496   1.201  11.567  0.9876 -0.0121  0.8057
 4035TIP3   OH233595   5.867   2.146  15.836  0.8729  0.1481  0.0179
 4035TIP3    H133596   5.857   2.177  15.746 -1.5165  0.2085  0.2547
 4035TIP3    H233597   5.885   2.225  15.887 -1.7223  0.7794  0.1052
 4036TIP3   OH233598   1.284   6.364   0.414  0.2760 -0.0298  0.2152
 4036TIP3    H133599   1.201   6.323   0.438 -0.1314  1.9052  2.5948
 4036TIP3    H233600   1.282   6.370   0.319 -1.9102 -0.8032  0.1668
 4037TIP3   OH233601   0.929   0.062   1.796  0.3252  0.3557  0.2082
 4037TIP3    H133602   0.952   0.009   1.873  1.7840  0.3649 -0.1827
 4037TIP3    H233603   0.946   0.152   1.824  1.9772  0.2842 -0.4436
 4038TIP3   OH233604   2.832   4.892  12.267  0.6069 -0.6265 -0.0538
 4038TIP3    H133605   2.789   4.878  12.352 -0.0481  0.2561 -0.2308
 4038TIP3    H233606   2.923   4.911  12.290 -0.1337  2.5662  0.7076
 4039TIP3   OH233607   5.914   0.993  11.984  0.6120  0.4360 -0.5747
 4039TIP3    H133608   5.864   0.961  11.908 -0.2330  1.7761 -0.6171
 4039TIP3    H233609   5.855   0.981  12.058 -0.0820  2.5818 -0.7107
 4040TIP3   OH233610   2.212   2.540  14.211 -0.4638  0.6479 -0.3414
 4040TIP3    H133611   2.228   2.576  14.298  2.1996 -0.1794 -0.4137
 4040TIP3    H233612   2.259   2.598  14.151  0.2508 -0.4586 -0.8938
 4041TIP3   OH233613   3.950   0.307   2.445 -0.0402 -0.3432  0.2791
 4041TIP3    H133614   3.898   0.354   2.511 -0.8182 -1.0658  0.1985
 4041TIP3    H233615   4.003   0.375   2.404  1.6738 -0.0892  2.7198
 4042TIP3   OH233616   5.797   6.566   0.333 -0.1941  0.3574  0.3023
 4042TIP3    H133617   5.847   6.540   0.411  0.5314  0.0314 -0.2586
 4042TIP3    H233618   5.726   6.502   0.328 -0.5618  0.7021  0.9962
 4043TIP3   OH233619   0.546   4.467   0.015  0.5071  0.6663 -0.2111
 4043TIP3    H133620   0.452   4.454   0.031  0.7568 -2.2820 -0.6265
 4043TIP3    H233621   0.577   4.515   0.092 -1.6587  3.7029 -1.0622
 4044TIP3   OH233622   3.447   0.872  16.019 -0.1708  0.1306 -0.2114
 4044TIP3    H133623   3.437   0.789  15.974  1.0554 -0.9909  1.4749
 4044TIP3    H233624   3.381   0.871  16.088 -0.0233  0.4526 -0.0585
 4045TIP3   OH233625   4.854   2.346  11.584 -0.4058 -0.2990  0.8221
 4045TIP3    H133626   4.900   2.328  11.502 -0.0295 -3.1773  1.5534
 4045TIP3    H233627   4.761   2.338  11.562 -0.6347  2.9996 -0.0876
 4046TIP3   OH233628   6.150   2.752  11.844 -0.3076  0.5861 -0.9978
 4046TIP3    H133629   6.092   2.827  11.853  0.4831  1.1535 -0.4306
 4046TIP3    H233630   6.108   2.696  11.779 -2.5682 -0.0360  0.8653
 4047TIP3   OH233631   5.535   3.163   1.764  0.3443 -0.0952  0.0942
 4047TIP3    H133632   5.593   3.088   1.748  0.6554  0.3571 -1.0027
 4047TIP3    H233633   5.481   3.136   1.838 -0.7381 -2.0980 -1.3534
 4048TIP3   OH233634   2.199   2.949  16.497  0.0452  0.0990  0.1822
 4048TIP3    H133635   2.221   2.917  16.585  1.4800 -0.1331 -0.2319
 4048TIP3    H233636   2.252   2.895  16.438  0.8958  1.7994 -0.6681
 4049TIP3   OH233637   2.435   3.699   4.285  0.3249  0.0676 -0.2857
 4049TIP3    H133638   2.397   3.612   4.298 -0.4904  0.5037  0.3298
 4049TIP3    H233639   2.522   3.694   4.325 -0.3836  0.0257  1.3551
 4050TIP3   OH233640   1.678   0.459   0.860 -0.2458  0.2284 -0.6974
 4050TIP3    H133641   1.688   0.427   0.950 -0.0743  1.2532 -0.3379
 4050TIP3    H233642   1.612   0.528   0.867  0.8606  1.3760 -1.0674
 4051TIP3   OH233643   4.619   4.662  13.594 -0.4693  0.4879  0.1237
 4051TIP3    H133644   4.698   4.608  13.589 -0.2619  0.6761  1.1485
 4051TIP3    H233645   4.650   4.752  13.581 -0.6509  0.4834 -0.3836
 4052TIP3   OH233646   3.388   0.286  14.185  0.3868 -0.3463 -0.1704
 4052TIP3    H133647   3.407   0.372  14.148 -0.7679 -0.3745 -0.8958
 4052TIP3    H233648   3.353   0.235  14.111 -1.0332 -0.7276  0.7179
 4053TIP3   OH233649   5.618   1.016  14.399  0.1968 -0.2260  0.2621
 4053TIP3    H133650   5.665   1.096  14.421  1.1589 -0.5567 -0.5141
 4053TIP3    H233651   5.633   0.957  14.472  1.2268 -0.4174 -0.0887
 4054TIP3   OH233652   1.362   2.347  11.497  0.0944  0.0179 -0.3949
 4054TIP3    H133653   1.356   2.364  11.403  0.7253  1.1980 -0.2426
 4054TIP3    H233654   1.448   2.381  11.522  0.4331 -1.3548  0.4038
 4055TIP3   OH233655   3.244   6.546   0.059  0.0886  0.2630 -0.2522
 4055TIP3    H133656   3.163   6.531   0.010  1.0624 -2.0333 -1.2984
 4055TIP3    H233657   3.219   6.536   0.151 -0.9935  0.6126 -0.4930
 4056TIP3   OH233658   4.350   2.050   6.193  0.5628 -0.4004 -0.2376
 4056TIP3    H133659   4.406   2.118   6.228 -0.0360 -0.6681  1.3142
 4056TIP3    H233660   4.370   2.048   6.099  0.2559  2.2007 -0.4195
 4057TIP3   OH233661   0.638   4.571   0.585 -0.0103  0.0151  0.0023
 4057TIP3    H133662   0.687   4.648   0.557  0.6142 -1.0438 -2.0038
 4057TIP3    H233663   0.704   4.501   0.587 -1.0790 -1.0473 -0.9252
 4058TIP3   OH233664   5.007   2.250   4.602  0.1790 -1.1475  0.1712
 4058TIP3    H133665   5.087   2.292   4.632  0.0052 -1.6718  1.4213
 4058TIP3    H233666   4.941   2.275   4.667 -0.5846 -1.0646 -0.6143
 4059TIP3   OH233667   3.753   6.460  14.974  0.1155 -0.2363  0.2155
 4059TIP3    H133668   3.740   6.517  15.050  0.4375  0.1602 -0.0216
 4059TIP3    H233669   3.819   6.397  15.002  1.6230  1.0331 -0.3080
 4060TIP3   OH233670   2.556   5.546  12.208  0.0783  0.0123 -0.0642
 4060TIP3    H133671   2.618   5.619  12.209 -0.3538  0.4534 -2.0300
 4060TIP3    H233672   2.612   5.468  12.214  0.5151  0.4259  2.6259
 4061TIP3   OH233673   1.450   3.097  13.824 -0.1277  0.5858  0.2673
 4061TIP3    H133674   1.455   3.114  13.918  0.6948  1.0852  0.1349
 4061TIP3    H233675   1.508   3.022  13.810 -1.7241 -0.7601  0.4326
 4062TIP3   OH233676   6.334   0.225  12.792  0.2732  0.0318  0.0598
 4062TIP3    H133677   6.254   0.174  12.777  0.7716 -0.4098 -1.2419
 4062TIP3    H233678   6.303   0.307  12.830 -0.7353 -0.4148  0.2425
 4063TIP3   OH233679   0.190   1.292  15.858  0.2261  0.2959 -0.1928
 4063TIP3    H133680   0.110   1.330  15.893 -0.6125  2.1611 -3.6472
 4063TIP3    H233681   0.258   1.357  15.875  0.0835  0.6335 -0.8879
 4064TIP3   OH233682   6.385   4.653   4.411  0.2511  0.5152  0.0717
 4064TIP3    H133683   6.299   4.683   4.442 -0.0272 -0.6145  0.4603
 4064TIP3    H233684   6.367   4.611   4.327  0.1892 -0.8255  0.7177
 4065TIP3   OH233685   4.559   4.885  11.003  0.3693  0.1528  0.2411
 4065TIP3    H133686   4.644   4.856  10.968  1.2399  1.7442  0.9439
 4065TIP3    H233687   4.557   4.979  10.987 -0.2576  0.5260  2.3000
 4066TIP3   OH233688   3.339   6.314  13.117 -0.0215  0.5641  0.6757
 4066TIP3    H133689   3.395   6.305  13.040  1.6941  1.3047  1.7441
 4066TIP3    H233690   3.369   6.245  13.176 -0.6311  0.6127  1.0450
 4067TIP3   OH233691   0.972   6.555  14.594 -0.0918  0.1022  0.8121
 4067TIP3    H133692   0.969   6.586  14.685  1.1009 -1.1855  1.3259
 4067TIP3    H233693   0.883   6.523  14.577 -0.0438 -0.6727  1.9191
 4068TIP3   OH233694   0.022   5.487  14.778  0.4688  0.1455 -0.1751
 4068TIP3    H133695   0.066   5.527  14.853 -1.1927 -0.1817  1.0277
 4068TIP3    H233696  -0.042   5.427  14.817  1.8713 -2.6892 -1.8601
 4069TIP3   OH233697   6.026   0.351   6.542  0.5884  0.0845 -0.2467
 4069TIP3    H133698   6.082   0.295   6.489  0.1538 -0.6945  0.1086
 4069TIP3    H233699   6.067   0.350   6.629  1.3049  1.3642 -0.5368
 4070TIP3   OH233700   1.838   6.569  11.251  0.0727 -0.3555  0.3082
 4070TIP3    H133701   1.885   6.650  11.271 -4.4515  1.8335  3.8745
 4070TIP3    H233702   1.799   6.584  11.165  1.2754  0.0787 -0.1855
 4071TIP3   OH233703   3.726   2.359  10.733  0.4285 -0.0240  0.2568
 4071TIP3    H133704   3.723   2.445  10.774  0.0727 -0.1198  0.4396
 4071TIP3    H233705   3.684   2.370  10.648 -1.3085 -0.4045  1.0223
 4072TIP3   OH233706   5.638   1.509   0.338  0.1174  0.0300 -0.4200
 4072TIP3    H133707   5.599   1.433   0.294  2.0796  0.6901 -3.6260
 4072TIP3    H233708   5.568   1.543   0.394 -0.7761 -4.1572  1.3442
 4073TIP3   OH233709   4.086   0.229   1.279  0.3149 -0.4093  0.5277
 4073TIP3    H133710   4.169   0.193   1.311 -0.6313 -0.4202  3.2273
 4073TIP3    H233711   4.062   0.295   1.344  0.3865  2.9732 -2.5955
 4074TIP3   OH233712   3.471   0.839  14.702  0.1092 -0.1573  0.5554
 4074TIP3    H133713   3.545   0.893  14.728  0.4186  0.3048 -1.1463
 4074TIP3    H233714   3.461   0.775  14.773  0.3167  1.5380  2.1778
 4075TIP3   OH233715   5.915   0.339   5.974  0.1824 -0.1514 -1.0105
 4075TIP3    H133716   6.010   0.331   5.969  0.0797 -1.6661 -1.0471
 4075TIP3    H233717   5.892   0.296   6.057 -0.3633  1.6139 -0.1862
 4076TIP3   OH233718   6.415   3.813  16.730 -0.1879  0.1262  0.1279
 4076TIP3    H133719   6.384   3.772  16.811 -2.3905  0.5536 -0.4401
 4076TIP3    H233720   6.363   3.893  16.722  0.4998  0.4621 -1.3524
 4077TIP3   OH233721   5.199   2.892   5.453  0.2268 -0.3801 -0.0304
 4077TIP3    H133722   5.180   2.901   5.360  0.9202  1.6545 -0.0355
 4077TIP3    H233723   5.163   2.807   5.478 -2.4338  0.2179 -1.5275
 4078TIP3   OH233724   2.605   5.511  13.376  0.4208 -0.4109 -0.5500
 4078TIP3    H133725   2.700   5.517  13.378  0.3410  1.9036 -0.7914
 4078TIP3    H233726   2.580   5.545  13.290 -0.6002 -2.5004 -1.1432
 4079TIP3   OH233727   5.611   1.441   5.903 -0.4355 -0.2352  0.3119
 4079TIP3    H133728   5.536   1.500   5.908 -0.6970 -0.6612  2.6931
 4079TIP3    H233729   5.579   1.358   5.937  0.8541 -0.7179  0.4124
 4080TIP3   OH233730   5.264   0.328  13.471 -0.1710  0.3252 -0.4164
 4080TIP3    H133731   5.176   0.364  13.455  0.2834  0.8274 -1.9938
 4080TIP3    H233732   5.314   0.403  13.503 -0.5342 -0.1992  1.5406
 4081TIP3   OH233733   6.036   5.632  11.031  0.2452  0.2304 -0.2075
 4081TIP3    H133734   6.003   5.602  11.116 -1.3359  0.1248 -0.8279
 4081TIP3    H233735   6.064   5.723  11.047 -0.2034  0.2690  0.3934
 4082TIP3   OH233736   1.342   4.289  13.913  0.2032  0.0716 -0.0484
 4082TIP3    H133737   1.315   4.332  13.832 -0.6922  0.4890  0.4571
 4082TIP3    H233738   1.279   4.218  13.924  0.0637  0.2788  0.4977
 4083TIP3   OH233739   2.504   4.421  14.288 -0.6823 -0.3581 -0.3105
 4083TIP3    H133740   2.578   4.368  14.257 -1.2564  0.5080 -3.6608
 4083TIP3    H233741   2.529   4.511  14.265 -1.8940  0.1930  0.4535
 4084TIP3   OH233742   1.621   6.564  12.764 -0.1551  0.3963  0.1544
 4084TIP3    H133743   1.688   6.620  12.724 -0.7499  0.3723 -0.9259
 4084TIP3    H233744   1.582   6.518  12.690 -0.9870 -0.0109  0.8309
 4085TIP3   OH233745   0.245   5.589  14.553  0.6912 -0.2133  0.5295
 4085TIP3    H133746   0.279   5.511  14.596  2.0826 -0.7947 -1.5011
 4085TIP3    H233747   0.323   5.635  14.521 -0.2349 -0.8671 -3.0837
 4086TIP3   OH233748   1.651   4.132  13.788  0.4344 -0.6609 -0.9107
 4086TIP3    H133749   1.575   4.099  13.740  0.7223  0.6904 -2.4019
 4086TIP3    H233750   1.726   4.111  13.732  0.9982 -0.6981 -0.1567
 4087TIP3   OH233751   2.623   1.948  11.184 -0.3611  0.7308  0.0335
 4087TIP3    H133752   2.638   1.970  11.092 -0.5751 -0.4145 -0.2945
 4087TIP3    H233753   2.707   1.912  11.214 -0.9854 -1.2997 -0.4754
 4088TIP3   OH233754   4.713   5.395   5.844  0.1099 -0.7473 -0.1655
 4088TIP3    H133755   4.781   5.338   5.808  1.4521  0.4604  0.3672
 4088TIP3    H233756   4.698   5.359   5.932  1.0820 -0.2239  0.2381
 4089TIP3   OH233757   4.336   5.658  15.649 -0.0963 -0.0744  0.1024
 4089TIP3    H133758   4.295   5.582  15.608 -0.3424  0.2341 -0.2357
 4089TIP3    H233759   4.263   5.707  15.687  0.0194  0.1718  0.0117
 4090TIP3   OH233760   4.951   6.398  15.477 -0.3872  0.1003  0.1949
 4090TIP3    H133761   5.023   6.353  15.432 -0.8169 -1.3414  0.9035
 4090TIP3    H233762   4.930   6.472  15.420 -0.4544 -1.2608 -1.6293
 4091TIP3   OH233763   6.482   0.126   0.352 -0.0051  0.2718  0.4433
 4091TIP3    H133764   6.459   0.195   0.414  1.1247  1.2498 -0.2001
 4091TIP3    H233765   6.461   0.163   0.266  0.4827 -0.2378  0.1013
 4092TIP3   OH233766   5.215   3.217  16.791 -0.1909 -0.3531 -0.1405
 4092TIP3    H133767   5.290   3.274  16.772  0.2328  0.1789  2.7098
 4092TIP3    H233768   5.141   3.261  16.749  0.2622  1.9868  1.3176
 4093TIP3   OH233769   0.063   3.613  12.743  0.0537 -0.3216  0.0576
 4093TIP3    H133770  -0.027   3.587  12.765  0.2305 -0.4755  0.6094
 4093TIP3    H233771   0.058   3.639  12.651 -0.2673 -1.6683 -0.3326
 4094TIP3   OH233772   2.316   2.757  11.140 -0.1448 -0.1759  0.3810
 4094TIP3    H133773   2.313   2.787  11.231 -2.9675  0.1869  0.2773
 4094TIP3    H233774   2.272   2.672  11.141 -2.7224  1.0204 -0.9267
 4095TIP3   OH233775   6.526   3.181   1.984  0.2481  0.3118  0.4630
 4095TIP3    H133776   6.535   3.088   1.963  2.7159  0.2190  1.4986
 4095TIP3    H233777   6.519   3.183   2.080 -1.0554  1.1457  0.3656
 4096TIP3   OH233778   5.333   3.301  11.362 -0.0217  0.4118  0.3207
 4096TIP3    H133779   5.409   3.300  11.303  0.3183 -0.8298  0.7419
 4096TIP3    H233780   5.333   3.214  11.402 -0.6041  1.0114  1.6999
 4097TIP3   OH233781   2.345   4.508  16.081  0.0566  0.2267 -0.1191
 4097TIP3    H133782   2.272   4.520  16.142 -0.2088 -1.1512 -0.1328
 4097TIP3    H233783   2.308   4.532  15.996  0.5036  2.4052  0.2585
 4098TIP3   OH233784   3.532   3.651   0.710 -0.4371 -0.1122  0.4322
 4098TIP3    H133785   3.549   3.703   0.632 -0.5797 -0.1233  0.3922
 4098TIP3    H233786   3.603   3.587   0.713  0.9743  1.4376  1.6710
 4099TIP3   OH233787   6.788   2.587  16.700 -0.5939  0.5955  0.2360
 4099TIP3    H133788   6.862   2.526  16.711 -1.5634 -0.5737  0.5206
 4099TIP3    H233789   6.821   2.671  16.733  2.3987  1.6138 -4.3865
 4100TIP3   OH233790   0.507   2.312  16.355  0.0688 -0.2816  0.6099
 4100TIP3    H133791   0.511   2.301  16.450 -0.3749 -0.7011  0.5816
 4100TIP3    H233792   0.587   2.270  16.323 -0.4861 -1.4441  0.6889
 4101TIP3   OH233793   6.477   2.987  14.341 -0.0112 -0.2547 -0.1353
 4101TIP3    H133794   6.419   2.915  14.313 -0.0779 -0.0049 -0.6507
 4101TIP3    H233795   6.565   2.950  14.336 -0.1347 -0.7356  0.9527
 4102TIP3   OH233796   6.253   3.870   1.644  0.0417 -0.2116  0.4973
 4102TIP3    H133797   6.193   3.821   1.700 -1.0220 -1.2953 -1.4872
 4102TIP3    H233798   6.314   3.804   1.610 -0.9828 -0.1204 -1.6715
 4103TIP3   OH233799   2.270   6.454   2.595 -0.5571  0.3556 -0.6193
 4103TIP3    H133800   2.312   6.368   2.589 -2.7512 -0.7460 -1.0713
 4103TIP3    H233801   2.327   6.511   2.543  0.3598 -1.0521 -1.2442
 4104TIP3   OH233802   0.430   0.940  16.959 -0.2041 -0.5692  0.3154
 4104TIP3    H133803   0.407   0.878  17.028 -2.2813 -0.6652 -0.3957
 4104TIP3    H233804   0.493   0.999  17.000  2.6961 -3.6170  0.7640
 4105TIP3   OH233805   5.795   4.424  10.579 -0.4347  0.0508 -0.1116
 4105TIP3    H133806   5.869   4.483  10.567 -1.1623  1.1559  0.5928
 4105TIP3    H233807   5.724   4.481  10.611 -2.0165 -0.7095 -2.0661
 4106TIP3   OH233808   0.086   3.866   4.162  0.5058  0.0320  0.0474
 4106TIP3    H133809   0.148   3.845   4.232 -2.2094 -1.9996  2.0528
 4106TIP3    H233810   0.015   3.912   4.207 -0.1798  0.9310 -1.8870
 4107TIP3   OH233811   4.119   6.644  17.226  0.2924 -0.2299  0.0766
 4107TIP3    H133812   4.118   6.648  17.321  1.3025  0.2321  0.0788
 4107TIP3    H233813   4.092   6.555  17.205 -1.5796  0.1407  0.7312
 4108TIP3   OH233814   2.506   3.286   1.629  0.0514 -0.1250  0.8055
 4108TIP3    H133815   2.599   3.275   1.649 -0.0205 -1.5038  0.4994
 4108TIP3    H233816   2.461   3.240   1.700 -0.3620 -0.3269  0.4189
 4109TIP3   OH233817   6.696   0.121   0.814  0.0946  0.0256 -0.0357
 4109TIP3    H133818   6.675   0.214   0.806  2.0478  0.4733 -0.5676
 4109TIP3    H233819   6.684   0.087   0.726  1.8501  0.3885 -0.4562
 4110TIP3   OH233820   5.952   1.481  13.931 -0.2406  0.1623 -0.5871
 4110TIP3    H133821   5.894   1.428  13.876  1.8754  0.2946 -3.1728
 4110TIP3    H233822   5.932   1.571  13.906 -0.3457  0.3143  0.0433
 4111TIP3   OH233823   6.047   5.386  15.478  0.0183 -0.5523 -0.9054
 4111TIP3    H133824   5.973   5.441  15.451 -1.0465 -1.5213 -0.0383
 4111TIP3    H233825   6.026   5.299  15.444  1.4639 -0.5654 -1.8611
 4112TIP3   OH233826   4.823   6.794   5.599  0.0001 -0.1307 -0.6531
 4112TIP3    H133827   4.843   6.756   5.513  0.5934 -1.5360  0.0625
 4112TIP3    H233828   4.878   6.745   5.660  0.4460  1.6168  0.4164
 4113TIP3   OH233829   0.955   4.316  16.409 -0.0506  0.1209 -0.6732
 4113TIP3    H133830   1.040   4.274  16.426  0.9449  1.2865 -2.4306
 4113TIP3    H233831   0.925   4.344  16.496  0.9760 -0.9943  0.0760
 4114TIP3   OH233832   2.872   1.695   2.259  0.3419 -0.6135 -0.4830
 4114TIP3    H133833   2.898   1.722   2.347 -0.1937 -1.1773 -0.1424
 4114TIP3    H233834   2.786   1.655   2.271  0.1930 -0.5519 -1.2908
 4115TIP3   OH233835   3.031   2.850   4.614 -0.0317  0.2697  0.1634
 4115TIP3    H133836   2.968   2.807   4.556  1.0440 -2.6189  0.9659
 4115TIP3    H233837   3.082   2.907   4.556 -0.8962 -0.2565 -1.1617
 4116TIP3   OH233838   3.348   0.901  15.545  0.4506  0.0701 -0.3201
 4116TIP3    H133839   3.298   0.966  15.495  0.2489 -0.3258 -0.6448
 4116TIP3    H233840   3.370   0.834  15.480 -1.5432 -1.4738  0.4887
 4117TIP3   OH233841   6.459   4.701  12.721 -0.0756 -0.3387  0.0855
 4117TIP3    H133842   6.444   4.706  12.815  1.0732  0.7288  0.2390
 4117TIP3    H233843   6.552   4.680  12.713 -0.0990 -0.1182 -0.8184
 4118TIP3   OH233844   1.471   3.875  14.849  0.6277  0.5971  0.3103
 4118TIP3    H133845   1.522   3.839  14.777  1.2248 -0.4115  1.2173
 4118TIP3    H233846   1.382   3.846  14.833  1.0089 -0.8607  0.7400
 4119TIP3   OH233847   2.794   4.379  11.740 -0.1033 -0.5804 -0.1113
 4119TIP3    H133848   2.876   4.415  11.773  0.2183 -0.2095 -1.2635
 4119TIP3    H233849   2.797   4.287  11.765  1.1693 -0.8176 -1.0510
 4120TIP3   OH233850   4.974   3.931   4.332 -0.0676  0.2604 -0.1811
 4120TIP3    H133851   4.918   4.007   4.341 -0.1561  0.5327 -2.4371
 4120TIP3    H233852   4.920   3.857   4.359 -1.1336  0.6518 -1.1831
 4121TIP3   OH233853   3.741   2.302  14.201  0.2800 -0.1278 -0.7318
 4121TIP3    H133854   3.797   2.251  14.142 -0.2951  1.2437 -2.5491
 4121TIP3    H233855   3.802   2.340  14.264  0.7352 -2.8435  0.5991
 4122TIP3   OH233856   3.100   3.335  15.595  0.1380 -0.8200  0.1983
 4122TIP3    H133857   3.084   3.403  15.531 -1.3415 -1.5622 -0.2635
 4122TIP3    H233858   3.173   3.284  15.559 -0.1357 -0.7370 -0.4793
 4123TIP3   OH233859   4.527   2.022   2.294  0.2330 -0.1612  0.0874
 4123TIP3    H133860   4.465   2.089   2.324 -0.5215 -0.4713 -0.7246
 4123TIP3    H233861   4.555   1.978   2.374  1.0830  1.3964  0.6812
 4124TIP3   OH233862   2.664   6.510   0.293 -0.2135  0.1595  0.1211
 4124TIP3    H133863   2.573   6.522   0.318 -0.7572  0.9641 -2.0457
 4124TIP3    H233864   2.663   6.501   0.198  2.0372  1.2106 -0.0953
 4125TIP3   OH233865   0.744   6.730   0.140 -0.6290 -0.0762 -0.3113
 4125TIP3    H133866   0.828   6.711   0.182 -1.2812 -2.5335  0.0543
 4125TIP3    H233867   0.767   6.781   0.063  1.3841 -1.8034 -0.9568
 4126TIP3   OH233868   5.684   5.871  11.490  0.0530 -0.3789 -0.1979
 4126TIP3    H133869   5.753   5.900  11.549  1.5814 -1.5850 -1.2963
 4126TIP3    H233870   5.702   5.917  11.408  0.4744 -1.7829 -0.9277
 4127TIP3   OH233871   3.443   6.697  14.005  0.0898 -0.6496 -0.4349
 4127TIP3    H133872   3.483   6.615  13.976  0.0590 -0.9876  0.4458
 4127TIP3    H233873   3.517   6.756  14.020  0.1048 -0.4624 -1.1955
 4128TIP3   OH233874   1.496   0.923   3.126 -0.5640 -0.0439  0.8551
 4128TIP3    H133875   1.483   1.013   3.097 -1.4339  0.0568  1.5000
 4128TIP3    H233876   1.524   0.876   3.048  4.2166  1.5765  1.2765
 4129TIP3   OH233877   5.956   1.496   0.830 -0.3273 -0.0386  0.2195
 4129TIP3    H133878   5.908   1.480   0.749  0.2434  0.0497 -0.1503
 4129TIP3    H233879   5.915   1.573   0.868  0.8907  1.3858 -1.2204
 4130TIP3   OH233880   0.786   2.600  14.322  0.2430 -0.0079 -0.1542
 4130TIP3    H133881   0.873   2.630  14.351  0.1255  0.5018 -0.3048
 4130TIP3    H233882   0.804   2.524  14.267  0.5889  0.0240 -0.0897
 4131TIP3   OH233883   4.902   0.370  13.727 -0.4109 -0.3883 -0.1354
 4131TIP3    H133884   4.965   0.427  13.683 -1.8906  0.3651 -1.3840
 4131TIP3    H233885   4.849   0.335  13.655 -1.9938 -0.2734  0.9457
 4132TIP3   OH233886   2.845   1.526   5.064 -0.5348  0.0420 -0.4295
 4132TIP3    H133887   2.841   1.612   5.107 -0.1540  0.4384 -1.1554
 4132TIP3    H233888   2.925   1.531   5.010 -0.3910 -0.8524 -0.3055
 4133TIP3   OH233889   6.210   3.082  10.863 -0.4155  0.2705  0.1898
 4133TIP3    H133890   6.182   3.160  10.910 -0.8558  0.6832 -0.7192
 4133TIP3    H233891   6.292   3.056  10.904 -2.0811 -1.0148  3.0156
 4134TIP3   OH233892   5.025   5.289   2.832 -0.4635  0.0009  0.0461
 4134TIP3    H133893   4.984   5.353   2.890 -2.4876  0.6493 -1.9569
 4134TIP3    H233894   5.114   5.279   2.867 -1.7484 -0.2269  3.6267
 4135TIP3   OH233895   4.048   2.983   5.882  0.1733 -0.8443  0.0746
 4135TIP3    H133896   4.091   3.053   5.931  1.0047 -0.5980 -0.9700
 4135TIP3    H233897   4.008   2.928   5.949 -0.1868  0.4245  0.9324
 4136TIP3   OH233898   4.622   2.709   4.415  0.8522  0.2686  0.5097
 4136TIP3    H133899   4.546   2.767   4.405  0.1362 -0.8392 -0.8823
 4136TIP3    H233900   4.695   2.758   4.379  0.4760  0.7309  0.3677
 4137TIP3   OH233901   2.800   6.586   1.654 -0.4639  0.0829  0.1368
 4137TIP3    H133902   2.759   6.668   1.625 -0.2873  0.5884  1.2377
 4137TIP3    H233903   2.787   6.525   1.582 -0.2100  1.2108 -0.8933
 4138TIP3   OH233904   3.644   5.465  16.588  0.6165 -0.2050 -0.3930
 4138TIP3    H133905   3.724   5.437  16.545  0.0583  0.2395 -1.7657
 4138TIP3    H233906   3.636   5.558  16.565  2.1648  1.1633  3.6116
 4139TIP3   OH233907   2.024   4.975   5.172 -0.1783  0.2893 -0.2413
 4139TIP3    H133908   1.937   4.994   5.209  0.4383 -0.4407  1.7008
 4139TIP3    H233909   2.021   4.882   5.152 -0.4793  0.6593 -2.1010
 4140TIP3   OH233910   2.496   3.975   2.235 -0.0226 -0.4217  0.7511
 4140TIP3    H133911   2.420   3.966   2.294 -0.6855  2.5163  0.4619
 4140TIP3    H233912   2.458   3.979   2.148  0.6652 -0.8977  0.4236
 4141TIP3   OH233913   3.229   2.368  17.296 -0.7036  0.0205 -0.0206
 4141TIP3    H133914   3.137   2.373  17.319 -0.7556 -0.4032 -0.1349
 4141TIP3    H233915   3.267   2.448  17.332 -1.2321  0.4995 -0.5151
 4142TIP3   OH233916   5.696   1.493   6.490 -0.2424 -0.5111  0.2309
 4142TIP3    H133917   5.624   1.471   6.549  0.0077 -0.0779  0.7024
 4142TIP3    H233918   5.727   1.579   6.520  0.8036 -0.9208  0.3596
 4143TIP3   OH233919   0.033   1.457  14.865  0.2912 -0.0727  0.1317
 4143TIP3    H133920   0.095   1.388  14.841  0.4586  0.2387 -0.3338
 4143TIP3    H233921  -0.011   1.479  14.783 -0.1917 -0.0473  0.3921
 4144TIP3   OH233922   6.737   4.647  13.424 -0.3132 -0.2939 -0.2922
 4144TIP3    H133923   6.653   4.661  13.382  0.2526 -0.5956 -1.5696
 4144TIP3    H233924   6.780   4.581  13.369  0.3113 -0.9742  0.9676
 4145TIP3   OH233925   5.885   0.962   4.409 -0.7325 -0.0978  0.5275
 4145TIP3    H133926   5.937   1.036   4.441  3.0739 -3.0086  1.9710
 4145TIP3    H233927   5.850   0.921   4.488 -1.5251 -0.6726 -0.1003
 4146TIP3   OH233928   0.265   0.464  16.627 -0.4235 -0.0212 -0.0549
 4146TIP3    H133929   0.356   0.480  16.654 -0.6047  0.3976  0.3138
 4146TIP3    H233930   0.214   0.530  16.675 -0.8859 -0.0534 -0.4983
 4147TIP3   OH233931   1.717   0.203   3.127  0.0404  0.5603  0.2683
 4147TIP3    H133932   1.697   0.177   3.037  0.7774 -0.5491  0.4059
 4147TIP3    H233933   1.686   0.130   3.180 -0.6354  1.3250  0.9592
 4148TIP3   OH233934   4.740   4.903  13.339  0.3841  0.0036  0.2543
 4148TIP3    H133935   4.811   4.947  13.292 -0.5567  2.7450  1.1863
 4148TIP3    H233936   4.718   4.963  13.410 -0.9952 -2.0828  1.7104
 4149TIP3   OH233937   5.991   1.450  15.253 -0.5630 -0.6591 -0.4208
 4149TIP3    H133938   5.906   1.422  15.285 -0.6585 -0.5681 -0.5945
 4149TIP3    H233939   5.995   1.417  15.163  0.1805 -1.9349  0.0598
 4150TIP3   OH233940   4.449   0.347  16.970 -1.1040  0.4362 -0.7080
 4150TIP3    H133941   4.369   0.340  17.022 -0.2952 -1.1798  0.4017
 4150TIP3    H233942   4.509   0.395  17.025 -0.3535 -0.9868 -0.2330
 4151TIP3   OH233943   6.811   3.519   3.430  0.5905  0.1738  0.6490
 4151TIP3    H133944   6.787   3.528   3.338  2.5570 -0.9737 -0.0396
 4151TIP3    H233945   6.833   3.427   3.441  0.4271  0.2907  2.2749
 4152TIP3   OH233946   3.416   2.066   0.756  0.2261  0.4862 -0.1710
 4152TIP3    H133947   3.341   2.079   0.698 -1.4392 -1.5849  1.3943
 4152TIP3    H233948   3.392   2.110   0.837  1.5943  1.4644 -0.2557
 4153TIP3   OH233949   4.443   1.093   3.019 -0.0052 -0.2681 -0.0428
 4153TIP3    H133950   4.509   1.045   3.068 -0.0017  0.4165  0.6337
 4153TIP3    H233951   4.375   1.028   3.000  0.1850 -0.6349  0.5161
 4154TIP3   OH233952   0.677   5.920   2.429 -0.0471  0.6635 -0.0085
 4154TIP3    H133953   0.730   5.880   2.498 -0.6543  1.0168  0.6727
 4154TIP3    H233954   0.643   6.000   2.468 -0.2555  0.9584 -0.7810
 4155TIP3   OH233955   6.591   4.634   3.151  0.5366  0.4619  0.1992
 4155TIP3    H133956   6.512   4.580   3.145  1.5785 -1.0256 -0.9802
 4155TIP3    H233957   6.599   4.673   3.063  2.0225 -0.8160 -0.2751
 4156TIP3   OH233958   1.908   6.259   5.432  0.3657  0.3005 -0.0532
 4156TIP3    H133959   1.841   6.221   5.488 -0.6030  0.2124 -1.2346
 4156TIP3    H233960   1.971   6.298   5.493 -0.8969  0.6342  1.0909
 4157TIP3   OH233961   4.468   2.581  16.401 -0.3505  0.2084  0.1573
 4157TIP3    H133962   4.517   2.598  16.320  0.2237 -1.3057  0.1503
 4157TIP3    H233963   4.506   2.500  16.435 -2.3056 -0.5858  0.5843
 4158TIP3   OH233964   4.214   5.942   1.404 -0.7798  0.1447  0.0702
 4158TIP3    H133965   4.204   5.862   1.352  0.6017  0.3580 -0.5678
 4158TIP3    H233966   4.304   5.940   1.435 -0.6892  1.5031 -0.0366
 4159TIP3   OH233967   6.481   1.353   1.120  0.1900  0.1189  0.8303
 4159TIP3    H133968   6.453   1.374   1.031  2.4232 -1.1276 -0.2481
 4159TIP3    H233969   6.404   1.372   1.175 -1.4684  0.2816 -1.4215
 4160TIP3   OH233970   5.420   5.987  12.493 -0.0359 -0.2496  0.3102
 4160TIP3    H133971   5.332   5.974  12.528  0.9700 -0.9966  2.8235
 4160TIP3    H233972   5.465   5.904  12.510  1.1310  0.0748 -1.0193
 4161TIP3   OH233973   4.016   3.186  14.742  0.2358 -0.2059  0.2795
 4161TIP3    H133974   4.026   3.188  14.838  1.9105 -0.8451  0.1549
 4161TIP3    H233975   4.063   3.107  14.715 -0.8880 -0.4646 -1.0204
 4162TIP3   OH233976   1.853   2.392  11.900  0.3415  0.8886 -0.3032
 4162TIP3    H133977   1.769   2.375  11.857  1.1761 -0.3857 -1.5388
 4162TIP3    H233978   1.918   2.350  11.843  1.6122 -0.0456  1.7007
 4163TIP3   OH233979   0.003   3.930  12.152 -0.6165 -0.6149 -0.1202
 4163TIP3    H133980  -0.014   3.836  12.154 -1.1839 -0.6790 -2.9902
 4163TIP3    H233981   0.020   3.949  12.059  0.9724  1.8828  0.5824
 4164TIP3   OH233982   5.511   4.287  12.302 -0.2715  0.3463 -0.5529
 4164TIP3    H133983   5.592   4.333  12.326  0.5943 -0.7266 -1.3275
 4164TIP3    H233984   5.453   4.356  12.271  0.1267  1.2122  0.5235
 4165TIP3   OH233985   5.835   0.229  16.488 -0.3498 -0.1619  0.1879
 4165TIP3    H133986   5.788   0.278  16.421  0.6463  1.8030  0.8558
 4165TIP3    H233987   5.889   0.166  16.439 -0.4957  0.4557 -0.7875
 4166TIP3   OH233988   3.678   4.898   1.877  0.2864  0.1612  0.1545
 4166TIP3    H133989   3.662   4.859   1.963  1.1903 -0.0288  0.2403
 4166TIP3    H233990   3.700   4.989   1.896 -0.6473  0.4250  0.0342
 4167TIP3   OH233991   2.099   1.131  13.125  0.1645 -0.8231 -0.0737
 4167TIP3    H133992   2.095   1.194  13.053 -0.6046 -1.4461 -0.5959
 4167TIP3    H233993   2.036   1.063  13.101 -1.7671 -0.0130  2.2027
 4168TIP3   OH233994   2.676   4.665  16.923 -0.0642 -0.6788  0.0351
 4168TIP3    H133995   2.619   4.741  16.929 -0.7524 -1.3044  1.8216
 4168TIP3    H233996   2.645   4.618  16.846 -0.8853 -0.1524  0.0340
 4169TIP3   OH233997   6.407   3.647  17.186  0.0696 -0.5472 -0.3558
 4169TIP3    H133998   6.402   3.688  17.100  0.7472 -0.4511 -0.3535
 4169TIP3    H233999   6.324   3.670  17.229 -0.7842 -1.5603 -1.4014
 4170TIP3   OH234000   1.053   2.597   0.186 -0.3551  0.1229  0.1407
 4170TIP3    H134001   1.026   2.688   0.177 -0.7341 -0.0873 -0.9900
 4170TIP3    H234002   0.971   2.551   0.207 -0.4487 -0.1582 -0.7949
 4171TIP3   OH234003   1.212   5.373   0.283 -0.2539  0.3586  0.3181
 4171TIP3    H134004   1.144   5.321   0.325 -0.6457 -1.3818 -2.2014
 4171TIP3    H234005   1.168   5.456   0.262 -1.3962 -0.4198 -0.5158
 4172TIP3   OH234006   5.263   0.063  14.611  0.8448  0.1539 -0.3491
 4172TIP3    H134007   5.270   0.156  14.631  0.1715 -0.1590  1.5019
 4172TIP3    H234008   5.335   0.046  14.550  2.3881  1.4451  1.0051
 4173TIP3   OH234009   2.883   5.669   5.962 -0.0763  0.1197 -0.8191
 4173TIP3    H134010   2.852   5.623   5.884  0.6541 -2.4526  0.2626
 4173TIP3    H234011   2.856   5.612   6.035  1.1386  1.3016  0.6161
 4174TIP3   OH234012   0.738   0.353  17.235 -0.1194  0.8013 -0.2697
 4174TIP3    H134013   0.756   0.373  17.143 -2.7675 -1.0146 -1.3219
 4174TIP3    H234014   0.652   0.393  17.251  0.3635  1.2326  1.5264
 4175TIP3   OH234015   2.141   5.471   5.940 -1.1687  0.3122 -0.5579
 4175TIP3    H134016   2.065   5.413   5.946  0.8858 -2.4450  1.6442
 4175TIP3    H234017   2.200   5.427   5.879 -0.1194  0.7681  0.1002
 4176TIP3   OH234018   5.965   5.378  16.725  0.3241  0.1500 -0.2058
 4176TIP3    H134019   5.960   5.346  16.635 -0.2169 -0.1905 -0.0584
 4176TIP3    H234020   5.878   5.363  16.761  0.3782  0.7793  0.2130
 4177TIP3   OH234021   3.482   3.950   4.567  0.0641  0.0815 -0.5782
 4177TIP3    H134022   3.513   3.971   4.655  1.3328 -2.4658 -0.3224
 4177TIP3    H234023   3.430   3.870   4.578 -1.8099  1.0414 -1.8632
 4178TIP3   OH234024   0.907   6.579   4.711  0.0325  0.2648 -0.0546
 4178TIP3    H134025   0.840   6.623   4.659 -0.4668  0.3297  0.6313
 4178TIP3    H234026   0.874   6.489   4.721  0.7806 -0.1312 -0.9851
 4179TIP3   OH234027   5.084   6.546  11.479 -0.3792  0.2139  0.0905
 4179TIP3    H134028   5.150   6.499  11.429  0.6716  0.0545  1.5514
 4179TIP3    H234029   5.011   6.485  11.487 -0.1632 -0.1109 -0.4193
 4180TIP3   OH234030   0.448   5.195   2.316  0.0073  0.5975 -0.2508
 4180TIP3    H134031   0.390   5.235   2.381  0.4049  1.3008 -0.3228
 4180TIP3    H234032   0.481   5.268   2.264  1.3087  0.2677  0.0717
 4181TIP3   OH234033   1.006   6.499   5.127  0.6319  0.8056 -0.7729
 4181TIP3    H134034   1.036   6.445   5.054  2.4676  2.7088 -1.5388
 4181TIP3    H234035   0.941   6.558   5.088 -3.1324 -2.1236  0.5159
 4182TIP3   OH234036   6.392   4.780   5.685 -0.0225  0.0198  0.2087
 4182TIP3    H134037   6.404   4.872   5.660  0.0141  0.2234  0.9587
 4182TIP3    H234038   6.480   4.743   5.682 -0.1563 -0.2409 -1.0150
 4183TIP3   OH234039   3.487   3.339   2.845  0.2664  0.3517  0.2828
 4183TIP3    H134040   3.509   3.254   2.884  1.4432  1.6349  2.6396
 4183TIP3    H234041   3.420   3.376   2.903 -0.5463  0.8896 -0.9535
 4184TIP3   OH234042   0.902   4.545  13.650  0.3920  0.2604  0.3828
 4184TIP3    H134043   0.878   4.514  13.737 -0.3675  0.0478  0.1046
 4184TIP3    H234044   0.993   4.574  13.659  0.0466  1.0694  1.4615
 4185TIP3   OH234045   3.508   3.494  14.535 -0.0938 -0.0291  0.5211
 4185TIP3    H134046   3.482   3.483  14.627 -0.5614 -0.3333  0.3546
 4185TIP3    H234047   3.529   3.587  14.527  2.0864 -0.3891  1.4818
 4186TIP3   OH234048   0.913   0.901   2.456  0.1579  0.5852 -0.0243
 4186TIP3    H134049   0.982   0.965   2.472 -0.2779  1.0258  0.1083
 4186TIP3    H234050   0.845   0.922   2.520 -1.1381  1.6857 -1.6680
 4187TIP3   OH234051   1.143   4.512  16.793 -0.3418  0.5127 -0.4542
 4187TIP3    H134052   1.080   4.493  16.724  0.4566  1.3949 -1.4770
 4187TIP3    H234053   1.224   4.532  16.747  0.0029  1.9783  0.6720
 4188TIP3   OH234054   1.958   3.993  15.431  0.1120 -1.1102  0.0518
 4188TIP3    H134055   1.866   3.969  15.439 -0.0126 -0.7225 -0.1582
 4188TIP3    H234056   1.957   4.075  15.381  0.4531 -0.2008  1.4749
 4189TIP3   OH234057   4.959   3.458  14.900  0.1336 -0.1583  0.0279
 4189TIP3    H134058   4.911   3.412  14.969 -0.9188  0.4237 -0.2986
 4189TIP3    H234059   5.044   3.479  14.940  0.4207 -1.8477  0.3650
 4190TIP3   OH234060   4.753   4.864  16.180  0.1681 -0.2854  0.1048
 4190TIP3    H134061   4.735   4.905  16.096 -0.9820 -1.4679 -0.2658
 4190TIP3    H234062   4.802   4.784  16.158 -1.7644 -1.6059  0.3304
 4191TIP3   OH234063   3.364   4.805  13.487 -0.3684 -0.3690 -0.3934
 4191TIP3    H134064   3.384   4.842  13.573 -0.9821 -0.8236 -0.0458
 4191TIP3    H234065   3.441   4.753  13.464 -0.3774 -0.5955  0.0786
 4192TIP3   OH234066   3.353   1.162   3.449  0.1157  0.3526  0.2724
 4192TIP3    H134067   3.332   1.132   3.360  2.6219  0.5025 -0.4440
 4192TIP3    H234068   3.280   1.219   3.472  0.0081  1.3805 -2.2591
 4193TIP3   OH234069   0.015   2.319  12.346 -0.0026 -0.1004 -0.6920
 4193TIP3    H134070  -0.018   2.252  12.287  0.0009  0.0947 -0.9162
 4193TIP3    H234071  -0.038   2.397  12.326 -0.4013 -0.1970 -0.0341
 4194TIP3   OH234072   3.584   0.246  13.685  0.0585  0.0624  0.1689
 4194TIP3    H134073   3.597   0.340  13.674 -1.0340  0.0998 -1.1012
 4194TIP3    H234074   3.672   0.210  13.687  0.4980  0.9134 -1.6056
 4195TIP3   OH234075   3.644   1.941  16.789 -0.3685  0.4820 -0.5759
 4195TIP3    H134076   3.617   1.977  16.874  1.3356  0.3353  0.0556
 4195TIP3    H234077   3.736   1.964  16.781 -0.0100 -1.1392 -1.5396
 4196TIP3   OH234078   6.620   1.753   1.893 -0.1824  0.2393  0.3419
 4196TIP3    H134079   6.631   1.844   1.865  0.2007 -0.1763 -0.9351
 4196TIP3    H234080   6.534   1.728   1.859 -0.0036 -0.0661  0.1041
 4197TIP3   OH234081   2.636   5.223   4.694 -0.0891  0.3350  0.1836
 4197TIP3    H134082   2.643   5.195   4.785 -1.4200  1.2339  0.5920
 4197TIP3    H234083   2.544   5.210   4.672  0.2834 -0.1627 -1.1376
 4198TIP3   OH234084   0.456   1.552   4.785 -0.0921 -0.1368 -0.0972
 4198TIP3    H134085   0.400   1.569   4.861  0.4209  0.9867  0.0554
 4198TIP3    H234086   0.415   1.602   4.714 -0.7523 -1.4397 -0.6598
 4199TIP3   OH234087   4.192   1.237  14.873 -0.0757  0.2956  0.8499
 4199TIP3    H134088   4.151   1.182  14.807  0.5076  1.7545 -0.7892
 4199TIP3    H234089   4.190   1.184  14.953 -3.2080 -0.4908  0.3679
 4200TIP3   OH234090   1.532   1.712   4.019 -0.6380  0.0139  0.1805
 4200TIP3    H134091   1.582   1.780   3.974 -1.7301  0.4798 -0.3373
 4200TIP3    H234092   1.522   1.745   4.109 -2.4649  1.2839 -0.4401
 4201TIP3   OH234093   3.891   5.872   0.305 -0.0659  0.3290 -0.8930
 4201TIP3    H134094   3.973   5.866   0.353 -1.1826 -1.8221  0.9467
 4201TIP3    H234095   3.898   5.807   0.236 -0.1481  0.2700 -0.8465
 4202TIP3   OH234096   4.728   1.573   2.773 -0.2210 -0.2375  0.3329
 4202TIP3    H134097   4.681   1.516   2.833 -0.0991 -0.7315 -0.0352
 4202TIP3    H234098   4.742   1.654   2.822  1.2003 -1.1519  1.5069
 4203TIP3   OH234099   0.844   2.796  16.678  0.0513 -0.0701 -0.2108
 4203TIP3    H134100   0.886   2.768  16.759 -3.7340 -0.4270  1.8821
 4203TIP3    H234101   0.806   2.716  16.641 -0.8749  0.5211 -0.6021
 4204TIP3   OH234102   3.729   2.078   1.530  0.0001  0.5087 -0.1127
 4204TIP3    H134103   3.690   2.045   1.610  0.8534 -0.0468  0.0886
 4204TIP3    H234104   3.729   2.003   1.470 -0.2618  0.8104 -0.5019
 4205TIP3   OH234105   2.835   2.849  14.461  0.2185  0.2560 -0.2380
 4205TIP3    H134106   2.906   2.857  14.525  0.6124 -2.1218 -0.3059
 4205TIP3    H234107   2.763   2.898  14.500  1.0576  0.4950  1.0917
 4206TIP3   OH234108   1.092   6.014  11.197  0.2880 -0.3309  0.1145
 4206TIP3    H134109   1.018   5.984  11.251  0.2460 -1.4001 -0.5016
 4206TIP3    H234110   1.163   5.954  11.220  0.7851  0.3013  0.2460
 4207TIP3   OH234111   2.683   3.064  17.052 -0.8234  0.2485 -0.1529
 4207TIP3    H134112   2.658   3.114  17.129 -0.5893 -2.1518  1.5968
 4207TIP3    H234113   2.690   2.974  17.083  0.8812 -0.5816 -2.6320
 4208TIP3   OH234114   6.652   0.736   3.354  0.2971 -0.4240  0.2826
 4208TIP3    H134115   6.686   0.646   3.355  1.2908 -0.0818 -0.5086
 4208TIP3    H234116   6.691   0.774   3.275 -1.1157  0.3279 -0.0667
 4209TIP3   OH234117   4.524   3.155  11.274  0.7932 -0.6829  0.5652
 4209TIP3    H134118   4.598   3.184  11.327 -0.1102  0.8770  1.0655
 4209TIP3    H234119   4.472   3.234  11.261  0.3089 -1.3082 -1.5928
 4210TIP3   OH234120   1.275   4.385  12.217  0.1649 -0.3218 -0.2203
 4210TIP3    H134121   1.248   4.401  12.127 -0.4888 -0.7537 -0.1067
 4210TIP3    H234122   1.283   4.290  12.222 -3.0144 -0.6358  1.0484
 4211TIP3   OH234123   1.257   1.275  12.012 -0.2047  0.1827  0.1211
 4211TIP3    H134124   1.276   1.220  12.088 -2.5540 -0.0795  0.5902
 4211TIP3    H234125   1.320   1.246  11.945  1.3191 -0.1861  1.6454
 4212TIP3   OH234126   5.834   1.445   3.764 -0.6718 -0.0098 -0.0135
 4212TIP3    H134127   5.918   1.420   3.802 -1.6232 -0.4558  1.9480
 4212TIP3    H234128   5.839   1.416   3.673  0.6031 -1.7280  0.5480
 4213TIP3   OH234129   1.252   3.413  11.657 -0.0281 -0.0919 -0.1341
 4213TIP3    H134130   1.298   3.438  11.577  0.4546  0.4052  0.2969
 4213TIP3    H234131   1.303   3.451  11.728 -0.8949  0.1650  0.3766
 4214TIP3   OH234132   0.209   3.371  14.856  0.0375  0.0489  0.6205
 4214TIP3    H134133   0.197   3.458  14.893 -1.2196  0.6616 -1.1184
 4214TIP3    H234134   0.219   3.386  14.762  1.8362 -1.5409  0.4964
 4215TIP3   OH234135   4.690   3.565  17.247 -0.1712 -0.1156  0.1761
 4215TIP3    H134136   4.756   3.541  17.312  0.8932  1.4371 -0.2724
 4215TIP3    H234137   4.723   3.530  17.164  0.4520  1.2070 -0.1584
 4216TIP3   OH234138   5.101   1.938  11.146  0.2425 -0.1621 -0.5721
 4216TIP3    H134139   5.029   1.981  11.100  0.1278  0.3430  0.0794
 4216TIP3    H234140   5.064   1.909  11.229  0.3350 -1.4679 -0.9591
 4217TIP3   OH234141   5.616   3.132   6.262  0.0956  0.2896  1.3373
 4217TIP3    H134142   5.527   3.135   6.228  1.5461 -1.8951 -3.5877
 4217TIP3    H234143   5.623   3.045   6.301  0.3293  0.0009  0.6683
 4218TIP3   OH234144   2.223   2.455  13.927 -0.9087  1.0529  0.4664
 4218TIP3    H134145   2.202   2.394  13.998  0.1990  1.1359  0.8889
 4218TIP3    H234146   2.296   2.507  13.961  0.4589  0.3003 -1.1556
 4219TIP3   OH234147   5.484   4.541   4.380  0.2720 -0.1867  0.2388
 4219TIP3    H134148   5.419   4.508   4.442  0.2477  1.2163  1.0124
 4219TIP3    H234149   5.558   4.481   4.388  0.3205  0.0275  1.7553
 4220TIP3   OH234150   1.649   2.083  16.877 -0.1047 -0.2361 -0.3624
 4220TIP3    H134151   1.598   2.136  16.816  1.2499  1.2833 -0.2466
 4220TIP3    H234152   1.724   2.138  16.900  1.3438 -2.1719 -0.1500
 4221TIP3   OH234153   2.719   6.717  16.734  0.3221  0.3529 -0.4877
 4221TIP3    H134154   2.758   6.795  16.774  3.3636 -1.1830 -0.1218
 4221TIP3    H234155   2.735   6.647  16.797 -1.9441 -0.7176 -0.9915
 4222TIP3   OH234156   0.361   2.998  16.435 -0.0154  0.1053  0.2872
 4222TIP3    H134157   0.375   2.982  16.342 -0.7242 -3.6321  0.6701
 4222TIP3    H234158   0.416   2.934  16.480 -1.2598  0.3657  2.3549
 4223TIP3   OH234159   1.445   4.568   3.044  0.4096  0.0838  0.8077
 4223TIP3    H134160   1.506   4.580   3.117  1.1038 -0.1927  0.2810
 4223TIP3    H234161   1.419   4.476   3.049  0.3156  0.1094  0.8035
 4224TIP3   OH234162   5.157   4.342   1.195  0.0002 -0.3765  0.6876
 4224TIP3    H134163   5.105   4.416   1.164  0.5871 -0.6125 -0.9533
 4224TIP3    H234164   5.094   4.288   1.243 -0.8976  0.1665  0.1592
 4225TIP3   OH234165   0.386   3.269   4.931 -0.0247  0.5271 -0.0260
 4225TIP3    H134166   0.359   3.218   5.008  1.2837 -2.0415 -1.1408
 4225TIP3    H234167   0.444   3.336   4.967  0.8369 -0.8275  1.2578
 4226TIP3   OH234168   0.644   5.689   6.319 -0.3323  0.6177 -0.4455
 4226TIP3    H134169   0.591   5.630   6.373 -1.6932  1.0156 -1.2958
 4226TIP3    H234170   0.580   5.743   6.273  0.8428  1.4644 -1.1369
 4227TIP3   OH234171   0.021   1.705  15.317 -0.3441  0.1027  0.0892
 4227TIP3    H134172   0.109   1.670  15.322 -0.4109 -0.0388  0.3058
 4227TIP3    H234173   0.006   1.746  15.402  0.3039  2.0544 -0.6932
 4228TIP3   OH234174   2.500   0.202  14.481 -0.2742  0.9498 -1.0196
 4228TIP3    H134175   2.425   0.212  14.540  1.4517 -2.1558  2.0599
 4228TIP3    H234176   2.537   0.291  14.474 -1.0591  1.6227  2.0008
 4229TIP3   OH234177   0.699   0.634   5.980 -0.1415  0.2807  0.2738
 4229TIP3    H134178   0.607   0.617   5.960 -0.7218  1.1191  2.0374
 4229TIP3    H234179   0.706   0.619   6.075  1.9311 -1.4184 -0.0736
 4230TIP3   OH234180   1.585   2.745   3.084  0.0811 -0.2641 -0.2227
 4230TIP3    H134181   1.600   2.677   3.017  4.2242 -0.0808  0.2279
 4230TIP3    H234182   1.656   2.808   3.069  1.3003 -0.2508  4.3068
 4231TIP3   OH234183   3.389   2.036  11.002 -0.5314  0.5240  0.6189
 4231TIP3    H134184   3.422   1.947  10.986 -2.5639 -0.0063 -1.3427
 4231TIP3    H234185   3.463   2.084  11.037  2.2405 -0.6420 -2.9987
 4232TIP3   OH234186   4.179   6.395   5.907  0.3824 -0.1580  0.2728
 4232TIP3    H134187   4.204   6.469   5.961  1.9793 -0.2700 -0.2797
 4232TIP3    H234188   4.245   6.328   5.925 -0.4066 -1.0615 -0.0641
 4233TIP3   OH234189   3.626   5.864  15.555  0.2122  0.2033  0.7829
 4233TIP3    H134190   3.716   5.833  15.544 -0.8845 -3.7339  1.3796
 4233TIP3    H234191   3.618   5.880  15.649  0.4670  1.3649  0.6207
 4234TIP3   OH234192   3.388   1.676   0.908  0.2842 -0.2189  0.3776
 4234TIP3    H134193   3.446   1.750   0.893 -0.8374  0.2924 -1.8785
 4234TIP3    H234194   3.332   1.703   0.981  0.9982  0.4397  0.6841
 4235TIP3   OH234195   0.799   6.225   2.360 -0.3368  0.2675  0.0798
 4235TIP3    H134196   0.779   6.305   2.409 -0.3565 -0.7373  1.8037
 4235TIP3    H234197   0.850   6.172   2.421 -0.3292 -1.0427 -1.0225
 4236TIP3   OH234198   6.640   4.062   2.007  0.0280  0.1633 -0.1804
 4236TIP3    H134199   6.592   4.106   1.937  0.7063  0.3403 -0.5410
 4236TIP3    H234200   6.632   3.969   1.987 -1.3254  0.1008  0.5277
 4237TIP3   OH234201   2.232   1.746   0.680 -0.5337 -0.1631 -0.6177
 4237TIP3    H134202   2.164   1.764   0.744  1.0402 -1.0268  1.3913
 4237TIP3    H234203   2.284   1.827   0.676 -0.4721 -0.2014 -0.5988
 4238TIP3   OH234204   3.717   3.062   0.031  0.5098 -0.2145 -0.1689
 4238TIP3    H134205   3.683   3.020  -0.049  4.2403  1.5185 -2.9908
 4238TIP3    H234206   3.685   3.152   0.026 -0.2938 -0.4070  1.0948
 4239TIP3   OH234207   3.363   4.571  11.811 -0.1972 -0.4580 -0.4505
 4239TIP3    H134208   3.321   4.610  11.734 -0.0502 -1.8569 -1.2821
 4239TIP3    H234209   3.373   4.478  11.788  0.0219 -0.8739  1.1942
 4240TIP3   OH234210   2.782   5.287   2.277 -0.1322  0.0012 -0.4515
 4240TIP3    H134211   2.866   5.244   2.258  0.5051  0.8256  0.4224
 4240TIP3    H234212   2.735   5.285   2.194  0.3784 -1.2793 -0.7350
 4241TIP3   OH234213   4.765   5.872   3.812  0.0732 -0.1468  0.4138
 4241TIP3    H134214   4.842   5.858   3.867 -0.1297  1.1460  1.0593
 4241TIP3    H234215   4.792   5.939   3.749 -0.5155  0.3516  0.6750
 4242TIP3   OH234216   5.715   5.742  11.991 -0.0489  0.8906 -0.3136
 4242TIP3    H134217   5.726   5.682  11.917 -0.8221  0.1558  0.1515
 4242TIP3    H234218   5.669   5.817  11.954 -0.6673  0.4146 -0.5407
 4243TIP3   OH234219   1.315   6.021  14.724  0.5248 -0.3266  0.1268
 4243TIP3    H134220   1.323   6.049  14.816  0.0382  0.6697 -0.1195
 4243TIP3    H234221   1.403   6.036  14.688  0.9140 -1.3856  0.5905
 4244TIP3   OH234222   0.578   0.956   5.368  0.1550 -0.7997  0.4775
 4244TIP3    H134223   0.521   0.966   5.444 -1.5476 -1.2968 -0.6784
 4244TIP3    H234224   0.584   0.862   5.353 -1.0038 -0.6835 -1.0086
 4245TIP3   OH234225   5.965   3.697   2.366  0.1668 -0.3200 -0.5908
 4245TIP3    H134226   5.904   3.664   2.432 -0.5290 -0.7911 -1.4404
 4245TIP3    H234227   6.021   3.758   2.413 -1.5214  0.8054  0.0574
 4246TIP3   OH234228   3.356   6.495  13.316  0.2630 -0.1770 -0.0424
 4246TIP3    H134229   3.450   6.507  13.302  0.0867  0.4482 -0.7152
 4246TIP3    H234230   3.328   6.437  13.245  0.4100 -1.6040  1.0305
 4247TIP3   OH234231   4.641   5.589   2.841 -0.5362 -0.1896 -0.7065
 4247TIP3    H134232   4.559   5.638   2.851  0.8039  1.8243  1.6072
 4247TIP3    H234233   4.682   5.626   2.763 -0.8669  0.3361 -0.6364
 4248TIP3   OH234234   4.601   0.150   0.177 -0.0815 -0.0508 -0.3213
 4248TIP3    H134235   4.590   0.172   0.270 -0.4106  0.5211 -0.4886
 4248TIP3    H234236   4.522   0.185   0.135 -0.0348 -0.4992 -0.7849
 4249TIP3   OH234237   2.575   4.078  11.571 -0.3223  0.7399 -0.7211
 4249TIP3    H134238   2.520   4.016  11.619 -1.2988  1.3886 -0.9656
 4249TIP3    H234239   2.647   4.098  11.631 -0.8076  0.5230 -0.0590
 4250TIP3   OH234240   6.577   2.529   3.980 -0.1295 -0.4070 -0.4045
 4250TIP3    H134241   6.514   2.595   3.952 -1.1338 -1.8475 -1.6972
 4250TIP3    H234242   6.648   2.536   3.917  0.2530  0.0992  0.0697
 4251TIP3   OH234243   4.308   5.299  11.987  0.0086 -0.8583 -0.1710
 4251TIP3    H134244   4.371   5.232  12.012  0.0308 -1.0741 -0.7882
 4251TIP3    H234245   4.237   5.290  12.050  0.5834 -0.6260  0.5176
 4252TIP3   OH234246   4.017   2.696  15.456  0.3588 -0.2634 -0.1433
 4252TIP3    H134247   3.977   2.782  15.464  2.2184  0.5810  0.7813
 4252TIP3    H234248   4.021   2.680  15.362 -0.7970  0.2397 -0.2943
 4253TIP3   OH234249   4.493   0.845  15.641 -0.3543 -0.2728 -0.4922
 4253TIP3    H134250   4.573   0.802  15.610  0.6606  1.3123 -0.1558
 4253TIP3    H234251   4.445   0.867  15.561  1.0205  1.4918 -0.8758
 4254TIP3   OH234252   0.529   2.238   0.418 -0.2210 -0.3144  0.3231
 4254TIP3    H134253   0.533   2.289   0.338  1.5571 -1.8134 -0.6134
 4254TIP3    H234254   0.519   2.148   0.389  1.5858 -1.0250  1.7002
 4255TIP3   OH234255   4.379   6.611   5.829  0.3155  0.2662 -0.1288
 4255TIP3    H134256   4.359   6.617   5.736  0.8653 -0.8435 -0.3321
 4255TIP3    H234257   4.309   6.662   5.872 -1.0116 -0.7147 -1.0317
 4256TIP3   OH234258   5.070   6.639   6.180 -0.1502 -0.4189  0.0928
 4256TIP3    H134259   5.034   6.665   6.265  0.1624  0.4988 -0.0493
 4256TIP3    H234260   5.150   6.591   6.202 -0.0890 -0.2179  0.3190
 4257TIP3   OH234261   4.310   3.977   3.182 -0.1316  0.0222  0.6942
 4257TIP3    H134262   4.328   3.883   3.179 -0.3145 -0.0867  2.3090
 4257TIP3    H234263   4.387   4.015   3.223 -0.1985  0.5395  0.3464
 4258TIP3   OH234264   5.458   3.187   4.136 -0.2643  0.9120 -0.5301
 4258TIP3    H134265   5.470   3.167   4.044  2.3589 -0.3726 -0.0156
 4258TIP3    H234266   5.389   3.127   4.165 -0.5812  0.8054 -1.4760
 4259TIP3   OH234267   3.347   5.845  14.053 -0.0840 -0.3723 -0.2096
 4259TIP3    H134268   3.384   5.900  14.122 -1.9199  0.2819  0.3088
 4259TIP3    H234269   3.403   5.767  14.052 -0.0827 -0.4790  2.1278
 4260TIP3   OH234270   2.493   5.100  12.175  0.0314  0.1960 -0.0421
 4260TIP3    H134271   2.485   5.010  12.143 -1.3236  0.6155 -1.0049
 4260TIP3    H234272   2.520   5.091  12.266  0.8892 -1.1494 -0.4067
 4261TIP3   OH234273   5.198   4.880   2.185  0.0057 -0.3002 -0.1360
 4261TIP3    H134274   5.289   4.904   2.168  0.1942 -2.0337 -2.0579
 4261TIP3    H234275   5.195   4.785   2.171 -1.3375 -1.0272  3.7322
 4262TIP3   OH234276   0.683   4.053  15.610  0.6062 -0.0924  0.5413
 4262TIP3    H134277   0.648   4.134  15.648 -0.9388 -0.9775  1.1170
 4262TIP3    H234278   0.672   3.988  15.679 -0.7295 -1.3823 -0.8136
 4263TIP3   OH234279   4.021   2.246  15.124  0.1517 -0.3345  0.3855
 4263TIP3    H134280   3.963   2.320  15.108  0.8585 -0.0504 -0.9391
 4263TIP3    H234281   4.007   2.224  15.217 -2.2352 -0.4555  0.0468
 4264TIP3   OH234282   3.923   0.114  16.604 -0.0222  0.0008  0.5276
 4264TIP3    H134283   3.982   0.065  16.547  2.6323  1.0725  2.1978
 4264TIP3    H234284   3.931   0.072  16.689 -2.2164 -0.1933  0.7008
 4265TIP3   OH234285   1.303   1.459   0.912 -0.4645 -0.5333  0.4150
 4265TIP3    H134286   1.245   1.395   0.952 -1.8824 -0.4136 -1.3038
 4265TIP3    H234287   1.260   1.482   0.830  2.9516 -1.9449 -2.0471
 4266TIP3   OH234288   2.604   0.546   5.757 -0.2536 -0.2410 -0.3997
 4266TIP3    H134289   2.509   0.553   5.744 -0.2293 -0.6347 -0.8052
 4266TIP3    H234290   2.613   0.519   5.849 -0.5921 -1.3256 -0.6635
 4267TIP3   OH234291   0.567   0.470   4.491  0.4326  0.5400  0.7308
 4267TIP3    H134292   0.521   0.519   4.423  0.1261 -0.8611 -0.1198
 4267TIP3    H234293   0.512   0.477   4.568  0.6383  1.9124  0.7763
 4268TIP3   OH234294   2.707   0.597   1.136  0.1671 -0.0295 -0.1545
 4268TIP3    H134295   2.793   0.614   1.175 -0.9177 -0.2878  2.5599
 4268TIP3    H234296   2.681   0.680   1.097  0.8045  0.6250  0.7807
 4269TIP3   OH234297   1.987   2.578  15.911 -0.5977  0.0074  0.1113
 4269TIP3    H134298   1.958   2.639  15.844 -2.2288 -0.8455 -0.0109
 4269TIP3    H234299   2.081   2.594  15.919 -0.4232  0.3937 -2.1013
 4270TIP3   OH234300   3.666   5.262   1.432  0.2701  0.0115  0.0820
 4270TIP3    H134301   3.684   5.234   1.342  0.5462  2.0932 -0.5541
 4270TIP3    H234302   3.577   5.298   1.428  0.5789  0.8208  0.4598
 4271TIP3   OH234303   1.815   5.942   5.259  0.3323 -0.4596  0.4624
 4271TIP3    H134304   1.898   5.973   5.223  1.0083 -0.9522  1.5432
 4271TIP3    H234305   1.840   5.890   5.335 -1.0097  0.0423  1.2779
 4272TIP3   OH234306   3.616   6.110   3.997  0.0719 -0.1190  0.1004
 4272TIP3    H134307   3.585   6.020   4.006 -0.5308 -0.1066 -1.4263
 4272TIP3    H234308   3.555   6.150   3.934  0.3472  1.3462  0.7218
 4273TIP3   OH234309   5.648   4.824  12.868  0.3204 -0.6348 -0.1534
 4273TIP3    H134310   5.571   4.823  12.811  1.0491 -0.3627 -1.1643
 4273TIP3    H234311   5.620   4.775  12.946 -0.8193 -0.6784 -0.5650
 4274TIP3   OH234312   3.248   2.059  16.544 -0.0137 -0.2285 -0.0327
 4274TIP3    H134313   3.185   2.024  16.481 -0.4184 -0.0553  0.2669
 4274TIP3    H234314   3.331   2.020  16.519 -0.2566 -0.5298 -0.3857
 4275TIP3   OH234315   3.102   6.690  12.734  0.3204 -0.5659  0.9746
 4275TIP3    H134316   3.025   6.662  12.783 -2.3013  1.1850 -1.8060
 4275TIP3    H234317   3.085   6.781  12.711  2.5916 -0.5163 -0.9542
 4276TIP3   OH234318   1.631   5.800   4.684  0.0624 -0.1602  0.8507
 4276TIP3    H134319   1.633   5.723   4.740 -0.0020 -0.2869  0.6768
 4276TIP3    H234320   1.558   5.853   4.718  0.5294  0.1446  1.3981
 4277TIP3   OH234321   5.078   6.161   2.866  0.2247  0.8547  0.7047
 4277TIP3    H134322   5.143   6.131   2.930  1.5654  0.9975 -0.5442
 4277TIP3    H234323   5.062   6.252   2.891  0.4713  0.8063  1.0529
 4278TIP3   OH234324   1.102   1.912  12.772 -0.2166  0.4020 -0.9562
 4278TIP3    H134325   1.032   1.847  12.768  0.1542  0.0205 -1.3021
 4278TIP3    H234326   1.153   1.898  12.692  0.9494 -0.1269 -0.1686
 4279TIP3   OH234327   3.027   2.786   2.958  0.3777 -0.3477  0.3939
 4279TIP3    H134328   2.977   2.868   2.952  1.6274  0.4170  0.1568
 4279TIP3    H234329   3.061   2.773   2.870 -1.4173 -2.2098 -0.0941
 4280TIP3   OH234330   5.621   2.734  13.358 -0.5882  0.1909  0.1523
 4280TIP3    H134331   5.607   2.812  13.303  0.0072 -0.9243 -1.6644
 4280TIP3    H234332   5.593   2.661  13.303 -0.9259 -0.9198  1.7380
 4281TIP3   OH234333   0.274   3.231  15.418  0.2623 -0.6880 -0.2655
 4281TIP3    H134334   0.320   3.312  15.396  0.2026 -0.6224 -0.1507
 4281TIP3    H234335   0.187   3.242  15.379 -1.3452  1.2219  3.3814
 4282TIP3   OH234336   2.042   6.823  16.759 -0.3016  1.0781 -0.0976
 4282TIP3    H134337   2.082   6.770  16.690  0.9228  2.5066 -0.5235
 4282TIP3    H234338   1.987   6.761  16.808 -0.9492 -0.0386 -2.1282
 4283TIP3   OH234339   5.167   3.869   0.569  0.1028  0.0629 -0.0160
 4283TIP3    H134340   5.088   3.845   0.618  0.5392 -0.7406  0.3095
 4283TIP3    H234341   5.199   3.948   0.612 -0.3664  0.2320  0.0293
 4284TIP3   OH234342   5.247   2.556  13.787  0.4991 -0.1743  0.5800
 4284TIP3    H134343   5.188   2.493  13.745 -0.5025  0.4792  0.9594
 4284TIP3    H234344   5.229   2.547  13.881  0.6751  0.3530  0.6669
 4285TIP3   OH234345   5.476   3.126   6.016 -0.1460 -0.3774 -0.4367
 4285TIP3    H134346   5.392   3.130   6.062  1.3497  0.3539  2.4752
 4285TIP3    H234347   5.467   3.188   5.943 -2.3043 -0.8405 -0.6305
 4286TIP3   OH234348   2.704   6.041   0.311 -0.1806  0.4247  0.1001
 4286TIP3    H134349   2.749   6.123   0.327 -0.1533  0.3206  0.5549
 4286TIP3    H234350   2.755   5.975   0.358 -1.8690  0.5643  2.2973
 4287TIP3   OH234351   5.606   4.476   5.585  0.1634  0.0518 -0.1846
 4287TIP3    H134352   5.595   4.516   5.499  0.3817 -2.3975 -1.4450
 4287TIP3    H234353   5.642   4.389   5.567 -2.4231 -1.7054  2.1368
 4288TIP3   OH234354   6.738   6.213  16.799  0.0801 -0.1492 -0.8162
 4288TIP3    H134355   6.655   6.206  16.752  0.0498 -0.5441 -0.7130
 4288TIP3    H234356   6.726   6.288  16.858 -0.3297 -0.4083 -0.5602
 4289TIP3   OH234357   1.032   4.358   1.429 -0.5127 -1.0007  0.2405
 4289TIP3    H134358   1.116   4.326   1.397 -0.0114  0.4256  0.0348
 4289TIP3    H234359   1.044   4.453   1.435 -1.8174 -0.8702  1.0906
 4290TIP3   OH234360   5.656   6.553   1.978 -0.3400 -0.1232  0.3079
 4290TIP3    H134361   5.672   6.458   1.977  1.3408  0.1274 -0.6449
 4290TIP3    H234362   5.591   6.566   1.910  1.0789 -0.3960 -1.1725
 4291TIP3   OH234363   5.200   1.460  13.608  0.1536  0.3311  0.0770
 4291TIP3    H134364   5.205   1.368  13.633  0.1741  0.7881  1.8649
 4291TIP3    H234365   5.108   1.474  13.588  0.0315  0.0825  0.4585
 4292TIP3   OH234366   1.511   4.302   6.583  0.1409  0.2047  0.3667
 4292TIP3    H134367   1.551   4.216   6.575 -0.0196  0.2402 -0.9580
 4292TIP3    H234368   1.429   4.287   6.630 -0.2247 -0.4795 -0.4735
 4293TIP3   OH234369   5.193   0.196  17.260 -0.1579  0.6288  0.1170
 4293TIP3    H134370   5.112   0.202  17.209 -0.4251  0.1402  0.4794
 4293TIP3    H234371   5.164   0.196  17.351  0.3389  1.8943  0.2970
 4294TIP3   OH234372   3.111   1.671   5.635  0.3001  0.4869  0.1058
 4294TIP3    H134373   3.017   1.653   5.630 -0.0283  1.0606  2.7420
 4294TIP3    H234374   3.135   1.704   5.548 -1.6971 -0.6169 -0.9193
 4295TIP3   OH234375   3.233   6.351  14.286  0.1005 -0.3218 -0.1078
 4295TIP3    H134376   3.219   6.287  14.216 -1.2261  0.0362 -0.1891
 4295TIP3    H234377   3.219   6.436  14.244  0.3565 -0.0513  0.3478
 4296TIP3   OH234378   2.774   3.491  15.148  0.7818 -0.0552 -0.5028
 4296TIP3    H134379   2.807   3.469  15.061 -0.4483  0.9060 -1.2322
 4296TIP3    H234380   2.714   3.564  15.134  0.5673  0.1325  1.1597
 4297TIP3   OH234381   3.984   1.314   5.035  0.0350 -0.2780  0.0369
 4297TIP3    H134382   3.997   1.279   4.946 -1.1295 -0.6931  0.0024
 4297TIP3    H234383   3.890   1.300   5.052  0.2964 -0.4481  1.4424
 4298TIP3   OH234384   5.919   3.872  11.662  0.4578  0.4502  0.6065
 4298TIP3    H134385   5.894   3.830  11.579 -0.1557  1.4001  0.3006
 4298TIP3    H234386   5.981   3.941  11.637  0.3890  0.6425  0.9558
 4299TIP3   OH234387   6.063   1.783  14.533  0.8795 -0.1412  0.4921
 4299TIP3    H134388   6.117   1.727  14.590  2.8906  0.0595 -1.1130
 4299TIP3    H234389   6.104   1.776  14.447 -1.1788  0.7507 -0.6287
 4300TIP3   OH234390   4.363   5.966   1.920  0.3240  0.2798 -0.0424
 4300TIP3    H134391   4.360   6.049   1.968 -2.6407  0.5273 -0.4752
 4300TIP3    H234392   4.306   5.908   1.970  0.2961 -0.6773 -1.1546
 4301TIP3   OH234393   5.093   5.041   2.433 -0.2000  0.1580  0.0503
 4301TIP3    H134394   5.166   5.098   2.456 -1.1899  2.0635 -1.2877
 4301TIP3    H234395   5.114   5.008   2.346 -0.4074 -0.1973  0.1316
 4302TIP3   OH234396   4.376   2.587   2.621  0.1065 -0.0827 -0.0961
 4302TIP3    H134397   4.316   2.535   2.675  0.5799  0.5995  1.1399
 4302TIP3    H234398   4.463   2.562   2.651  0.3591  0.7655 -0.1005
 4303TIP3   OH234399   3.067   5.036   0.569 -0.2070  0.1280 -0.5773
 4303TIP3    H134400   3.100   5.121   0.538 -1.9939  1.0078 -0.1456
 4303TIP3    H234401   2.991   5.057   0.622  0.9194 -1.5770  1.8994
 4304TIP3   OH234402   5.118   0.527   4.404  0.0300 -0.3710  0.2321
 4304TIP3    H134403   5.173   0.599   4.435  1.3931 -0.7994 -1.0655
 4304TIP3    H234404   5.176   0.475   4.349 -1.1106 -2.0821  0.5694
 4305TIP3   OH234405   5.134   3.687   2.989  0.7267  0.2786  0.4343
 4305TIP3    H134406   5.137   3.600   2.950  0.4037  1.1004 -1.5588
 4305TIP3    H234407   5.048   3.691   3.031 -0.8101  0.7265 -2.4408
 4306TIP3   OH234408   0.340   6.633   0.258  0.6556  0.2919  0.0581
 4306TIP3    H134409   0.314   6.700   0.195  0.4595  0.6671  0.5350
 4306TIP3    H234410   0.407   6.675   0.312  1.5569 -0.3490 -0.5295
 4307TIP3   OH234411   2.826   2.720  10.602 -0.6961  0.8811  0.4407
 4307TIP3    H134412   2.837   2.775  10.680 -1.4120 -0.8347  1.8276
 4307TIP3    H234413   2.915   2.700  10.574 -0.4217  2.2710  0.2057
 4308TIP3   OH234414   1.291   4.986  14.156  0.3086  0.3497  0.0501
 4308TIP3    H134415   1.217   4.940  14.116  0.5699  0.5904 -0.7363
 4308TIP3    H234416   1.307   5.061  14.098  0.3924  0.9929  0.8786
 4309TIP3   OH234417   1.825   1.084   4.715  0.5051 -0.1768  0.5475
 4309TIP3    H134418   1.834   0.999   4.759  0.5133 -0.2256  0.4520
 4309TIP3    H234419   1.849   1.148   4.782  0.2538 -0.2356  0.6951
 4310TIP3   OH234420   4.275   2.486  14.305  0.3383 -0.2010  0.0365
 4310TIP3    H134421   4.189   2.524  14.287  2.1340  3.6431 -1.5477
 4310TIP3    H234422   4.296   2.435  14.227 -0.0193 -0.1644 -0.0842
 4311TIP3   OH234423   3.778   6.177  13.479  0.2509  0.2949  0.5640
 4311TIP3    H134424   3.696   6.188  13.528 -0.6632 -0.3550 -0.7726
 4311TIP3    H234425   3.765   6.098  13.427  1.6891  0.2550  0.2126
 4312TIP3   OH234426   4.934   1.974   4.020  0.1720 -0.3169 -0.0731
 4312TIP3    H134427   4.851   1.978   4.067  1.4022 -1.7071  2.4693
 4312TIP3    H234428   4.956   1.881   4.019  1.6770  0.0153 -0.7220
 4313TIP3   OH234429   1.975   1.990   5.619  0.2971 -0.1770 -0.1221
 4313TIP3    H134430   2.042   1.927   5.590  1.2465  0.0164  1.5093
 4313TIP3    H234431   1.920   2.003   5.542  0.3081 -2.6714 -0.6575
 4314TIP3   OH234432   4.104   6.532  11.350  0.0976  0.3366  0.3131
 4314TIP3    H134433   4.104   6.497  11.439  0.9120  0.3690  0.3406
 4314TIP3    H234434   4.092   6.455  11.293  0.0833  0.2508  0.4329
 4315TIP3   OH234435   5.264   5.155  10.880 -0.0366 -0.8605  0.1405
 4315TIP3    H134436   5.358   5.169  10.885  0.0001 -0.9246 -0.3832
 4315TIP3    H234437   5.229   5.204  10.954  0.3421 -0.2555 -0.0802
 4316TIP3   OH234438   0.721   2.646  12.089 -0.3807  0.7848  0.1362
 4316TIP3    H134439   0.626   2.652  12.078 -0.4323  1.2330  0.7411
 4316TIP3    H234440   0.733   2.574  12.152 -0.1341 -1.2642 -2.1119
 4317TIP3   OH234441   6.252   4.477  11.785  0.4144 -0.2129 -0.0544
 4317TIP3    H134442   6.300   4.557  11.764 -0.5424  1.0719  2.2891
 4317TIP3    H234443   6.160   4.501  11.779  0.1082 -0.8401  1.5620
 4318TIP3   OH234444   1.453   5.244   4.095  0.5889 -0.2808  0.0983
 4318TIP3    H134445   1.383   5.194   4.137  1.2878 -0.4522  1.0961
 4318TIP3    H234446   1.527   5.238   4.156  1.3153  0.3131 -0.6975
 4319TIP3   OH234447   3.265   2.999   0.676  1.1528  0.6657  0.3212
 4319TIP3    H134448   3.339   3.015   0.618  0.7210  0.8987 -0.1745
 4319TIP3    H234449   3.246   3.084   0.716  0.3321  0.9079 -0.5487
 4320TIP3   OH234450   3.392   0.039   3.103  0.0042 -0.2715  0.9706
 4320TIP3    H134451   3.463   0.029   3.040 -0.2590 -0.9107  0.7625
 4320TIP3    H234452   3.325  -0.023   3.073 -1.5006  1.7479 -0.0055
 4321TIP3   OH234453   5.650   2.206  13.421 -0.5352 -0.3168 -0.0658
 4321TIP3    H134454   5.617   2.265  13.489  0.7915 -1.1069  1.3237
 4321TIP3    H234455   5.573   2.154  13.396 -1.4944  1.2999 -0.6293
 4322TIP3   OH234456   6.184   5.962  11.514 -0.4252  0.4409  0.2153
 4322TIP3    H134457   6.274   5.972  11.544  0.1417  0.1516 -1.3043
 4322TIP3    H234458   6.150   6.051  11.509 -0.5813  0.4922  1.7746
 4323TIP3   OH234459   6.177   4.526  16.842  0.0911  0.0826 -0.1874
 4323TIP3    H134460   6.124   4.451  16.813 -0.5779  0.5179 -0.1156
 4323TIP3    H234461   6.209   4.500  16.929 -0.4250  0.0115 -0.0106
 4324TIP3   OH234462   3.806   5.402  13.568 -0.8791 -0.2195  0.3952
 4324TIP3    H134463   3.833   5.340  13.501  1.4678  0.2677  0.8216
 4324TIP3    H234464   3.740   5.355  13.619 -0.4433 -1.7069 -0.3650
 4325TIP3   OH234465   2.409   1.255   2.702 -0.9974  0.1752 -0.2144
 4325TIP3    H134466   2.389   1.225   2.613  0.8553  1.4855 -1.1239
 4325TIP3    H234467   2.391   1.349   2.701  0.7993  0.5598  0.2049
 4326TIP3   OH234468   4.771   4.205   5.115  0.4974  0.6207  0.1159
 4326TIP3    H134469   4.757   4.267   5.043  0.2058 -0.1881 -0.5375
 4326TIP3    H234470   4.761   4.119   5.075 -2.4290  0.1194  1.5859
 4327TIP3   OH234471   4.686   2.573   2.494  0.1534 -0.4407 -0.1428
 4327TIP3    H134472   4.686   2.577   2.590 -0.5704 -1.5083 -0.0823
 4327TIP3    H234473   4.773   2.606   2.469 -0.0322  0.8577  0.8157
 4328TIP3   OH234474   2.273   1.207  10.899 -0.5607  0.0189  0.2090
 4328TIP3    H134475   2.263   1.138  10.834 -1.0772  0.7314 -0.4905
 4328TIP3    H234476   2.281   1.287  10.848 -0.8738  0.5851  1.0207
 4329TIP3   OH234477   2.373   1.672  16.854  0.1571  0.5440 -1.0548
 4329TIP3    H134478   2.436   1.614  16.897  1.5373  2.2305 -0.7261
 4329TIP3    H234479   2.288   1.633  16.874  1.0459 -1.8852 -1.6513
 4330TIP3   OH234480   3.849   4.910  13.127 -0.0769  0.2303  0.0154
 4330TIP3    H134481   3.905   4.988  13.127  0.1499  0.0884 -0.9593
 4330TIP3    H234482   3.910   4.836  13.124 -0.2978  0.0243  0.5462
 4331TIP3   OH234483   3.540   4.632   6.274 -0.2760  0.2377 -0.2242
 4331TIP3    H134484   3.506   4.632   6.363 -0.9792 -1.6188 -0.4579
 4331TIP3    H234485   3.509   4.715   6.237 -1.7508  0.1088  0.6244
 4332TIP3   OH234486   3.710   3.647  12.184 -0.2177  0.0091  0.4076
 4332TIP3    H134487   3.689   3.734  12.152 -0.0225 -0.1528 -0.1810
 4332TIP3    H234488   3.630   3.596  12.169 -0.1860 -0.0219  0.3432
 4333TIP3   OH234489   0.594   1.372  15.429 -0.3309  0.3242 -0.4663
 4333TIP3    H134490   0.549   1.434  15.487 -0.8366 -0.2468 -0.2513
 4333TIP3    H234491   0.684   1.406  15.424 -0.9443  1.9216 -1.5433
 4334TIP3   OH234492   3.538   4.321   1.338 -0.5468 -0.1347  0.2029
 4334TIP3    H134493   3.592   4.249   1.370  0.8859  0.6416 -0.3649
 4334TIP3    H234494   3.523   4.300   1.246  1.8505  1.3461 -0.6235
 4335TIP3   OH234495   2.011   5.942   0.466 -0.5788 -0.0003  0.2777
 4335TIP3    H134496   1.919   5.931   0.490 -0.6790 -0.8656 -0.4533
 4335TIP3    H234497   2.059   5.935   0.549 -0.9994 -1.8822  0.4121
 4336TIP3   OH234498   1.183   5.677  16.315  0.4291 -0.5607  0.1353
 4336TIP3    H134499   1.171   5.588  16.283  2.0534 -0.6122 -0.4256
 4336TIP3    H234500   1.103   5.696  16.363  0.1136 -2.3734  0.4036
 4337TIP3   OH234501   1.618   4.562  11.479  0.5100  0.3069  0.0481
 4337TIP3    H134502   1.556   4.574  11.408  0.8050 -0.8291 -0.4366
 4337TIP3    H234503   1.575   4.600  11.556 -1.3034 -1.4427 -0.0221
 4338TIP3   OH234504   0.267   4.787   2.863 -0.3689  0.1786  0.0815
 4338TIP3    H134505   0.249   4.847   2.935 -0.0590 -0.7752  0.9681
 4338TIP3    H234506   0.275   4.844   2.786  1.5002  1.4438  1.1422
 4339TIP3   OH234507   3.636   5.228  16.408  0.0782  0.4685  0.0672
 4339TIP3    H134508   3.709   5.170  16.430 -0.7471 -0.1415  1.3063
 4339TIP3    H234509   3.563   5.169  16.388 -0.6645  1.0551  0.9508
 4340TIP3   OH234510   5.850   6.164   2.435 -0.2348  0.1485  0.5315
 4340TIP3    H134511   5.868   6.078   2.472 -1.1276  0.4090  1.6245
 4340TIP3    H234512   5.869   6.226   2.506 -0.8835  0.7473  0.1997
 4341TIP3   OH234513   0.250   6.601   3.945  0.0380  0.0167  0.5604
 4341TIP3    H134514   0.234   6.658   4.020 -0.3011 -1.4212  1.6282
 4341TIP3    H234515   0.247   6.660   3.869  0.7216  1.5686  1.6707
 4342TIP3   OH234516   2.529   5.405   0.889 -0.1204 -0.2348  0.4215
 4342TIP3    H134517   2.475   5.433   0.963 -0.1881 -1.4677  0.8755
 4342TIP3    H234518   2.558   5.317   0.914  0.7493 -0.2346 -0.5501
 4343TIP3   OH234519   3.652   0.223  12.162  0.4754  0.1819 -0.2100
 4343TIP3    H134520   3.609   0.139  12.145 -0.8249  0.6296  0.7231
 4343TIP3    H234521   3.582   0.280  12.195  1.6714  1.1190  0.8064
 4344TIP3   OH234522   5.886   1.453  12.115  0.4125  0.7385  0.1272
 4344TIP3    H134523   5.848   1.367  12.127  3.5408 -0.8722 -0.5119
 4344TIP3    H234524   5.874   1.497  12.199 -0.5165 -0.6021  0.7172
 4345TIP3   OH234525   4.967   1.074   6.071 -0.7149 -0.0714 -0.5224
 4345TIP3    H134526   4.989   1.010   6.139 -2.9819  0.5846  0.9466
 4345TIP3    H234527   4.996   1.033   5.990  1.4979 -1.1763  0.7243
 4346TIP3   OH234528   0.059   4.449  16.181 -0.1983 -0.5234  0.5371
 4346TIP3    H134529   0.152   4.437  16.199  0.5401  0.8491 -1.8968
 4346TIP3    H234530   0.035   4.378  16.121 -0.0897  0.3813 -0.6226
 4347TIP3   OH234531   4.118   3.846  11.898  0.3075  0.3152 -0.3086
 4347TIP3    H134532   4.050   3.784  11.923 -0.7786  1.8298  0.5930
 4347TIP3    H234533   4.146   3.816  11.811 -0.3403 -1.2709 -0.0108
 4348TIP3   OH234534   3.803   5.854   5.725  0.1661 -0.3484  0.3352
 4348TIP3    H134535   3.811   5.938   5.770 -0.6766  0.1980 -0.4883
 4348TIP3    H234536   3.735   5.807   5.773 -0.9487  0.3560 -0.5138
 4349TIP3   OH234537   3.681   2.679  17.266  0.0720 -0.1484  0.2256
 4349TIP3    H134538   3.669   2.591  17.231 -0.0003 -0.2062  0.3952
 4349TIP3    H234539   3.766   2.677  17.310  0.5132  0.1305 -0.5710
 4350TIP3   OH234540   0.647   0.038  10.630  0.0338 -0.0403 -0.1278
 4350TIP3    H134541   0.656  -0.041  10.575  1.3908 -0.7951  1.0963
 4350TIP3    H234542   0.737   0.069  10.641 -0.3387  0.7876  0.6998
 4351TIP3   OH234543   2.607   1.248   5.271  0.0369 -0.0842  0.3866
 4351TIP3    H134544   2.683   1.247   5.212 -0.6438  2.5079 -0.6637
 4351TIP3    H234545   2.550   1.178   5.238  0.2117  0.5371 -1.3083
 4352TIP3   OH234546   3.386   3.395   0.134 -0.1191  0.2508 -0.3407
 4352TIP3    H134547   3.377   3.367   0.043  1.4925 -0.5359 -0.2781
 4352TIP3    H234548   3.377   3.315   0.185 -0.1108  0.5516  0.1377
 4353TIP3   OH234549   6.223   5.527  12.274 -0.4217  0.5161 -0.2349
 4353TIP3    H134550   6.260   5.475  12.345 -1.7849  1.5375  1.2956
 4353TIP3    H234551   6.266   5.612  12.282 -0.1899  0.4746 -0.9869
 4354TIP3   OH234552   4.682   5.848   0.610 -0.2434 -0.3375 -0.5445
 4354TIP3    H134553   4.636   5.799   0.678  0.6186 -1.0927 -0.4876
 4354TIP3    H234554   4.616   5.908   0.575 -1.2671 -1.3860 -0.4755
 4355TIP3   OH234555   1.706   0.807   1.479 -0.4598  0.8887 -0.4582
 4355TIP3    H134556   1.651   0.742   1.434  0.6991  0.0442 -0.7105
 4355TIP3    H234557   1.650   0.883   1.489 -1.8180 -0.0952 -0.2961
 4356TIP3   OH234558   1.977   3.067  13.086 -0.2987 -0.3807  0.0143
 4356TIP3    H134559   1.893   3.065  13.039 -0.1164 -1.6450 -0.3192
 4356TIP3    H234560   1.986   2.978  13.120  2.2079 -1.1630 -2.3464
 4357TIP3   OH234561   3.814   1.095   6.430 -0.0377  0.2429 -0.3319
 4357TIP3    H134562   3.873   1.149   6.483  0.1692  0.1206 -0.4361
 4357TIP3    H234563   3.838   1.005   6.451 -1.1186  0.1587  0.6833
 4358TIP3   OH234564   3.229   2.741  15.291  0.2440  0.3224 -0.0238
 4358TIP3    H134565   3.280   2.823  15.293  0.8160 -0.0273  2.2356
 4358TIP3    H234566   3.295   2.672  15.296 -0.3177 -0.1343  3.5792
 4359TIP3   OH234567   3.095   4.478  12.292 -0.6715  0.0155  0.2473
 4359TIP3    H134568   3.043   4.406  12.257 -0.1902  0.1124 -0.7058
 4359TIP3    H234569   3.138   4.516  12.216  0.2249  0.3934  0.9113
 4360TIP3   OH234570   4.867   2.365  11.854 -0.5919  0.0522  0.0885
 4360TIP3    H134571   4.855   2.401  11.766  1.2293  1.2910  0.2896
 4360TIP3    H234572   4.778   2.355  11.888 -1.4140 -1.4757 -2.2427
 4361TIP3   OH234573   1.775   5.878   1.705  0.4948  0.0847  0.1216
 4361TIP3    H134574   1.836   5.950   1.721  1.6489 -0.7873 -0.1922
 4361TIP3    H234575   1.821   5.800   1.735  0.5353 -0.9016 -2.2814
 4362TIP3   OH234576   2.335   4.676   1.960  0.6686 -0.2080  0.4069
 4362TIP3    H134577   2.407   4.662   2.021  0.1634 -2.0615  0.6190
 4362TIP3    H234578   2.329   4.595   1.910  0.5899  0.9909 -1.6210
 4363TIP3   OH234579   1.773   6.755   3.459 -0.6315  0.8808 -0.0304
 4363TIP3    H134580   1.853   6.710   3.429 -1.2966  2.0343 -4.2035
 4363TIP3    H234581   1.711   6.685   3.477  0.1121  0.0251 -0.7054
 4364TIP3   OH234582   2.392   5.608   1.788 -0.8639  0.4828 -0.5431
 4364TIP3    H134583   2.465   5.579   1.734  0.2286  1.8262  0.1523
 4364TIP3    H234584   2.317   5.557   1.757 -0.5205  1.7998 -3.9760
 4365TIP3   OH234585   6.348   6.778  13.552 -0.0325  0.3882  0.4635
 4365TIP3    H134586   6.358   6.776  13.647 -0.8633  0.4060  0.5538
 4365TIP3    H234587   6.312   6.865  13.533  0.0765  0.3653  0.1338
 4366TIP3   OH234588   3.035   2.831  14.692 -0.4974 -0.5207  0.5380
 4366TIP3    H134589   3.061   2.755  14.743 -0.4047  0.7008  2.4111
 4366TIP3    H234590   2.954   2.862  14.734  0.1142  1.0879  0.6278
 4367TIP3   OH234591   5.033   3.371   3.964  0.1409 -0.0589  0.3296
 4367TIP3    H134592   4.955   3.390   4.015  0.4361 -2.0230  1.6140
 4367TIP3    H234593   5.090   3.322   4.023  1.8644  0.2844 -0.9375
 4368TIP3   OH234594   5.760   2.763   0.749 -0.0008 -0.0813 -0.4621
 4368TIP3    H134595   5.719   2.677   0.763 -0.8723 -0.1502 -3.0021
 4368TIP3    H234596   5.805   2.755   0.665  1.3798  1.4523  0.0734
 4369TIP3   OH234597   4.894   6.292   0.500 -0.1981 -0.2562  0.0662
 4369TIP3    H134598   4.935   6.239   0.569  0.1952  0.6200  0.5212
 4369TIP3    H234599   4.814   6.325   0.541  0.9741  1.8470  0.8257
 4370TIP3   OH234600   3.873   4.280   3.800 -0.3135 -0.4946 -0.0501
 4370TIP3    H134601   3.794   4.250   3.845 -0.4063 -1.1350 -0.6334
 4370TIP3    H234602   3.897   4.208   3.742  0.8613 -0.4311  0.3206
 4371TIP3   OH234603   6.590   5.365   5.326 -0.0198  0.4975  0.0909
 4371TIP3    H134604   6.501   5.359   5.291 -0.3573  0.3530  0.9580
 4371TIP3    H234605   6.616   5.275   5.342 -0.0461  0.5863  0.6467
 4372TIP3   OH234606   4.191   4.468  13.615 -0.1816  0.0774  0.2310
 4372TIP3    H134607   4.245   4.458  13.694 -0.9479 -0.9199  0.6636
 4372TIP3    H234608   4.133   4.541  13.635 -1.8394 -1.4731  1.5414
 4373TIP3   OH234609   4.936   5.186   4.582 -0.0382 -0.0139  0.3665
 4373TIP3    H134610   4.848   5.195   4.617  0.0329 -1.2906  0.9175
 4373TIP3    H234611   4.975   5.273   4.592 -0.6669  0.1307  1.6678
 4374TIP3   OH234612   1.804   4.936   4.866  0.6629 -0.5271 -0.7966
 4374TIP3    H134613   1.813   4.946   4.771  1.8207  1.5904 -0.5348
 4374TIP3    H234614   1.826   5.023   4.901 -0.1878 -1.1393  1.3908
 4375TIP3   OH234615   2.344   5.736  12.363 -0.1619  0.1780 -0.3692
 4375TIP3    H134616   2.386   5.712  12.446 -2.1072 -1.3688  0.2459
 4375TIP3    H234617   2.349   5.656  12.310 -2.9240 -0.3503  0.0437
 4376TIP3   OH234618   2.814   0.391   1.402 -0.9600 -0.4780 -0.0858
 4376TIP3    H134619   2.817   0.326   1.472  0.0637  0.7106  1.0192
 4376TIP3    H234620   2.865   0.352   1.331  0.4760 -0.4984  0.9199
 4377TIP3   OH234621   5.245   0.770  17.273 -0.2659  0.2371  0.4331
 4377TIP3    H134622   5.331   0.809  17.286 -0.7029  1.0144  1.0167
 4377TIP3    H234623   5.225   0.727  17.356 -0.4400  0.0354  0.2888
 4378TIP3   OH234624   0.994   4.552  12.651  0.6453 -0.3760 -0.1320
 4378TIP3    H134625   1.025   4.618  12.589 -2.6778  1.7119  0.1403
 4378TIP3    H234626   1.029   4.469  12.617  1.5463  1.0233 -2.9868
 4379TIP3   OH234627   5.578   5.295   2.779  0.2475 -0.1306  0.0523
 4379TIP3    H134628   5.579   5.203   2.805 -0.3290 -0.4405 -0.9507
 4379TIP3    H234629   5.625   5.297   2.695  1.1452  0.6601  0.5581
 4380TIP3   OH234630   6.443   4.841   5.150 -0.2296  0.0475  0.2683
 4380TIP3    H134631   6.458   4.923   5.104  1.6195 -0.3488  0.0770
 4380TIP3    H234632   6.356   4.813   5.121  0.0496  0.8035 -1.4557
 4381TIP3   OH234633   4.880   2.573  15.616  0.3543 -0.2849 -0.2484
 4381TIP3    H134634   4.815   2.535  15.675 -1.1479  0.4993 -1.3196
 4381TIP3    H234635   4.895   2.506  15.549  0.5317 -0.4033 -0.0914
 4382TIP3   OH234636   5.668   3.777   1.823  0.6498 -0.4589 -0.0000
 4382TIP3    H134637   5.661   3.728   1.741  2.4359  0.8879 -1.0405
 4382TIP3    H234638   5.593   3.836   1.822  1.5169  0.7199 -1.5697
 4383TIP3   OH234639   3.985   1.295  11.760  0.2883 -0.0472 -0.0677
 4383TIP3    H134640   4.032   1.276  11.679 -2.4134  0.6243 -1.9286
 4383TIP3    H234641   4.010   1.385  11.783  0.0450  0.2401 -0.9223
 4384TIP3   OH234642   3.339   5.158   3.874 -0.1145  0.5740 -0.2548
 4384TIP3    H134643   3.347   5.178   3.781  0.2178  0.5813 -0.2263
 4384TIP3    H234644   3.340   5.062   3.878 -1.1478  0.5512 -0.3435
 4385TIP3   OH234645   3.588   2.110  17.042  0.2402 -1.1090 -0.0350
 4385TIP3    H134646   3.563   2.162  16.965  1.3740 -0.5507 -0.0518
 4385TIP3    H234647   3.515   2.121  17.103  0.6586  0.9759  0.1707
 4386TIP3   OH234648   4.797   0.719  14.432 -0.4720 -0.5007  0.0335
 4386TIP3    H134649   4.818   0.676  14.515 -0.4387  0.1777  0.3873
 4386TIP3    H234650   4.780   0.810  14.457 -0.3556 -0.2702 -0.7227
 4387TIP3   OH234651   0.936   0.375   0.825  0.6294 -0.5812  0.1737
 4387TIP3    H134652   0.950   0.400   0.916  0.0137  0.7746 -0.0667
 4387TIP3    H234653   1.000   0.306   0.808  2.5753  0.9548  0.8860
 4388TIP3   OH234654   1.107   4.936  15.975 -0.5659  0.3605  0.4613
 4388TIP3    H134655   1.099   5.029  15.953 -0.4823 -0.2043 -2.3292
 4388TIP3    H234656   1.190   4.909  15.935 -1.6007 -1.3418 -0.7205
 4389TIP3   OH234657   3.157   6.661  15.631  0.0117 -0.1043 -0.1546
 4389TIP3    H134658   3.117   6.641  15.715 -0.3189 -0.8478 -0.4723
 4389TIP3    H234659   3.195   6.748  15.641  1.6069 -0.9111  1.3421
 4390TIP3   OH234660   0.752   5.000   2.493  0.0805  0.2075 -0.7442
 4390TIP3    H134661   0.767   4.964   2.405 -0.6518  1.3432 -1.3617
 4390TIP3    H234662   0.834   5.045   2.515  0.1540  0.2025 -0.9996
 4391TIP3   OH234663   1.317   3.797   4.334  0.1323  0.7698 -0.1079
 4391TIP3    H134664   1.369   3.780   4.256 -0.5954 -0.1176 -0.4120
 4391TIP3    H234665   1.366   3.865   4.381  0.2388  1.8245 -1.6664
 4392TIP3   OH234666   2.584   2.036  14.995  0.2997 -0.1035  0.3481
 4392TIP3    H134667   2.669   2.056  15.033  0.8034  0.4930 -1.0278
 4392TIP3    H234668   2.604   2.000  14.909 -0.8571  0.4219 -0.1586
 4393TIP3   OH234669   6.315   4.203  13.518 -0.0476  0.7299 -0.8104
 4393TIP3    H134670   6.282   4.187  13.607  1.5602  2.2750  0.1288
 4393TIP3    H234671   6.300   4.121  13.472  0.6609 -0.7387  1.4093
 4394TIP3   OH234672   3.435   1.293  17.286  0.2187 -0.1639  0.3359
 4394TIP3    H134673   3.372   1.362  17.266 -1.2570 -1.1624  1.3152
 4394TIP3    H234674   3.445   1.245  17.204  0.1305  0.3286  0.0307
 4395TIP3   OH234675   3.023   2.750  11.562 -0.0671 -0.1334 -0.2403
 4395TIP3    H134676   3.074   2.742  11.643  0.5175 -1.0912 -0.6914
 4395TIP3    H234677   2.932   2.739  11.591  0.2110 -1.5969  0.1627
 4396TIP3   OH234678   6.424   0.012   1.965  0.5430 -0.1384  0.3263
 4396TIP3    H134679   6.489  -0.006   1.898  0.2939  1.6364 -0.4396
 4396TIP3    H234680   6.401   0.104   1.953 -0.5806 -0.1620  1.9195
 4397TIP3   OH234681   0.794   5.690   3.425  0.2084 -0.7500  0.0998
 4397TIP3    H134682   0.831   5.610   3.461 -0.3562 -0.3849  1.5843
 4397TIP3    H234683   0.748   5.730   3.499 -0.9118  0.1147 -1.0239
 4398TIP3   OH234684   3.043   4.569   1.308  0.3137  0.3256  0.6629
 4398TIP3    H134685   3.064   4.656   1.273  0.0712  0.0692 -0.1338
 4398TIP3    H234686   2.977   4.534   1.247  1.0426 -0.7672  0.4820
 4399TIP3   OH234687   2.416   0.134   2.129 -0.4300 -0.0501 -0.6020
 4399TIP3    H134688   2.324   0.124   2.155 -0.9382 -0.2062 -2.3767
 4399TIP3    H234689   2.465   0.085   2.196 -1.6530 -0.3219  0.1242
 4400TIP3   OH234690   4.247   4.243   1.169  0.5573  0.1994  0.2383
 4400TIP3    H134691   4.311   4.314   1.159 -0.7643  1.3416 -0.3385
 4400TIP3    H234692   4.250   4.196   1.086  2.8408 -1.7124  1.2812
 4401TIP3   OH234693   4.239   4.481  11.816  0.5286 -0.0457  0.1058
 4401TIP3    H134694   4.294   4.546  11.772 -0.2130  0.5647  0.0662
 4401TIP3    H234695   4.289   4.457  11.894  0.4844  1.1269  0.5139
 4402TIP3   OH234696   2.932   0.083   1.882 -0.1380 -0.0307  0.2549
 4402TIP3    H134697   2.929   0.063   1.788  4.3147 -1.3998  0.1786
 4402TIP3    H234698   2.907   0.002   1.925 -1.1423  0.2815  0.2856
 4403TIP3   OH234699   5.678   4.108   4.694  0.0294  0.3594  0.0574
 4403TIP3    H134700   5.698   4.054   4.617 -0.3089 -0.1781  0.3423
 4403TIP3    H234701   5.656   4.045   4.762 -0.1601  0.8542  0.4554
 4404TIP3   OH234702   3.432   2.658   6.352  0.5804  0.0311  0.4009
 4404TIP3    H134703   3.411   2.598   6.280  0.5845 -1.3520  1.5177
 4404TIP3    H234704   3.371   2.635   6.421  0.8756  1.0409  1.0148
 4405TIP3   OH234705   2.006   0.795   2.398  0.2028  0.6042  0.1192
 4405TIP3    H134706   2.051   0.739   2.334  0.5572  1.6338 -0.5456
 4405TIP3    H234707   1.919   0.808   2.360  0.2028  0.7047  0.1557
 4406TIP3   OH234708   2.472   4.649  11.812  0.5146  0.5743  0.3185
 4406TIP3    H134709   2.462   4.584  11.743 -1.2942 -0.2132  1.2632
 4406TIP3    H234710   2.405   4.715  11.793  0.1694  0.4765  1.1665
 4407TIP3   OH234711   3.517   2.527   2.893  0.1805 -0.0311  0.0912
 4407TIP3    H134712   3.586   2.586   2.864 -0.4123  0.4102 -0.4633
 4407TIP3    H234713   3.444   2.585   2.915 -1.0647 -0.5943 -2.1979
 4408TIP3   OH234714   3.925   0.468  13.955 -0.2860 -0.2010 -0.5676
 4408TIP3    H134715   3.858   0.401  13.946 -0.0189 -0.8158  1.3898
 4408TIP3    H234716   3.930   0.485  14.050  0.5785  1.6338 -0.8802
 4409TIP3   OH234717   5.517   0.459   6.692  0.1029  0.1928 -0.1787
 4409TIP3    H134718   5.527   0.549   6.661 -0.6414 -0.8618 -4.1315
 4409TIP3    H234719   5.593   0.444   6.748 -0.2248  3.4821  1.3601
 4410TIP3   OH234720   4.601   1.807   5.278 -0.2130  0.3193 -0.1908
 4410TIP3    H134721   4.640   1.720   5.291 -1.7800 -0.3299  0.3753
 4410TIP3    H234722   4.646   1.863   5.341  0.3700 -0.2178 -0.1130
 4411TIP3   OH234723   4.255   0.327  14.626 -0.3216 -0.1528  0.4544
 4411TIP3    H134724   4.294   0.250  14.668 -1.4937 -0.2412  1.4231
 4411TIP3    H234725   4.173   0.341  14.673 -0.8864  0.7436 -0.7661
 4412TIP3   OH234726   2.158   5.218   2.089 -0.3172 -0.2647  0.3095
 4412TIP3    H134727   2.131   5.224   2.180 -1.8719 -1.6216 -0.0020
 4412TIP3    H234728   2.247   5.252   2.087 -0.0350 -0.7577  2.4416
 4413TIP3   OH234729   3.606   1.738   6.356 -0.4635 -0.9232  0.5588
 4413TIP3    H134730   3.680   1.703   6.307 -0.6099 -2.8042  1.5807
 4413TIP3    H234731   3.645   1.802   6.417  0.1026 -0.7836  0.0588
 4414TIP3   OH234732   5.392   3.260   1.538  0.4454  0.2645  0.4954
 4414TIP3    H134733   5.367   3.186   1.482  2.2483  0.5487 -0.7808
 4414TIP3    H234734   5.453   3.222   1.601  1.9387  0.7241 -0.6091
 4415TIP3   OH234735   1.230   3.113   0.620  0.4731  0.1693 -0.3796
 4415TIP3    H134736   1.195   3.186   0.670  2.3481  0.6222  0.3419
 4415TIP3    H234737   1.212   3.135   0.529 -0.4027  0.7184 -0.0932
 4416TIP3   OH234738   3.229   2.321  15.236  0.7620  0.7901 -0.1841
 4416TIP3    H134739   3.177   2.392  15.274 -0.5639 -0.3021  0.1154
 4416TIP3    H234740   3.212   2.326  15.143 -2.6955 -1.5788  0.1489
 4417TIP3   OH234741   1.425   2.883   2.759  0.5887  0.0388 -0.1623
 4417TIP3    H134742   1.514   2.886   2.792  0.7775 -0.3642 -0.6178
 4417TIP3    H234743   1.377   2.948   2.811  0.7281 -1.0037  1.3299
 4418TIP3   OH234744   6.409   4.398   2.341 -0.0328  0.1752  0.0668
 4418TIP3    H134745   6.504   4.400   2.352 -0.1060 -0.3781  0.8926
 4418TIP3    H234746   6.392   4.313   2.299 -0.2158 -0.0151  0.5232
 4419TIP3   OH234747   2.453   3.201  11.213  0.2292 -0.6657 -0.1311
 4419TIP3    H134748   2.463   3.235  11.124 -0.0039 -1.6927 -0.5601
 4419TIP3    H234749   2.362   3.173  11.218  0.5929 -1.8600 -0.0262
 4420TIP3   OH234750   2.340   6.237  13.658  0.7081  0.1791  0.0352
 4420TIP3    H134751   2.277   6.300  13.692 -0.7374 -0.3027 -1.6066
 4420TIP3    H234752   2.335   6.247  13.563  4.3352  1.2660 -0.1967
 4421TIP3   OH234753   5.246   5.669  16.665 -0.0262 -0.2930 -0.2119
 4421TIP3    H134754   5.268   5.690  16.574  0.2736 -0.5105 -0.1881
 4421TIP3    H234755   5.173   5.728  16.685  1.0090  0.9922 -0.0493
 4422TIP3   OH234756   4.579   2.356  16.170 -0.1191 -0.1021 -0.3761
 4422TIP3    H134757   4.556   2.441  16.133 -0.7119  0.0944  0.4175
 4422TIP3    H234758   4.498   2.325  16.211  0.3060 -0.6747  0.0428
 4423TIP3   OH234759   5.645   6.054  14.046  0.1351 -0.1875 -0.7655
 4423TIP3    H134760   5.717   6.094  14.095 -1.3927  0.5840  0.9617
 4423TIP3    H234761   5.618   6.122  13.984 -0.3590  0.2863 -0.0500
 4424TIP3   OH234762   1.281   2.686   3.116 -0.2365 -0.9629 -0.1990
 4424TIP3    H134763   1.292   2.680   3.021 -1.4156  0.3437 -0.4574
 4424TIP3    H234764   1.258   2.778   3.132 -1.5511 -1.4800  1.1613
 4425TIP3   OH234765   3.838   5.455  11.723 -0.1396 -0.3608  0.1035
 4425TIP3    H134766   3.799   5.372  11.750  0.7985 -0.7431  0.3182
 4425TIP3    H234767   3.925   5.455  11.762 -0.4392  1.1226  0.8359
 4426TIP3   OH234768   5.975   5.262  11.308  0.5337  0.8029 -0.1204
 4426TIP3    H134769   6.001   5.211  11.384 -0.7907 -1.1012 -0.8797
 4426TIP3    H234770   5.894   5.221  11.278  0.1644  2.5026 -1.6212
 4427TIP3   OH234771   5.084   5.854  12.390 -0.1481 -0.5805 -0.0309
 4427TIP3    H134772   5.162   5.845  12.335 -0.0328 -1.0305  0.1980
 4427TIP3    H234773   5.101   5.932  12.444  1.4425 -2.2455  2.0613
 4428TIP3   OH234774   2.932   6.331  11.817 -0.1668  0.7118 -0.2540
 4428TIP3    H134775   2.948   6.280  11.897  1.7295 -0.9261 -1.5844
 4428TIP3    H234776   2.883   6.272  11.761  0.2501  1.1048 -1.0462
 4429TIP3   OH234777   0.153   2.755   2.370  0.2649  0.1457  0.1910
 4429TIP3    H134778   0.135   2.668   2.335  0.9313 -0.1266  0.4981
 4429TIP3    H234779   0.222   2.790   2.314 -0.2442  0.6249 -0.1479
 4430TIP3   OH234780   2.513   6.018   1.503 -0.1858 -0.3931 -0.2758
 4430TIP3    H134781   2.479   6.094   1.457 -0.6079 -0.4418 -0.0478
 4430TIP3    H234782   2.435   5.975   1.540  0.1800 -0.0486  0.9533
 4431TIP3   OH234783   2.406   0.918   1.673 -0.6274 -0.1376  0.0882
 4431TIP3    H134784   2.353   0.842   1.651 -0.6850 -0.9832  2.7664
 4431TIP3    H234785   2.491   0.882   1.699 -0.9278  0.5406  2.2318
 4432TIP3   OH234786   5.909   3.576  16.137  0.1295  0.2235 -0.0295
 4432TIP3    H134787   5.962   3.649  16.107  0.2016  0.1063 -0.1864
 4432TIP3    H234788   5.871   3.606  16.220 -1.1830  1.0782 -0.8986
 4433TIP3   OH234789   3.228   4.259  13.472  0.2036 -0.1682  0.3829
 4433TIP3    H134790   3.139   4.255  13.438  1.2154 -1.4761 -2.4441
 4433TIP3    H234791   3.239   4.176  13.519 -0.4896  0.6576  2.0737
 4434TIP3   OH234792   0.519   0.434  16.967  0.2651  0.6379  0.4278
 4434TIP3    H134793   0.487   0.345  16.950  0.8841  0.6660 -1.0248
 4434TIP3    H234794   0.575   0.454  16.892  0.5334  2.0768  0.9831
 4435TIP3   OH234795   2.375   3.261  11.747 -0.0572  0.2313  0.6358
 4435TIP3    H134796   2.390   3.203  11.822 -1.1261 -1.4296 -0.3761
 4435TIP3    H234797   2.280   3.275  11.746 -0.0451  0.3008 -0.3459
 4436TIP3   OH234798   4.415   6.441   4.164  0.0107  0.1956  0.2658
 4436TIP3    H134799   4.331   6.444   4.119 -0.5122 -0.6508  1.1655
 4436TIP3    H234800   4.476   6.409   4.097 -0.3392  0.9385 -0.4266
 4437TIP3   OH234801   6.192   2.496   1.273  0.0057  0.0212  0.0190
 4437TIP3    H134802   6.249   2.539   1.210 -0.5611 -1.8642 -1.9023
 4437TIP3    H234803   6.111   2.479   1.225  0.0185 -2.6724  0.7626
 4438TIP3   OH234804   6.255   4.927  14.343 -0.6043  0.1355  0.0179
 4438TIP3    H134805   6.216   4.878  14.271  2.1384 -1.9231 -0.2287
 4438TIP3    H234806   6.228   4.881  14.422 -0.4369  0.0212  0.0094
 4439TIP3   OH234807   0.595   5.982  15.153 -0.7397 -0.2470 -0.1959
 4439TIP3    H134808   0.643   5.955  15.231 -0.6017  0.5512  0.0140
 4439TIP3    H234809   0.513   6.018  15.188 -1.0235 -0.6149 -0.4786
 4440TIP3   OH234810   3.352   0.053  15.741 -0.1789  0.2672 -0.0038
 4440TIP3    H134811   3.318   0.131  15.696  0.1159  0.2179 -0.3069
 4440TIP3    H234812   3.348   0.076  15.834 -0.3427  0.5456 -0.0796
 4441TIP3   OH234813   0.201   4.291  16.450 -0.1752  0.0380 -0.2902
 4441TIP3    H134814   0.264   4.268  16.381 -0.0004 -1.8857  0.4451
 4441TIP3    H234815   0.122   4.242  16.427 -0.5391  0.3868  0.2013
 4442TIP3   OH234816   2.893   2.480  14.778 -0.3261  0.0086 -0.6990
 4442TIP3    H134817   2.851   2.486  14.692  0.4488 -1.1140 -1.1928
 4442TIP3    H234818   2.848   2.409  14.822 -0.3573  0.2173 -0.3927
 4443TIP3   OH234819   2.115   0.167   4.738  0.2579  0.0376 -0.0255
 4443TIP3    H134820   2.058   0.105   4.694 -1.1628  1.3399 -0.1050
 4443TIP3    H234821   2.175   0.198   4.670 -0.4334  0.3333 -0.5099
 4444TIP3   OH234822   5.555   1.205  15.496 -0.1401 -0.5109 -0.6346
 4444TIP3    H134823   5.551   1.109  15.489  2.0008 -0.7100  0.2031
 4444TIP3    H234824   5.578   1.222  15.587 -0.8135  0.8504 -0.6894
 4445TIP3   OH234825   0.126   0.192   4.403 -0.2721 -0.1827 -0.3946
 4445TIP3    H134826   0.166   0.106   4.394 -0.4640 -0.1931 -1.2601
 4445TIP3    H234827   0.089   0.210   4.316 -0.2869  0.7428 -0.2045
 4446TIP3   OH234828   2.218   0.393   2.436 -0.7172 -0.2475 -0.1729
 4446TIP3    H134829   2.217   0.329   2.508 -1.8847  0.9884  0.9779
 4446TIP3    H234830   2.211   0.478   2.480  2.7334  0.9055 -1.5155
 4447TIP3   OH234831   4.669   4.598  16.488  0.0336  0.0507 -0.0834
 4447TIP3    H134832   4.655   4.529  16.553  0.5868  0.1037  0.0924
 4447TIP3    H234833   4.750   4.574  16.443  0.8109  1.1412  0.6941
 4448TIP3   OH234834   3.337   6.173   2.058  0.1601 -0.5116  0.1851
 4448TIP3    H134835   3.380   6.174   2.143 -1.5570 -0.8706  1.0918
 4448TIP3    H234836   3.317   6.265   2.040 -1.0477 -0.5965  1.0193
 4449TIP3   OH234837   0.626   1.659  11.574 -0.1936 -0.2536  0.2168
 4449TIP3    H134838   0.632   1.684  11.666 -0.8503  0.5298  0.0650
 4449TIP3    H234839   0.632   1.564  11.574 -1.5454 -0.3704  1.2127
 4450TIP3   OH234840   3.581   1.010  11.527  0.4294 -0.2162  0.0446
 4450TIP3    H134841   3.528   0.961  11.590  0.6721 -2.7341 -1.5685
 4450TIP3    H234842   3.647   1.054  11.581  0.1687 -1.6452  1.6306
 4451TIP3   OH234843   3.475   0.436   3.319 -0.0495 -0.1050  0.5230
 4451TIP3    H134844   3.528   0.364   3.353  1.2171  0.7453  0.3976
 4451TIP3    H234845   3.501   0.512   3.371  0.6349  0.8480 -1.1423
 4452TIP3   OH234846   4.719   0.957   4.238 -0.5701 -0.3868  0.3646
 4452TIP3    H134847   4.780   0.954   4.164 -0.6528  1.4685  0.1692
 4452TIP3    H234848   4.696   0.865   4.255  0.6522 -0.9550 -0.8961
 4453TIP3   OH234849   2.251   1.599  15.192 -0.9395 -0.5767  0.4979
 4453TIP3    H134850   2.237   1.693  15.197 -3.4479 -0.7880 -0.8931
 4453TIP3    H234851   2.165   1.560  15.210 -0.1715 -2.5614  0.1945
 4454TIP3   OH234852   0.479   3.671  15.851 -0.3243  0.2509  0.4601
 4454TIP3    H134853   0.455   3.706  15.765  1.3744  0.1596 -0.0764
 4454TIP3    H234854   0.473   3.576  15.842  2.9847  0.0251 -0.6341
 4455TIP3   OH234855   0.698   2.935   0.446  0.1877 -0.5817  0.4391
 4455TIP3    H134856   0.621   2.892   0.484 -0.8746  0.6066 -0.2891
 4455TIP3    H234857   0.769   2.873   0.461 -1.0246 -2.0066  0.5719
 4456TIP3   OH234858   2.970   1.224  15.302  0.2457 -0.2913  0.5991
 4456TIP3    H134859   2.941   1.146  15.348 -0.4025  0.1116  0.8927
 4456TIP3    H234860   2.946   1.297  15.359  0.3447  0.1589  0.0847
 4457TIP3   OH234861   0.766   0.657  14.895 -0.0358  0.5257 -0.0145
 4457TIP3    H134862   0.738   0.725  14.835 -1.8346 -0.6982 -0.6426
 4457TIP3    H234863   0.833   0.608  14.847  1.9008  2.2525  0.7490
 4458TIP3   OH234864   1.981   6.541   3.423  1.1038  0.3095  0.6343
 4458TIP3    H134865   2.053   6.598   3.451  3.6968 -1.4491 -1.9080
 4458TIP3    H234866   1.998   6.458   3.468  0.3361  0.0247  0.4039
 4459TIP3   OH234867   5.986   5.275  16.466  0.1709  0.3998 -0.0143
 4459TIP3    H134868   5.951   5.298  16.380  0.5218  2.0638  0.2518
 4459TIP3    H234869   6.002   5.181  16.461 -0.7206  0.2921 -1.4303
 4460TIP3   OH234870   3.283   3.843   1.297  0.3351 -0.5163 -0.0889
 4460TIP3    H134871   3.191   3.865   1.311 -0.1345 -1.2947 -1.6701
 4460TIP3    H234872   3.319   3.833   1.385 -1.0602 -0.1015  0.5611
 4461TIP3   OH234873   6.666   0.199   5.810  0.9071  0.1251 -0.1247
 4461TIP3    H134874   6.722   0.181   5.886  1.5170 -0.1412 -0.6271
 4461TIP3    H234875   6.689   0.130   5.747 -0.0940 -0.0765 -0.2839
 4462TIP3   OH234876   0.907   2.982   4.177  0.8024 -0.2983  0.1109
 4462TIP3    H134877   0.859   3.049   4.226  2.3429  0.6986  0.3384
 4462TIP3    H234878   0.846   2.955   4.109 -0.6967 -0.3510  1.4134
 4463TIP3   OH234879   1.865   3.115   2.532 -0.1829 -0.4924  0.5046
 4463TIP3    H134880   1.937   3.055   2.513  0.2764 -0.1855  1.2477
 4463TIP3    H234881   1.786   3.065   2.509  0.2752 -0.5190 -1.1497
 4464TIP3   OH234882   5.069   5.171   5.881 -0.0909 -0.0156 -0.0916
 4464TIP3    H134883   5.007   5.179   5.808 -0.6305  1.2040  0.4674
 4464TIP3    H234884   5.065   5.079   5.906 -1.9325  0.0858  0.1241
 4465TIP3   OH234885   3.245   1.260   6.684 -0.5530 -0.1573 -0.0108
 4465TIP3    H134886   3.259   1.171   6.716 -0.7290 -0.4562 -0.7383
 4465TIP3    H234887   3.174   1.295   6.738 -1.1827 -0.8208 -0.3939
 4466TIP3   OH234888   6.238   3.176  14.836 -0.4592 -0.1936 -0.4504
 4466TIP3    H134889   6.143   3.182  14.830 -0.6222 -1.3599  0.4881
 4466TIP3    H234890   6.265   3.135  14.753 -0.7895  0.0156 -0.6608
 4467TIP3   OH234891   3.791   4.305  13.590 -0.3769 -0.0922 -0.2440
 4467TIP3    H134892   3.808   4.313  13.684 -0.4595 -4.6741  0.3847
 4467TIP3    H234893   3.874   4.276  13.553 -1.1807 -1.5688 -0.9513
 4468TIP3   OH234894   5.847   4.026   1.314  0.1532  0.4353 -0.5638
 4468TIP3    H134895   5.773   4.019   1.374  1.3426 -1.2786  0.8017
 4468TIP3    H234896   5.835   3.955   1.252  0.8676 -0.1500 -0.0506
 4469TIP3   OH234897   6.493   6.092   5.193  0.0507  0.3270  0.4192
 4469TIP3    H134898   6.472   6.016   5.138  0.4555  0.5879 -0.1058
 4469TIP3    H234899   6.573   6.066   5.239 -0.6905 -0.1799  1.4665
 4470TIP3   OH234900   1.558   2.884   6.612 -0.5285 -0.1787 -0.0525
 4470TIP3    H134901   1.550   2.789   6.598 -0.2442 -0.3888  1.0882
 4470TIP3    H234902   1.649   2.903   6.587 -0.6225 -0.1852 -0.4003
 4471TIP3   OH234903   0.325   5.434   5.122 -0.3813  0.3735  0.1714
 4471TIP3    H134904   0.420   5.435   5.110 -0.6306  0.3727 -2.5079
 4471TIP3    H234905   0.302   5.342   5.119 -0.4792  0.3843  0.6313
 4472TIP3   OH234906   6.683   1.049  15.019 -0.0958 -0.4195  0.1120
 4472TIP3    H134907   6.711   1.052  15.111 -0.8011 -0.2455  0.3285
 4472TIP3    H234908   6.682   1.140  14.991  0.8410 -0.5289 -0.2992
 4473TIP3   OH234909   1.952   2.649   3.237 -0.2402 -0.0002 -0.2079
 4473TIP3    H134910   1.965   2.649   3.143  0.8213  1.8427 -0.0994
 4473TIP3    H234911   2.038   2.665   3.274 -0.7886  0.1776  1.0529
 4474TIP3   OH234912   6.193   1.560   1.939  0.1294  0.0653  0.1383
 4474TIP3    H134913   6.208   1.498   2.011 -0.7093 -0.3871 -0.0589
 4474TIP3    H234914   6.103   1.589   1.951  0.2149  0.5291 -0.3196
 4475TIP3   OH234915   0.125   0.801   4.302  0.5755 -0.4155 -0.5473
 4475TIP3    H134916   0.197   0.799   4.239  1.1866  1.0349  0.0536
 4475TIP3    H234917   0.156   0.746   4.374  0.0847 -1.6719 -1.2738
 4476TIP3   OH234918   5.748   3.080  16.884 -0.2265 -0.6390 -0.1690
 4476TIP3    H134919   5.835   3.117  16.897 -1.1022  1.4211  0.3226
 4476TIP3    H234920   5.729   3.097  16.791 -0.3785 -0.4244 -0.0996
 4477TIP3   OH234921   5.545   5.740   5.588 -0.3581 -0.1316  0.1591
 4477TIP3    H134922   5.573   5.700   5.505 -2.0131 -0.0809 -0.4657
 4477TIP3    H234923   5.507   5.667   5.637  0.9140 -0.2268  1.0370
 4478TIP3   OH234924   3.256   1.569   4.657  0.6545 -0.4141  0.0563
 4478TIP3    H134925   3.222   1.640   4.713  0.4256 -0.1626 -0.3939
 4478TIP3    H234926   3.339   1.544   4.698  0.2365 -0.6027  0.8152
 4479TIP3   OH234927   4.343   5.089  14.050 -0.3105 -0.3390  0.2722
 4479TIP3    H134928   4.264   5.061  14.003  0.4092 -1.9913  0.0077
 4479TIP3    H234929   4.332   5.055  14.138 -0.1737 -0.0414  0.4041
 4480TIP3   OH234930   0.795   1.469  16.820  0.7032 -1.0773 -0.8034
 4480TIP3    H134931   0.731   1.411  16.862 -0.2739 -0.9592 -2.0735
 4480TIP3    H234932   0.746   1.548  16.799  1.7126 -0.2846 -0.2383
 4481TIP3   OH234933   3.377   0.891   2.910 -0.1893 -0.1924  0.0891
 4481TIP3    H134934   3.323   0.943   2.851 -4.6426 -2.7503  1.4226
 4481TIP3    H234935   3.443   0.851   2.853  0.1059  2.7017 -1.7904
 4482TIP3   OH234936   2.559   2.314   5.215  0.9418 -0.8548  0.6507
 4482TIP3    H134937   2.527   2.252   5.279  0.9248  0.8949  2.4382
 4482TIP3    H234938   2.560   2.398   5.261  0.9066  0.4987 -1.6598
 4483TIP3   OH234939   3.000   2.102   1.688 -0.0534  0.2842 -0.1796
 4483TIP3    H134940   2.956   2.167   1.743 -1.0327  1.2705 -2.0303
 4483TIP3    H234941   3.034   2.038   1.750 -0.8465  1.4736  1.5854
 4484TIP3   OH234942   4.654   5.530  14.458  0.0511 -0.3664 -0.1584
 4484TIP3    H134943   4.650   5.612  14.506 -0.6223 -1.5302  1.9241
 4484TIP3    H234944   4.640   5.463  14.525  2.3566 -2.2909 -1.4371
 4485TIP3   OH234945   3.907   4.199  12.388 -0.2073  0.4718 -0.5698
 4485TIP3    H134946   3.918   4.294  12.393  0.8282  0.3451 -0.1576
 4485TIP3    H234947   3.992   4.163  12.413 -0.4294 -0.5635 -1.2076
 4486TIP3   OH234948   5.949   6.715   0.163  0.5726  0.1931 -0.2871
 4486TIP3    H134949   5.893   6.688   0.235  1.2457 -0.3416  0.0480
 4486TIP3    H234950   6.010   6.778   0.203  0.4293  0.5179 -0.5729
 4487TIP3   OH234951   4.471   2.811  11.994  0.5884  0.2878 -0.3364
 4487TIP3    H134952   4.458   2.717  11.988  0.1809  0.1422  2.0297
 4487TIP3    H234953   4.383   2.847  12.006  1.0138  0.5602  2.5515
 4488TIP3   OH234954   1.967   1.024  14.784  0.3507  0.3043  0.5505
 4488TIP3    H134955   2.008   1.110  14.793  1.0500  0.1280 -0.7419
 4488TIP3    H234956   1.893   1.038  14.726 -0.4763  0.3095  1.5811
 4489TIP3   OH234957   6.116   4.134   1.318 -0.3027  0.3980  0.3611
 4489TIP3    H134958   6.160   4.138   1.402 -0.4522 -0.3931  0.4906
 4489TIP3    H234959   6.035   4.085   1.336  0.0104 -0.4117 -0.3722
 4490TIP3   OH234960   1.331   1.235   4.284  0.1664  0.3728  0.8200
 4490TIP3    H134961   1.339   1.140   4.274 -0.0909  0.2530  1.6021
 4490TIP3    H234962   1.389   1.272   4.218 -1.3422 -0.2950 -0.9502
 4491TIP3   OH234963   0.024   4.113   3.696  0.4166  0.4981  0.2722
 4491TIP3    H134964   0.100   4.065   3.663  0.7787  0.9261  0.4798
 4491TIP3    H234965   0.054   4.203   3.706 -0.5910  1.0472 -1.2471
 4492TIP3   OH234966   5.409   1.619   5.926 -0.3587 -0.1794 -0.0941
 4492TIP3    H134967   5.441   1.708   5.940  0.1118 -0.2812 -0.5144
 4492TIP3    H234968   5.383   1.617   5.834  0.4949 -0.7445 -0.3294
 4493TIP3   OH234969   0.760   6.424   4.290 -0.0538 -0.0738  0.2589
 4493TIP3    H134970   0.730   6.383   4.372 -1.1326  0.0523 -0.0520
 4493TIP3    H234971   0.709   6.505   4.284  0.4947  0.2431 -0.2138
 4494TIP3   OH234972   4.967   4.674  13.117  0.2218 -0.4546 -0.2615
 4494TIP3    H134973   5.040   4.619  13.146 -0.0593  0.1889  1.8032
 4494TIP3    H234974   5.004   4.762  13.114 -0.6644  0.0359  1.7808
 4495TIP3   OH234975   6.689   6.766  14.527 -0.1033  0.3051  0.3600
 4495TIP3    H134976   6.661   6.675  14.527 -0.7012  0.4865  0.0529
 4495TIP3    H234977   6.759   6.770  14.463 -0.4464  0.1721 -0.0263
 4496TIP3   OH234978   3.487   6.200  16.873 -0.3976 -0.4114  0.1377
 4496TIP3    H134979   3.582   6.196  16.877 -0.2859  1.5829  0.8777
 4496TIP3    H234980   3.458   6.167  16.958 -0.2870  0.1043  0.3812
 4497TIP3   OH234981   3.322   4.674  15.554 -0.1203 -0.0378 -1.0279
 4497TIP3    H134982   3.403   4.624  15.554  0.2923  0.6112 -1.6131
 4497TIP3    H234983   3.274   4.641  15.478 -1.2466 -1.7095  0.3439
 4498TIP3   OH234984   3.482   3.357  16.341  0.1762  0.2187  0.6036
 4498TIP3    H134985   3.417   3.342  16.410 -1.0656  1.9379 -0.1169
 4498TIP3    H234986   3.503   3.269  16.308 -4.3309 -0.3975 -1.3508
 4499TIP3   OH234987   3.779   2.208   5.021 -0.5268  0.2074 -0.7616
 4499TIP3    H134988   3.827   2.190   4.941 -0.1638  2.0233 -0.9878
 4499TIP3    H234989   3.738   2.293   5.006 -0.9984  0.2721  0.7221
 4500TIP3   OH234990   3.516   2.939  11.721 -0.2615  0.5409  0.1163
 4500TIP3    H134991   3.463   3.004  11.674 -0.6205  0.3500  0.2513
 4500TIP3    H234992   3.545   2.984  11.800  2.2775  1.6481 -1.3316
 4501TIP3   OH234993   2.542   3.567   0.714 -0.3064 -0.1747 -0.0921
 4501TIP3    H134994   2.490   3.626   0.768  0.2730 -0.8846  1.2681
 4501TIP3    H234995   2.507   3.480   0.733  1.8922 -0.7842  1.5356
 4502TIP3   OH234996   1.391   0.782   4.623  0.3269  0.5846  0.2371
 4502TIP3    H134997   1.399   0.846   4.552  2.6171  0.5067  0.3758
 4502TIP3    H234998   1.396   0.697   4.580  0.2464  0.5168  0.3586
 4503TIP3   OH234999   0.806   3.627   1.364 -0.3214  0.0281  0.5513
 4503TIP3    H135000   0.789   3.662   1.276 -0.5482  0.7891  0.8883
 4503TIP3    H235001   0.815   3.533   1.351 -0.2602  0.1459 -0.3032
 4504TIP3   OH235002   5.461   3.913   6.004 -0.0473 -0.0336 -0.6372
 4504TIP3    H135003   5.372   3.905   6.040 -0.5576 -0.4510 -1.9345
 4504TIP3    H235004   5.449   3.954   5.919  1.2109  1.6726 -0.0372
 4505TIP3   OH235005   0.130   5.896   2.576 -0.7377  0.3666  0.4006
 4505TIP3    H135006   0.192   5.830   2.545  0.0682  0.4712  1.7425
 4505TIP3    H235007   0.117   5.876   2.668 -2.6217  0.4352  0.1863
 4506TIP3   OH235008   4.549   2.140  15.039 -0.2854 -0.1813 -0.0929
 4506TIP3    H135009   4.604   2.068  15.071 -0.1462 -1.1967 -2.4694
 4506TIP3    H235010   4.612   2.208  15.014 -0.3152 -0.0137  0.2756
 4507TIP3   OH235011   6.143   2.000  12.821 -0.3177  0.2452 -0.4580
 4507TIP3    H135012   6.177   2.079  12.778  0.1795  0.9954  1.1956
 4507TIP3    H235013   6.051   1.996  12.796  0.0867  0.2957 -2.0372
 4508TIP3   OH235014   4.569   1.025   0.982 -0.4891 -0.5610  0.0637
 4508TIP3    H135015   4.512   1.096   1.011 -0.6933 -0.5785 -0.2889
 4508TIP3    H235016   4.657   1.055   1.003 -0.4969  0.2142 -0.9182
 4509TIP3   OH235017   0.294   5.539   0.824  0.5843 -0.5535  0.2489
 4509TIP3    H135018   0.353   5.614   0.812 -0.0094 -0.0320  0.4994
 4509TIP3    H235019   0.307   5.485   0.747  0.6954  0.0417 -0.1563
 4510TIP3   OH235020   0.351   1.863   3.833  0.2376  0.1059 -0.2176
 4510TIP3    H135021   0.349   1.958   3.827  0.5686  0.1594  0.3452
 4510TIP3    H235022   0.270   1.839   3.878  0.5214  0.1938  0.3527
 4511TIP3   OH235023   4.220   1.740  16.440  0.4998  0.3493  0.2472
 4511TIP3    H135024   4.269   1.792  16.504  0.6065 -1.4725  1.7273
 4511TIP3    H235025   4.280   1.668  16.417 -0.1845  0.0291 -0.6075
 4512TIP3   OH235026   2.161   0.796   5.007 -0.3036 -0.2134  0.2165
 4512TIP3    H135027   2.111   0.726   4.966  0.7519 -0.6583 -0.3400
 4512TIP3    H235028   2.204   0.754   5.082  0.9991 -0.3828 -0.6038
 4513TIP3   OH235029   5.535   3.823   2.378  0.6608  0.1829  0.1075
 4513TIP3    H135030   5.477   3.748   2.380  1.7126 -0.6849 -0.7460
 4513TIP3    H235031   5.550   3.845   2.470 -0.3908 -0.0461  0.3449
 4514TIP3   OH235032   3.969   4.600   6.401  0.0749  0.9392  0.2116
 4514TIP3    H135033   3.878   4.592   6.373  0.0379  3.1006 -0.4711
 4514TIP3    H235034   3.993   4.512   6.431 -2.9014  0.7491  2.4673
 4515TIP3   OH235035   1.174   2.864   1.009 -0.3392 -0.1552 -0.2956
 4515TIP3    H135036   1.196   2.865   1.102 -0.4280  0.3173 -0.2780
 4515TIP3    H235037   1.092   2.815   1.005 -0.7970  0.5693 -0.0146
 4516TIP3   OH235038   5.240   2.355   1.021  0.1540 -0.0123 -0.3169
 4516TIP3    H135039   5.193   2.437   1.040 -0.8847 -0.8470  0.8342
 4516TIP3    H235040   5.200   2.290   1.078  2.3453 -0.9152  0.2749
 4517TIP3   OH235041   3.877   0.237   4.414  0.0288  0.1204 -0.5096
 4517TIP3    H135042   3.914   0.248   4.326  2.4824 -0.0623  0.4354
 4517TIP3    H235043   3.919   0.158   4.448 -0.9411  0.1493  0.8386
 4518TIP3   OH235044   3.057   1.125   2.157 -0.0912 -0.5012  0.6188
 4518TIP3    H135045   3.076   1.198   2.216  1.9856  1.0727 -1.7696
 4518TIP3    H235046   3.117   1.055   2.185  2.5991  1.0478 -0.8947
 4519TIP3   OH235047   4.315   0.267  14.272 -0.0474  0.0539  0.4324
 4519TIP3    H135048   4.293   0.276  14.180  1.7653  2.3493  0.1194
 4519TIP3    H235049   4.248   0.317  14.318 -0.0998  0.1871  0.2119
 4520TIP3   OH235050   3.308   3.476  12.284  0.5559  0.7610 -0.7045
 4520TIP3    H135051   3.236   3.500  12.342  0.4068  1.1104 -1.0282
 4520TIP3    H235052   3.322   3.383  12.299  1.6301  1.1592  1.1411
 4521TIP3   OH235053   1.957   6.599  12.092  0.3808  0.0019  0.5764
 4521TIP3    H135054   1.944   6.623  12.184 -0.8161 -0.1487  0.4598
 4521TIP3    H235055   2.038   6.548  12.092 -0.1166 -0.8363  1.7176
 4522TIP3   OH235056   2.506   3.264   4.814  0.4786 -0.3531  0.2255
 4522TIP3    H135057   2.458   3.183   4.800  0.2837  0.0095 -1.4483
 4522TIP3    H235058   2.484   3.318   4.738  2.5609  0.2857  0.0138
 4523TIP3   OH235059   3.693   5.704  16.271  0.1317 -0.7655 -0.3259
 4523TIP3    H135060   3.787   5.720  16.262 -0.1324  0.5767 -0.9446
 4523TIP3    H235061   3.682   5.674  16.361  0.9809  0.5212  0.2416
 4524TIP3   OH235062   5.568   1.584  11.358 -0.3201 -0.9135  0.1406
 4524TIP3    H135063   5.578   1.535  11.277 -1.9216 -0.1617 -0.5611
 4524TIP3    H235064   5.547   1.518  11.424 -0.8877 -1.3368 -0.4554
 4525TIP3   OH235065   2.438   3.949  16.763 -0.3802  0.1667 -0.2384
 4525TIP3    H135066   2.404   3.948  16.852  0.5098 -1.3274  0.1181
 4525TIP3    H235067   2.527   3.984  16.771 -0.2512 -0.0907 -0.5206
 4526TIP3   OH235068   2.522   5.989   5.486  0.4595  0.3423 -0.6936
 4526TIP3    H135069   2.480   6.018   5.567 -1.4252 -0.8043 -1.1870
 4526TIP3    H235070   2.574   6.064   5.458  0.7369  0.9474  1.2872
 4527TIP3   OH235071   3.817   5.397  16.876 -0.0813 -0.2598  0.2421
 4527TIP3    H135072   3.824   5.329  16.944 -1.6037 -0.9964 -0.2820
 4527TIP3    H235073   3.874   5.367  16.806  1.3161  0.3817  1.0717
 4528TIP3   OH235074   3.997   0.220   3.502 -0.4063 -0.0670  0.1355
 4528TIP3    H135075   4.080   0.265   3.518  0.2483 -1.1297 -0.1475
 4528TIP3    H235076   4.019   0.150   3.440 -1.5359 -0.3022 -0.0196
 4529TIP3   OH235077   1.969   5.643  15.937  0.2426 -0.2341 -0.6903
 4529TIP3    H135078   2.026   5.568  15.923  0.5976 -0.2019  0.4783
 4529TIP3    H235079   2.009   5.692  16.009 -1.6258 -0.6312  0.7198
 4530TIP3   OH235080   2.651   4.139   4.165 -0.4331  0.7422 -0.0062
 4530TIP3    H135081   2.620   4.135   4.075  0.1542  0.8192 -0.2189
 4530TIP3    H235082   2.718   4.208   4.164  0.8977 -0.4801  0.0631
 4531TIP3   OH235083   4.553   2.711  13.630 -0.0824 -0.0782 -0.0128
 4531TIP3    H135084   4.551   2.632  13.576  0.9500  0.5707 -1.0413
 4531TIP3    H235085   4.549   2.783  13.568  2.2183  0.6957  0.6247
 4532TIP3   OH235086   1.289   1.200   3.560  0.2120 -0.1706  0.0256
 4532TIP3    H135087   1.336   1.173   3.639 -0.4136 -0.1584  0.4089
 4532TIP3    H235088   1.245   1.120   3.530  0.9014 -0.3057 -0.6310
 4533TIP3   OH235089   2.980   2.871   3.826 -0.9990  0.0344 -0.1736
 4533TIP3    H135090   2.938   2.836   3.905 -0.9863 -0.8430 -0.5462
 4533TIP3    H235091   2.925   2.841   3.754 -0.6841  0.3372 -0.5477
 4534TIP3   OH235092   4.524   5.926  13.151  0.0162  0.4762  0.6051
 4534TIP3    H135093   4.558   6.007  13.114 -1.0984  0.4424 -0.5502
 4534TIP3    H235094   4.594   5.862  13.137  0.3707  0.9262  0.3149
 4535TIP3   OH235095   1.669   0.587   5.964  0.2585  0.3592  0.5441
 4535TIP3    H135096   1.662   0.516   6.028 -0.7698 -0.7430 -0.7362
 4535TIP3    H235097   1.726   0.553   5.896  0.6822  1.2130  0.4593
 4536TIP3   OH235098   0.946   0.425   0.118 -0.1450 -0.2338 -0.1299
 4536TIP3    H135099   0.936   0.458   0.206  1.0141 -2.5635  0.9889
 4536TIP3    H235100   0.857   0.408   0.087 -0.5798  1.0762  0.3489
 4537TIP3   OH235101   2.269   6.819  14.862 -0.1171 -0.1784 -0.3440
 4537TIP3    H135102   2.195   6.858  14.814 -0.1609  2.5307  1.6934
 4537TIP3    H235103   2.236   6.808  14.951  0.8464 -2.4530 -0.2003
 4538TIP3   OH235104   5.446   4.265   3.665  0.2626 -0.1568 -0.0555
 4538TIP3    H135105   5.363   4.295   3.703  0.3491 -0.3909  0.3258
 4538TIP3    H235106   5.430   4.174   3.639  0.3815 -0.1855 -0.0321
 4539TIP3   OH235107   3.590   6.307   1.435  0.3508 -0.5062  0.1910
 4539TIP3    H135108   3.599   6.215   1.410  0.7589 -1.0800  2.2710
 4539TIP3    H235109   3.531   6.306   1.510  0.4394  0.9352  0.3100
 4540TIP3   OH235110   6.537   0.499  13.759 -0.4601  0.4184  0.5179
 4540TIP3    H135111   6.568   0.565  13.696  1.1161  0.4865  1.3045
 4540TIP3    H235112   6.617   0.464  13.798 -1.3788  0.2530  2.3578
 4541TIP3   OH235113   6.310   3.083  14.557  0.1570  0.1789  0.2952
 4541TIP3    H135114   6.333   3.004  14.604  0.5099 -1.1273 -1.9313
 4541TIP3    H235115   6.346   3.070  14.469 -2.2928  1.5053 -0.9996
 4542TIP3   OH235116   5.365   5.224   4.141  0.6942 -0.5417  0.6537
 4542TIP3    H135117   5.322   5.305   4.116  1.5538 -0.5424 -1.0060
 4542TIP3    H235118   5.329   5.202   4.226 -0.8972  0.6107  0.3133
 4543TIP3   OH235119   4.281   3.896  14.350 -0.1236 -0.3140  0.4936
 4543TIP3    H135120   4.241   3.861  14.430 -2.0181 -1.8868 -1.0131
 4543TIP3    H235121   4.352   3.836  14.330 -0.7781 -0.9710  0.0879
 4544TIP3   OH235122   5.534   4.611  13.650  0.2137  0.9991 -0.2699
 4544TIP3    H135123   5.628   4.590  13.654  0.2981  1.1620 -1.0680
 4544TIP3    H235124   5.514   4.648  13.735  0.4251 -0.8345  0.6196
 4545TIP3   OH235125   1.661   3.668   2.131 -0.0263  0.1043  0.9460
 4545TIP3    H135126   1.567   3.655   2.116 -0.0371  0.3690  0.7853
 4545TIP3    H235127   1.665   3.721   2.210 -0.0145  0.1756  0.8975
 4546TIP3   OH235128   6.573   0.225   2.243 -0.4522 -0.1591  0.2968
 4546TIP3    H135129   6.627   0.257   2.171 -1.3700  0.2686 -0.2042
 4546TIP3    H235130   6.610   0.139   2.264  0.8641  0.4146  0.4408
 4547TIP3   OH235131   0.923   2.887   3.398  0.8052 -0.0902 -0.3185
 4547TIP3    H135132   0.848   2.858   3.346 -0.6931  0.2053  1.5960
 4547TIP3    H235133   0.990   2.820   3.382 -0.9164 -2.0720  0.2755
 4548TIP3   OH235134   2.038   4.752  14.900 -0.1375 -0.1988 -0.2667
 4548TIP3    H135135   2.057   4.843  14.921 -0.5034 -0.1589 -0.0964
 4548TIP3    H235136   1.949   4.737  14.933  0.4391 -1.0295  0.9880
 4549TIP3   OH235137   1.580   5.868   5.539 -0.5340 -1.0742 -0.3751
 4549TIP3    H135138   1.601   5.816   5.462  1.3653 -1.4819  0.3708
 4549TIP3    H235139   1.486   5.855   5.552 -1.2844  0.3749 -3.5785
 4550TIP3   OH235140   0.094   5.733  16.053  0.1263  0.0380 -0.9364
 4550TIP3    H135141   0.080   5.820  16.089  1.3854 -1.1882  2.9713
 4550TIP3    H235142   0.169   5.743  15.993  1.0864  1.4570  0.4387
 4551TIP3   OH235143   5.172   2.841   4.466 -0.1713 -0.1283 -0.2864
 4551TIP3    H135144   5.134   2.855   4.379 -1.4642  0.3272  0.3335
 4551TIP3    H235145   5.175   2.746   4.475  0.9257 -0.2056 -1.2167
 4552TIP3   OH235146   0.512   4.974   2.809  0.3919 -0.9650 -0.2002
 4552TIP3    H135147   0.605   4.994   2.806  0.8327 -2.8036 -0.1938
 4552TIP3    H235148   0.504   4.912   2.882 -0.9783 -0.2501  0.2977
 4553TIP3   OH235149   1.806   4.287   1.336  0.2353  0.2590 -0.2272
 4553TIP3    H135150   1.828   4.377   1.361  2.8412 -0.5953  0.8786
 4553TIP3    H235151   1.886   4.252   1.297 -0.2785 -1.9766  0.5668
 4554TIP3   OH235152   4.576   1.281   3.565 -0.5158 -0.1687 -0.8083
 4554TIP3    H135153   4.627   1.200   3.574  0.3076  0.4276  0.1042
 4554TIP3    H235154   4.486   1.255   3.586 -0.1183 -0.6900  0.3509
 4555TIP3   OH235155   2.570   3.178  15.568 -0.1196  0.0545  0.3176
 4555TIP3    H135156   2.593   3.154  15.658  0.4467 -0.5186  0.0300
 4555TIP3    H235157   2.617   3.261  15.553  0.1313 -0.0700  0.4096
 4556TIP3   OH235158   2.317   4.234   2.981 -0.5778 -0.4811 -0.3639
 4556TIP3    H135159   2.412   4.246   2.980 -0.3167 -2.2597 -0.6600
 4556TIP3    H235160   2.283   4.305   2.926  0.7899 -1.1743 -2.2327
 4557TIP3   OH235161   2.868   5.993   2.198 -0.0443  0.1888 -0.1558
 4557TIP3    H135162   2.916   6.066   2.157 -0.5342  0.8295  0.3987
 4557TIP3    H235163   2.778   6.005   2.169 -0.3291  0.4421  0.8037
 4558TIP3   OH235164   3.272   1.273   1.744  0.2797 -0.6836  0.3081
 4558TIP3    H135165   3.268   1.205   1.811  3.4467 -0.1313  1.2097
 4558TIP3    H235166   3.230   1.349   1.784 -1.0527 -1.3564  0.2344
 4559TIP3   OH235167   5.827   3.900   0.494 -0.1970  0.3275 -0.9268
 4559TIP3    H135168   5.761   3.863   0.552  0.4339 -0.5970 -0.7871
 4559TIP3    H235169   5.900   3.923   0.551 -0.6558  2.0600 -0.9659
 4560TIP3   OH235170   4.504   0.646   0.477  0.0865  0.8400  0.1986
 4560TIP3    H135171   4.558   0.614   0.404 -0.7898 -1.3729  0.4578
 4560TIP3    H235172   4.421   0.670   0.436  0.1621  1.2042  0.2533
 4561TIP3   OH235173   0.151   5.806  15.041  0.4339 -0.3311  0.1828
 4561TIP3    H135174   0.150   5.718  15.004  2.0340 -0.2269 -0.1893
 4561TIP3    H235175   0.070   5.846  15.009  0.8994 -0.8432 -1.7718
 4562TIP3   OH235176   2.383   2.643   6.105 -0.0344 -0.4735  0.1671
 4562TIP3    H135177   2.392   2.635   6.010 -2.3136 -2.0334  0.0205
 4562TIP3    H235178   2.359   2.734   6.119 -0.8756 -0.5068 -0.8943
 4563TIP3   OH235179   6.544   0.969   5.956 -0.1499 -0.6741 -0.0449
 4563TIP3    H135180   6.526   0.997   6.045 -0.0847 -2.3599  0.5337
 4563TIP3    H235181   6.512   0.879   5.952 -0.1779 -0.6334 -1.7412
 4564TIP3   OH235182   5.923   5.190   5.272 -0.2212 -0.1129 -0.2459
 4564TIP3    H135183   5.835   5.179   5.309 -1.2311  1.5568 -1.9637
 4564TIP3    H235184   5.975   5.121   5.313 -1.8940 -0.0867  2.1139
 4565TIP3   OH235185   3.945   0.647   5.451 -0.0562  0.3344 -0.3436
 4565TIP3    H135186   4.000   0.686   5.519 -0.1220 -0.9841  0.4978
 4565TIP3    H235187   3.874   0.605   5.499  0.8716 -2.2321 -1.0540
 4566TIP3   OH235188   6.517   3.864  10.969  0.2846 -0.0279  0.4639
 4566TIP3    H135189   6.516   3.913  11.051  0.0582  0.3404  0.2443
 4566TIP3    H235190   6.610   3.849  10.952  0.3857  0.7840  0.2674
 4567TIP3   OH235191   3.438   6.121  17.117  0.2255  0.7366  0.7916
 4567TIP3    H135192   3.510   6.149  17.175  0.3977  1.3221  0.3050
 4567TIP3    H235193   3.359   6.142  17.166  0.3529  1.9555  0.5048
 4568TIP3   OH235194   5.654   0.630   6.454  0.3537  0.8070  0.0548
 4568TIP3    H135195   5.623   0.716   6.484 -2.4460  0.2794 -1.0541
 4568TIP3    H235196   5.597   0.608   6.381  0.5586 -2.3285  0.7133
 4569TIP3   OH235197   3.091   2.622  17.241  0.0409 -0.4943  0.7198
 4569TIP3    H135198   3.074   2.636  17.335  2.1483  0.8417  0.9987
 4569TIP3    H235199   3.187   2.616  17.236  0.0252  0.3342 -1.4350
 4570TIP3   OH235200   3.643   2.008   0.381  0.0696  0.6809 -0.6297
 4570TIP3    H135201   3.680   1.999   0.293  0.8094 -0.2757 -0.2448
 4570TIP3    H235202   3.568   2.065   0.370 -0.0694  0.2809 -1.9477
 4571TIP3   OH235203   4.262   3.682  16.905 -0.2342 -0.5146 -0.0142
 4571TIP3    H135204   4.198   3.681  16.976 -0.7911  0.7652 -0.4734
 4571TIP3    H235205   4.343   3.710  16.948 -0.2665 -0.9294  0.3332
 4572TIP3   OH235206   3.351   0.703  16.684 -0.6222  0.4189 -0.2255
 4572TIP3    H135207   3.431   0.697  16.737 -0.4797 -3.6793 -0.5711
 4572TIP3    H235208   3.307   0.619  16.699 -2.3408  0.4985 -3.9031
 4573TIP3   OH235209   6.151   2.480   2.310 -0.3764  0.1741 -0.1503
 4573TIP3    H135210   6.102   2.477   2.228  1.9669  1.4216 -1.7031
 4573TIP3    H235211   6.087   2.453   2.377 -1.9635 -2.5453 -2.5147
 4574TIP3   OH235212   0.741   6.234   0.497  0.1710  0.3109  0.0478
 4574TIP3    H135213   0.646   6.243   0.484 -0.0807 -0.3583  1.2843
 4574TIP3    H235214   0.776   6.321   0.480 -0.5944  0.4560 -0.9029
 4575TIP3   OH235215   3.892   5.026   3.886 -0.0679  0.2658  0.2968
 4575TIP3    H135216   3.889   5.014   3.791  0.2562  0.9579  0.1892
 4575TIP3    H235217   3.875   4.939   3.922  1.2442 -0.3265 -0.4120
 4576TIP3   OH235218   3.132   5.087  13.461  0.6198  0.1275  0.5722
 4576TIP3    H135219   3.058   5.111  13.405  0.1291 -0.5231  0.9293
 4576TIP3    H235220   3.193   5.042  13.402  0.7498  0.6824  0.2745
 4577TIP3   OH235221   4.279   0.028   3.108 -0.1960 -0.2170  0.3716
 4577TIP3    H135222   4.198   0.041   3.059  0.3412 -0.5953 -0.6535
 4577TIP3    H235223   4.349   0.052   3.047  0.4846 -0.3306  1.0803
 4578TIP3   OH235224   5.028   0.264  14.412 -0.5974  0.2118 -0.0549
 4578TIP3    H135225   4.988   0.350  14.415  1.1067  1.1348 -1.3819
 4578TIP3    H235226   4.990   0.222  14.334  0.1729  0.6685 -0.6949
 4579TIP3   OH235227   5.220   5.417   3.377  0.0990 -0.5740  0.1787
 4579TIP3    H135228   5.147   5.478   3.363  1.1678  1.1141  1.6045
 4579TIP3    H235229   5.223   5.365   3.297 -2.9995 -1.1104  0.2788
 4580TIP3   OH235230   4.525   6.816  13.514  0.0906  0.0254 -0.1145
 4580TIP3    H135231   4.605   6.779  13.553  0.7586  0.4724 -1.0310
 4580TIP3    H235232   4.455   6.758  13.544  0.9703 -1.3494 -0.5998
 4581TIP3   OH235233   1.683   6.669  16.171  0.3610  0.2992  0.2436
 4581TIP3    H135234   1.720   6.616  16.242  0.6427 -0.3361 -0.3652
 4581TIP3    H235235   1.754   6.676  16.107 -0.2856 -0.2090 -0.5513
 4582TIP3   OH235236   3.762   4.102  16.049 -0.1050 -0.6246 -0.1867
 4582TIP3    H135237   3.684   4.101  15.993 -0.3220  1.5960 -0.0181
 4582TIP3    H235238   3.737   4.050  16.125 -0.7497 -1.4899 -0.9693
 4583TIP3   OH235239   6.225   4.813  14.598  0.1485 -0.2279 -0.0009
 4583TIP3    H135240   6.157   4.832  14.662  0.4287  0.6054  0.0630
 4583TIP3    H235241   6.295   4.772  14.649  0.0835 -0.2114  0.1012
 4584TIP3   OH235242   6.348   5.414   0.208  0.5845  0.3369 -0.6509
 4584TIP3    H135243   6.341   5.319   0.217 -0.9797  0.5769  1.3320
 4584TIP3    H235244   6.261   5.442   0.181 -0.3349  1.5219  3.0087
 4585TIP3   OH235245   2.461   2.358  15.820  0.8482 -0.1021  0.7757
 4585TIP3    H135246   2.411   2.439  15.805  1.3445  1.0344  4.3860
 4585TIP3    H235247   2.545   2.388  15.856  1.6771 -2.2231  0.7575
 4586TIP3   OH235248   3.256   3.342   3.349  0.5803  0.3273  0.2729
 4586TIP3    H135249   3.334   3.394   3.331  1.6596 -1.5496 -0.9304
 4586TIP3    H235250   3.202   3.352   3.270  0.4687  0.1896  0.3311
 4587TIP3   OH235251   2.172   6.792  16.154  0.2929 -0.1418  0.2707
 4587TIP3    H135252   2.203   6.744  16.231  1.0702  0.3274  0.2515
 4587TIP3    H235253   2.108   6.855  16.189  1.4530  0.8322  0.6981
 4588TIP3   OH235254   5.188   1.953   0.620  0.0587  0.0467 -0.2078
 4588TIP3    H135255   5.273   1.930   0.583 -0.7225  1.3174 -3.0038
 4588TIP3    H235256   5.209   1.988   0.707  2.4113  0.5469 -0.9146
 4589TIP3   OH235257   0.276   4.566   4.055 -0.4528  0.0914 -0.4325
 4589TIP3    H135258   0.245   4.501   4.117 -0.6109 -0.7621 -1.3963
 4589TIP3    H235259   0.354   4.603   4.097  0.3627 -1.5761 -0.3994
 4590TIP3   OH235260   0.252   5.407  13.063  0.2062 -0.4988 -0.0731
 4590TIP3    H135261   0.218   5.363  13.141  1.3217 -0.4933  0.4429
 4590TIP3    H235262   0.286   5.337  13.008 -1.1146 -0.5522 -0.8424
 4591TIP3   OH235263   0.103   5.956   5.607 -0.3414  0.6774 -0.3662
 4591TIP3    H135264   0.070   5.890   5.668 -0.4342  0.8096 -0.2745
 4591TIP3    H235265   0.033   5.968   5.544  0.1393 -0.2024 -1.0940
 4592TIP3   OH235266   3.374   3.804  14.527  0.6340  0.6203  0.4398
 4592TIP3    H135267   3.331   3.779  14.445  2.6425  0.3376 -0.6047
 4592TIP3    H235268   3.305   3.801  14.593 -0.3928 -2.4085 -0.6249
 4593TIP3   OH235269   5.249   1.991  14.654  0.5501 -0.2786  0.0927
 4593TIP3    H135270   5.336   1.992  14.613  0.3693 -0.9464 -0.3116
 4593TIP3    H235271   5.238   1.902  14.685  0.3415  0.0155  0.8831
 4594TIP3   OH235272   4.265   5.149   3.570 -0.2586  0.2194 -0.6080
 4594TIP3    H135273   4.355   5.173   3.548 -0.5433  0.9359 -1.0266
 4594TIP3    H235274   4.273   5.065   3.617  0.5973  0.1438 -0.8731
 4595TIP3   OH235275   3.494   5.119   0.640  0.5922 -0.5763 -1.3868
 4595TIP3    H135276   3.422   5.181   0.631 -0.7677 -2.0048 -0.7584
 4595TIP3    H235277   3.477   5.053   0.573 -1.2302 -3.2487  1.4524
 4596TIP3   OH235278   1.329   0.366   2.514 -0.3190 -0.4021  1.0476
 4596TIP3    H135279   1.339   0.452   2.554 -0.7710 -0.1892  0.7168
 4596TIP3    H235280   1.242   0.336   2.542 -1.6629  0.7283 -1.5292
 4597TIP3   OH235281   2.897   5.383   0.041 -0.0481  0.3210  0.4019
 4597TIP3    H135282   2.860   5.319  -0.021  2.6278 -2.7946  1.7091
 4597TIP3    H235283   2.980   5.410   0.002 -0.6834  2.3738  0.3536
 4598TIP3   OH235284   6.583   3.027   2.219  0.1636 -0.8185  0.1749
 4598TIP3    H135285   6.559   3.073   2.299 -1.7394  0.2273 -0.9192
 4598TIP3    H235286   6.635   2.952   2.249 -0.0860 -0.1918  2.3252
 4599TIP3   OH235287   6.022   6.478   4.587  0.6349  0.7402 -0.2165
 4599TIP3    H135288   5.940   6.510   4.625 -0.3049 -0.0496 -1.4921
 4599TIP3    H235289   6.033   6.391   4.624 -0.3721 -0.1001 -1.7920
 4600TIP3   OH235290   1.311   5.697   0.905  0.1878  0.5779  0.3896
 4600TIP3    H135291   1.379   5.716   0.842  0.0814  0.4567  0.2372
 4600TIP3    H235292   1.327   5.758   0.977  0.7537  0.2140  0.5782
 4601TIP3   OH235293   2.926   6.703   5.684  0.0664  0.4504  0.0319
 4601TIP3    H135294   2.851   6.748   5.723 -0.0959 -0.1135  0.3749
 4601TIP3    H235295   2.968   6.770   5.630 -0.6787  0.7709 -0.1619
 4602TIP3   OH235296   5.081   2.219  11.736 -0.1957  0.0550 -0.1239
 4602TIP3    H135297   5.031   2.281  11.789 -0.4402  0.5378 -0.9104
 4602TIP3    H235298   5.019   2.149  11.716  0.1215 -0.5303  0.8857
 4603TIP3   OH235299   5.458   2.002  13.439 -0.2023  0.4157 -0.3058
 4603TIP3    H135300   5.446   1.941  13.512  0.6583 -0.7213 -1.0862
 4603TIP3    H235301   5.480   1.947  13.364 -1.8036  1.4969 -1.6379
 4604TIP3   OH235302   6.580   0.060  12.400 -0.0175 -0.0207  0.1182
 4604TIP3    H135303   6.541   0.132  12.352  0.2041 -0.1268 -0.2188
 4604TIP3    H235304   6.674   0.066  12.383  0.0862  0.0399  0.6652
 4605TIP3   OH235305   0.110   2.210   0.051  0.2711  0.1926 -0.0250
 4605TIP3    H135306   0.141   2.266   0.122  1.1265 -1.5061  1.0107
 4605TIP3    H235307   0.114   2.266  -0.027  1.1055  1.5474  0.9385
 4606TIP3   OH235308   3.439   2.201   4.342 -0.4417 -0.5668  0.2443
 4606TIP3    H135309   3.469   2.266   4.407 -1.2953 -0.6550  0.7468
 4606TIP3    H235310   3.489   2.122   4.362 -0.1225 -0.3578  0.2794
 4607TIP3   OH235311   3.096   2.412   0.889 -0.5971  0.1249  0.4793
 4607TIP3    H135312   3.042   2.466   0.832 -0.9236 -1.3260 -0.6474
 4607TIP3    H235313   3.097   2.459   0.973 -1.2240  1.6113 -0.3142
 4608TIP3   OH235314   5.785   6.305  10.322 -0.4659 -0.3071 -0.2143
 4608TIP3    H135315   5.802   6.212  10.339 -0.2493 -0.0387  1.1429
 4608TIP3    H235316   5.861   6.334  10.271 -0.7446 -0.9617 -1.0261
 4609TIP3   OH235317   4.586   5.377  14.225 -0.2275  0.0895  0.3033
 4609TIP3    H135318   4.594   5.289  14.262  0.1572  0.1519  0.3695
 4609TIP3    H235319   4.641   5.431  14.282  0.6760  0.1213 -0.5870
 4610TIP3   OH235320   5.566   2.229   4.930 -0.0451 -0.1156 -0.2770
 4610TIP3    H135321   5.483   2.270   4.953  0.5685  0.3649  1.1470
 4610TIP3    H235322   5.558   2.209   4.836 -1.7118  0.0082 -0.1811
 4611TIP3   OH235323   3.543   5.461   2.728 -0.0668 -0.1983 -0.3941
 4611TIP3    H135324   3.542   5.379   2.777 -0.6755 -0.4894 -0.8587
 4611TIP3    H235325   3.635   5.484   2.719  0.0282  0.4491  1.8028
 4612TIP3   OH235326   4.092   1.210  16.087 -0.1945  0.5935  0.8623
 4612TIP3    H135327   4.111   1.285  16.144 -0.2460  0.3890  1.1473
 4612TIP3    H235328   4.161   1.147  16.106 -0.4191  0.3768  0.9619
 4613TIP3   OH235329   2.552   1.093  13.047 -0.2630 -0.2394  0.4874
 4613TIP3    H135330   2.461   1.110  13.023 -0.1048 -1.4675 -1.0932
 4613TIP3    H235331   2.599   1.089  12.964  0.9201 -1.3660  1.1827
 4614TIP3   OH235332   0.417   4.800  11.698  0.2595  0.8107 -0.2130
 4614TIP3    H135333   0.413   4.733  11.630  0.8952  0.2886  0.2534
 4614TIP3    H235334   0.464   4.759  11.770 -1.7125  0.8125  1.1550
 4615TIP3   OH235335   2.940   6.710  12.109  0.1569 -0.1409  0.6253
 4615TIP3    H135336   2.948   6.765  12.186  1.2558 -0.4527  0.7564
 4615TIP3    H235337   2.846   6.691  12.102 -0.2020  1.4852  0.7341
 4616TIP3   OH235338   4.562   4.375   0.244 -0.0877 -0.0038 -0.6755
 4616TIP3    H135339   4.623   4.304   0.261  1.3564  0.9746 -1.4924
 4616TIP3    H235340   4.476   4.333   0.242  0.7535 -1.8123 -1.6003
 4617TIP3   OH235341   0.423   5.185  12.787  0.3126 -0.4256  0.0525
 4617TIP3    H135342   0.465   5.236  12.718  1.3662 -1.9510 -0.4856
 4617TIP3    H235343   0.331   5.214  12.786  0.7214  0.9132 -0.6998
 4618TIP3   OH235344   3.011   3.755   3.800 -0.3861  0.6150 -0.2728
 4618TIP3    H135345   3.042   3.842   3.824  1.3814 -0.3857  1.2943
 4618TIP3    H235346   3.066   3.729   3.727 -0.7591  0.6856 -0.5872
 4619TIP3   OH235347   0.962   3.991   3.432  0.1825  0.3121  0.1196
 4619TIP3    H135348   1.012   4.050   3.488 -1.2400  0.0151  1.7756
 4619TIP3    H235349   0.964   3.907   3.477 -0.3818 -0.1353 -0.6585
 4620TIP3   OH235350   0.314   2.836  14.482 -0.2509 -0.1682 -0.1331
 4620TIP3    H135351   0.254   2.775  14.526  0.8863 -3.2544 -2.4026
 4620TIP3    H235352   0.391   2.838  14.538  0.3227 -2.2549 -0.7385
 4621TIP3   OH235353   2.887   5.093   3.537 -0.2504  0.1448  0.4639
 4621TIP3    H135354   2.819   5.146   3.577 -1.0710 -0.5298 -0.0101
 4621TIP3    H235355   2.969   5.132   3.568 -0.8238 -0.1642  2.5514
 4622TIP3   OH235356   6.035   3.716   1.777 -0.6435  0.1102  0.6290
 4622TIP3    H135357   6.067   3.659   1.708  3.5507  0.9621  1.5795
 4622TIP3    H235358   6.087   3.693   1.854 -2.2039  1.9813  2.3840
 4623TIP3   OH235359   5.667   1.132   4.691  0.2010  0.6645  0.4019
 4623TIP3    H135360   5.624   1.186   4.624 -0.7377 -0.5258  0.0041
 4623TIP3    H235361   5.720   1.070   4.640 -0.3319 -0.0957  0.7597
 4624TIP3   OH235362   4.523   6.235  17.284  0.8100  0.3962 -0.3236
 4624TIP3    H135363   4.463   6.178  17.235  2.0885  0.0079 -1.4963
 4624TIP3    H235364   4.524   6.197  17.372  0.6273 -0.6120 -0.7384
 4625TIP3   OH235365   4.967   3.050   2.569  0.0487  0.6685 -0.0219
 4625TIP3    H135366   4.995   2.975   2.621 -0.6748  0.2172 -0.2632
 4625TIP3    H235367   5.033   3.058   2.501  0.4546  0.6307  0.3604
 4626TIP3   OH235368   4.386   3.603   1.185 -0.0848  0.1919 -0.6676
 4626TIP3    H135369   4.320   3.555   1.135 -1.6394  0.8742  0.6473
 4626TIP3    H235370   4.338   3.639   1.260  1.6124  1.4345 -0.1187
 4627TIP3   OH235371   4.854   0.710   2.244  0.6846 -0.0239  0.2736
 4627TIP3    H135372   4.868   0.707   2.149  1.3096  0.2225  0.3538
 4627TIP3    H235373   4.816   0.625   2.265 -1.2468  0.5876 -0.4623
 4628TIP3   OH235374   3.245   5.255  13.663  0.2819 -0.3159 -0.0886
 4628TIP3    H135375   3.195   5.197  13.604 -3.5742  1.0596  1.4629
 4628TIP3    H235376   3.225   5.222  13.751  1.1016  1.1060  0.6561
 4629TIP3   OH235377   4.423   1.252   1.679 -0.1551  0.0038 -0.1576
 4629TIP3    H135378   4.426   1.166   1.722 -0.1914  0.2181  0.2826
 4629TIP3    H235379   4.379   1.235   1.596 -3.9242  0.2488  1.5742
 4630TIP3   OH235380   6.044   6.765   4.717 -0.8390  0.0780 -0.6942
 4630TIP3    H135381   6.022   6.676   4.744 -0.7661 -0.9903 -3.8056
 4630TIP3    H235382   6.139   6.771   4.729 -1.1062  0.7241  1.8730
 4631TIP3   OH235383   2.981   0.808  10.994  0.0092  0.5982 -0.0965
 4631TIP3    H135384   3.045   0.799  10.924  0.4869  0.0349  0.3949
 4631TIP3    H235385   3.028   0.780  11.073 -1.2126 -1.0218  0.0915
 4632TIP3   OH235386   4.677   3.203  17.067 -0.3034  0.2043  0.3794
 4632TIP3    H135387   4.701   3.294  17.049 -0.5186 -0.1143 -1.8501
 4632TIP3    H235388   4.595   3.190  17.019  0.9149 -1.7591 -1.3650
 4633TIP3   OH235389   6.474   5.126  14.374 -0.2726  0.7984 -0.0030
 4633TIP3    H135390   6.407   5.062  14.350  1.1891  0.0577 -2.4307
 4633TIP3    H235391   6.450   5.205  14.324  0.3874  0.6658 -0.5481
 4634TIP3   OH235392   2.404   2.079   3.228 -0.3453 -0.1634 -0.2821
 4634TIP3    H135393   2.379   1.989   3.208  1.0668 -1.0977  1.7963
 4634TIP3    H235394   2.334   2.113   3.284  0.5275 -1.0450  1.4012
 4635TIP3   OH235395   5.059   0.802   5.126  0.1387  0.0428 -0.0572
 4635TIP3    H135396   5.135   0.743   5.133 -1.0372 -1.4428  0.8497
 4635TIP3    H235397   4.984   0.743   5.120 -0.9912  1.4824 -0.5974
 4636TIP3   OH235398   2.217   2.038  14.468  0.3897  0.0692  0.5435
 4636TIP3    H135399   2.173   1.958  14.495 -0.4176  0.1845 -0.3642
 4636TIP3    H235400   2.238   2.084  14.550 -0.9388 -0.1197  1.0001
 4637TIP3   OH235401   2.609   1.572   1.418 -0.5332  0.2430 -0.3789
 4637TIP3    H135402   2.569   1.610   1.497  0.2051 -0.5741  0.4093
 4637TIP3    H235403   2.677   1.635   1.393 -0.0301 -0.0170  0.2974
 4638TIP3   OH235404   3.291   6.764   4.382  0.3164  0.3678  0.9580
 4638TIP3    H135405   3.383   6.738   4.387  0.0745 -0.7522  0.1403
 4638TIP3    H235406   3.283   6.840   4.439  1.6130  0.0925  1.5186
 4639TIP3   OH235407   4.366   1.983   1.707  0.5326 -0.9779  0.0988
 4639TIP3    H135408   4.377   1.915   1.774 -0.8906 -0.4440  0.9181
 4639TIP3    H235409   4.288   2.031   1.734  0.8620  0.2873 -1.0811
 4640TIP3   OH235410   1.581   0.126  14.612 -0.1133 -0.2027 -0.2120
 4640TIP3    H135411   1.661   0.142  14.561 -0.4507  0.3247 -0.5855
 4640TIP3    H235412   1.605   0.056  14.673  1.9195  2.5737  2.5250
 4641TIP3   OH235413   6.793   4.080  11.328  0.3154  0.3574  0.0836
 4641TIP3    H135414   6.760   4.128  11.252 -1.3794 -0.3038  0.3375
 4641TIP3    H235415   6.772   3.988  11.310  4.5649 -0.6171 -0.9449
 4642TIP3   OH235416   2.220   5.115  12.200 -0.2574 -0.3341 -0.1870
 4642TIP3    H135417   2.313   5.140  12.199 -0.5186  1.0089  2.0454
 4642TIP3    H235418   2.173   5.196  12.182 -1.0576 -1.1619 -2.1008
 4643TIP3   OH235419   2.598   5.320  16.752  0.0724 -0.0882  0.0107
 4643TIP3    H135420   2.523   5.335  16.695 -0.3546 -1.8134  0.0709
 4643TIP3    H235421   2.640   5.406  16.759 -1.5011  0.7714 -0.5522
 4644TIP3   OH235422   3.282   2.319   2.751  0.1034 -0.1204  0.3675
 4644TIP3    H135423   3.189   2.309   2.773  0.2090 -0.7775  0.5258
 4644TIP3    H235424   3.282   2.354   2.662 -0.3070  1.0615  0.8128
 4645TIP3   OH235425   0.803   2.229  17.132  1.0118  0.2290 -0.4251
 4645TIP3    H135426   0.803   2.186  17.046 -5.0463  0.7430 -1.0641
 4645TIP3    H235427   0.788   2.158  17.194 -1.0349  0.4618 -0.6039
 4646TIP3   OH235428   6.643   3.032   1.013  0.5381 -0.3113 -0.4439
 4646TIP3    H135429   6.673   3.032   0.922  1.6518 -0.9770 -0.0911
 4646TIP3    H235430   6.723   3.046   1.064 -0.2798  1.6887  0.3819
 4647TIP3   OH235431   2.960   6.448   5.531  0.0445 -0.3451  0.1575
 4647TIP3    H135432   2.904   6.445   5.609 -0.9682  0.8571 -0.4785
 4647TIP3    H235433   2.994   6.538   5.530  0.3714 -0.4711 -0.5712
 4648TIP3   OH235434   3.956   1.733   0.800 -0.2865 -0.7202  0.5410
 4648TIP3    H135435   3.925   1.798   0.737  1.6001 -1.7235 -1.5602
 4648TIP3    H235436   3.883   1.672   0.809 -0.9438 -0.0151  0.0873
 4649TIP3   OH235437   4.830   1.911   0.181 -0.2309 -0.4374 -0.0697
 4649TIP3    H135438   4.874   1.834   0.145 -0.9403 -0.5515 -0.7109
 4649TIP3    H235439   4.872   1.925   0.266 -0.7612 -2.1109  0.5047
 4650TIP3   OH235440   6.509   3.857   6.165 -0.0009 -0.2671 -0.0551
 4650TIP3    H135441   6.519   3.803   6.243 -1.2648 -0.7226 -0.1938
 4650TIP3    H235442   6.484   3.943   6.199  0.4181 -0.1964  0.0822
 4651TIP3   OH235443   3.490   4.667  11.177  0.2579 -0.6048  0.2512
 4651TIP3    H135444   3.507   4.739  11.238 -1.8461 -1.3677  1.8381
 4651TIP3    H235445   3.427   4.703  11.114  0.6108 -0.5340 -0.0670
 4652TIP3   OH235446   5.574   1.653  15.191 -0.0911 -0.0064 -0.0967
 4652TIP3    H135447   5.576   1.681  15.100  0.3924 -2.1861 -0.8195
 4652TIP3    H235448   5.487   1.612  15.202 -1.2348  2.5438  1.2412
 4653TIP3   OH235449   1.084   5.573   1.947  0.0543 -0.0363 -0.4323
 4653TIP3    H135450   1.005   5.587   1.895  0.6275 -0.3173 -1.4094
 4653TIP3    H235451   1.090   5.651   2.003  1.7025  2.5734 -3.8419
 4654TIP3   OH235452   1.420   4.478   2.742  0.2706  0.2071 -0.2113
 4654TIP3    H135453   1.447   4.564   2.772  1.1221 -0.2261  0.2959
 4654TIP3    H235454   1.359   4.496   2.670  0.6860  1.2177 -0.3296
 4655TIP3   OH235455   2.377   2.204  10.811 -0.0105 -0.1133  0.1717
 4655TIP3    H135456   2.468   2.211  10.840  0.9076  0.2039 -2.5536
 4655TIP3    H235457   2.358   2.110  10.815  0.6385 -0.2489  0.1494
 4656TIP3   OH235458   2.223   2.658  14.768  0.0071 -0.4405  0.5337
 4656TIP3    H135459   2.188   2.663  14.679  1.5031  1.4360 -0.0136
 4656TIP3    H235460   2.242   2.565  14.781 -1.4630 -0.9356 -0.5852
 4657TIP3   OH235461   6.379   0.790  15.666 -0.4488 -0.6307  0.0596
 4657TIP3    H135462   6.401   0.811  15.576 -3.1385  1.1723 -0.3033
 4657TIP3    H235463   6.384   0.875  15.712 -0.5031 -1.2648  1.2783
 4658TIP3   OH235464   0.479   5.465   6.410 -0.0646  0.2933  0.4226
 4658TIP3    H135465   0.493   5.372   6.428 -1.3008  0.3143  1.6567
 4658TIP3    H235466   0.419   5.466   6.335 -2.2133  0.0000  2.0585
 4659TIP3   OH235467   4.889   0.441  13.054  0.0197  0.1218  0.3577
 4659TIP3    H135468   4.834   0.517  13.072  1.7641  1.3115  0.8898
 4659TIP3    H235469   4.975   0.477  13.033  1.1525 -1.7057  1.5492
 4660TIP3   OH235470   2.131   5.487  11.448 -0.1212 -0.2854 -0.2048
 4660TIP3    H135471   2.214   5.494  11.400 -0.1249 -0.0973 -0.1817
 4660TIP3    H235472   2.065   5.519  11.388 -0.6195 -3.2635 -1.4166
 4661TIP3   OH235473   2.779   1.551  14.256 -0.0996 -0.1744 -0.4148
 4661TIP3    H135474   2.766   1.636  14.298  0.6570  0.2216 -0.9609
 4661TIP3    H235475   2.739   1.488  14.317 -2.1683  0.7054 -0.7853
 4662TIP3   OH235476   0.627   2.939  12.639 -0.2840  0.1966  0.5089
 4662TIP3    H135477   0.571   2.935  12.563  0.5242  0.8280 -0.1481
 4662TIP3    H235478   0.598   2.868  12.696 -1.1200 -0.0577 -0.2296
 4663TIP3   OH235479   4.439   5.651  14.834  0.4622 -0.0474  0.4063
 4663TIP3    H135480   4.522   5.660  14.786 -0.7234  0.3122 -1.6862
 4663TIP3    H235481   4.439   5.724  14.895  1.8724 -0.3072  0.7495
 4664TIP3   OH235482   3.951   0.060  13.974  0.4080  0.6929  0.2395
 4664TIP3    H135483   4.031   0.109  13.957 -0.1203  2.2431  1.8519
 4664TIP3    H235484   3.888   0.094  13.911  0.5931  0.6204  0.0155
 4665TIP3   OH235485   2.132   3.960  11.594  0.3087  0.4132 -0.9038
 4665TIP3    H135486   2.208   3.990  11.544  1.0382  2.1697  1.1286
 4665TIP3    H235487   2.127   4.019  11.669 -0.8935 -1.9218  0.9992
 4666TIP3   OH235488   0.452   4.368  12.727 -0.6320  1.1709  0.0358
 4666TIP3    H135489   0.453   4.413  12.811  0.9931 -0.3950  0.9103
 4666TIP3    H235490   0.378   4.307  12.733 -2.1342  2.8460 -0.7208
 4667TIP3   OH235491   5.019   6.604   5.690  0.5335  0.1621 -0.2137
 4667TIP3    H135492   5.027   6.553   5.770 -0.4376 -0.7002 -0.6442
 4667TIP3    H235493   5.020   6.539   5.620  0.0302  0.8002 -0.8272
 4668TIP3   OH235494   2.336   3.915  16.477  0.5024  0.2652 -0.2664
 4668TIP3    H135495   2.375   3.939  16.561 -1.5265 -0.1728  0.9018
 4668TIP3    H235496   2.252   3.875  16.502 -0.2854  0.3900 -2.5334
 4669TIP3   OH235497   3.281   3.236  14.180  0.8454 -0.2840  0.1257
 4669TIP3    H135498   3.188   3.261  14.178  1.0787  0.5743 -0.5837
 4669TIP3    H235499   3.279   3.140  14.179 -0.0368 -0.2872  0.7207
 4670TIP3   OH235500   0.359   2.681   1.607 -0.2264 -0.3496 -0.1723
 4670TIP3    H135501   0.440   2.726   1.582 -0.9012  0.4594 -0.9409
 4670TIP3    H235502   0.310   2.671   1.525 -2.0032  1.3749  0.5963
 4671TIP3   OH235503   6.085   0.903  12.351  0.2664 -0.2748 -0.0462
 4671TIP3    H135504   6.101   0.992  12.317 -1.2431  0.5124  1.1855
 4671TIP3    H235505   6.038   0.859  12.280 -1.4840  0.8573  0.3331
 4672TIP3   OH235506   6.196   2.832   1.873 -0.0482  0.0351 -0.4128
 4672TIP3    H135507   6.172   2.793   1.957 -0.2233  1.1080  0.0594
 4672TIP3    H235508   6.260   2.900   1.896 -0.9157  1.0782 -1.0111
 4673TIP3   OH235509   4.877   6.223   4.842  0.1510 -0.5149 -0.2544
 4673TIP3    H135510   4.809   6.278   4.804  1.6020  2.3868  1.0083
 4673TIP3    H235511   4.918   6.278   4.909  1.9857 -3.0721  0.9251
 4674TIP3   OH235512   1.486   2.495   3.150  1.1001  0.6493  0.4042
 4674TIP3    H135513   1.394   2.474   3.167  1.3867 -0.3118  0.8098
 4674TIP3    H235514   1.487   2.590   3.138  0.0912  0.6939  0.6131
 4675TIP3   OH235515   2.522   1.781  12.193  0.1650 -0.3301 -0.3203
 4675TIP3    H135516   2.549   1.695  12.159  1.3713  0.2644 -0.9196
 4675TIP3    H235517   2.520   1.769  12.288 -0.0782 -1.1302 -0.4179
 4676TIP3   OH235518   6.575   0.534  14.794 -0.0173  0.3441  0.6666
 4676TIP3    H135519   6.542   0.545  14.883 -1.7401 -1.2541  0.2980
 4676TIP3    H235520   6.519   0.466  14.756  2.6615 -1.3013 -0.6277
 4677TIP3   OH235521   5.311   4.886  16.856 -0.4857 -0.6385  0.1033
 4677TIP3    H135522   5.334   4.970  16.816 -0.9184 -0.1943  0.7737
 4677TIP3    H235523   5.321   4.901  16.950 -0.4149 -1.3899  0.2248
 4678TIP3   OH235524   3.680   1.616  15.994  0.4012 -0.3272 -0.3085
 4678TIP3    H135525   3.628   1.536  15.986 -0.1928  0.0248  0.0404
 4678TIP3    H235526   3.714   1.614  16.083 -1.9676  1.2210  0.7093
 4679TIP3   OH235527   0.158   0.966  16.802 -0.5034  0.1876  0.0622
 4679TIP3    H135528   0.209   0.999  16.728  0.3881 -2.2064 -0.4810
 4679TIP3    H235529   0.070   0.999  16.787  0.2543  2.1621 -0.4475
 4680TIP3   OH235530   3.874   2.798  11.160 -0.0514  0.3338 -0.3287
 4680TIP3    H135531   3.814   2.862  11.122  0.3184  1.1716  0.4603
 4680TIP3    H235532   3.937   2.779  11.090 -0.6305  0.2278 -0.8227
 4681TIP3   OH235533   3.817   5.121  16.149 -0.0226 -0.1844  0.3428
 4681TIP3    H135534   3.875   5.083  16.082  0.5822 -0.5976  1.0897
 4681TIP3    H235535   3.741   5.063  16.151 -0.5169  0.3883 -0.6822
 4682TIP3   OH235536   3.052   2.596  16.858  0.3134 -0.0162 -0.4705
 4682TIP3    H135537   3.085   2.618  16.772 -1.4766 -0.9787 -1.4648
 4682TIP3    H235538   3.020   2.679  16.894  2.0863  0.5975 -0.2049
 4683TIP3   OH235539   3.424   6.059  11.218  0.5354 -0.2483 -0.6254
 4683TIP3    H135540   3.382   5.988  11.266 -1.8653  1.4199 -0.0910
 4683TIP3    H235541   3.395   6.139  11.262  4.3642  1.1345 -0.2167
 4684TIP3   OH235542   2.218   6.825  14.186 -0.1055  0.1550  0.2231
 4684TIP3    H135543   2.186   6.856  14.101 -1.0746  0.8244  0.8095
 4684TIP3    H235544   2.309   6.854  14.190  0.0898 -0.3000 -0.7827
 4685TIP3   OH235545   4.499   6.602  14.814 -0.0621 -0.5420  0.1355
 4685TIP3    H135546   4.428   6.544  14.787 -0.1886 -0.4284  0.2273
 4685TIP3    H235547   4.462   6.654  14.885 -0.6325  1.1273 -1.2955
 4686TIP3   OH235548   2.389   1.262   3.948 -0.6128 -0.1685 -0.5407
 4686TIP3    H135549   2.452   1.330   3.924  1.8322 -1.8824  0.6507
 4686TIP3    H235550   2.410   1.188   3.891  0.3001 -1.6823  1.6326
 4687TIP3   OH235551   5.668   5.980   1.863  0.2973  0.0804 -0.7527
 4687TIP3    H135552   5.617   5.907   1.897  0.8153  0.9715  2.1983
 4687TIP3    H235553   5.759   5.958   1.882  0.7408  0.2425 -2.4756
 4688TIP3   OH235554   6.343   1.282   2.335 -0.3516 -0.6400 -0.5757
 4688TIP3    H135555   6.363   1.373   2.353  1.0980 -1.2899  1.4743
 4688TIP3    H235556   6.294   1.284   2.253 -2.9430  2.2435  0.8136
 4689TIP3   OH235557   3.123   4.774   5.012 -0.5616 -0.0637 -0.0337
 4689TIP3    H135558   3.093   4.799   4.925  0.1662 -0.4164 -0.4002
 4689TIP3    H235559   3.115   4.853   5.065  2.1079  1.1444 -1.2670
 4690TIP3   OH235560   1.396   6.513  11.155  0.2779 -0.0720  0.2127
 4690TIP3    H135561   1.348   6.461  11.092 -2.0642  0.4590  1.4465
 4690TIP3    H235562   1.457   6.565  11.103 -1.8638  0.6821 -1.6805
 4691TIP3   OH235563   1.444   5.367   0.433 -0.1368 -0.2901 -0.3833
 4691TIP3    H135564   1.382   5.385   0.362  0.5059 -1.3443 -1.2414
 4691TIP3    H235565   1.389   5.339   0.506 -0.7141 -0.6607 -0.9522
 4692TIP3   OH235566   0.163   2.805   0.126  0.1740 -0.0335  0.0121
 4692TIP3    H135567   0.076   2.779   0.094  0.6071 -1.4110 -0.1225
 4692TIP3    H235568   0.218   2.800   0.048  0.4965  0.2449  0.2241
 4693TIP3   OH235569   6.315   0.278  17.163 -0.4357 -0.5934 -0.3428
 4693TIP3    H135570   6.230   0.234  17.172  0.2070 -1.6686  0.8990
 4693TIP3    H235571   6.347   0.250  17.077 -1.0450 -0.7115 -0.5400
 4694TIP3   OH235572   5.539   5.397  16.610  0.5006  0.2778  0.5106
 4694TIP3    H135573   5.456   5.389  16.657  0.3768  1.5441  0.5396
 4694TIP3    H235574   5.606   5.391  16.678  0.4451 -0.6511  0.4999
 4695TIP3   OH235575   5.055   0.328   5.906 -0.5261  0.0926 -0.0690
 4695TIP3    H135576   5.092   0.240   5.914  0.2500  0.5651  2.8609
 4695TIP3    H235577   5.131   0.386   5.900 -0.9241  0.7213  0.7228
 4696TIP3   OH235578   6.582   2.314  12.736  0.6603  0.1155 -0.6580
 4696TIP3    H135579   6.583   2.380  12.804  3.3168  1.8996 -2.2424
 4696TIP3    H235580   6.549   2.360  12.658 -0.9451 -1.4696 -0.9733
 4697TIP3   OH235581   0.290   0.505  16.082 -0.3190 -0.0880 -0.0375
 4697TIP3    H135582   0.288   0.515  16.177 -1.6081 -1.3007  0.1092
 4697TIP3    H235583   0.198   0.493  16.058  0.1885 -2.2878 -1.1068
 4698TIP3   OH235584   3.843   3.484  14.556  0.1613 -0.2174  0.2969
 4698TIP3    H135585   3.878   3.534  14.482  1.2090 -0.4277  0.6358
 4698TIP3    H235586   3.845   3.393  14.526 -0.9918 -0.1460 -0.0252
 4699TIP3   OH235587   0.118   5.764  12.742  0.4702  0.0627 -0.3259
 4699TIP3    H135588   0.198   5.739  12.789  0.3719 -0.4800 -0.4481
 4699TIP3    H235589   0.079   5.833  12.797  1.0733  0.4080 -0.3200
 4700TIP3   OH235590   1.400   6.029  15.934 -0.4280 -0.6560  0.3161
 4700TIP3    H135591   1.494   6.017  15.922 -0.5734 -0.9709 -0.5604
 4700TIP3    H235592   1.392   6.071  16.020  0.6688  1.5181 -0.5650
 4701TIP3   OH235593   1.770   5.699   6.709  0.2244 -0.4878 -0.0906
 4701TIP3    H135594   1.724   5.774   6.673  0.3902 -1.3109 -2.1666
 4701TIP3    H235595   1.863   5.723   6.707  0.2901 -0.7811 -0.8985
 4702TIP3   OH235596   3.986   6.309  14.169 -0.6631 -0.6883 -0.5726
 4702TIP3    H135597   3.893   6.291  14.158 -0.4580 -2.7911  0.7054
 4702TIP3    H235598   4.029   6.224  14.164  1.1235  0.1354 -0.2997
 4703TIP3   OH235599   3.527   6.636  11.012  0.7945 -0.0483 -0.3881
 4703TIP3    H135600   3.442   6.593  11.021  0.4104  1.0065  1.4861
 4703TIP3    H235601   3.587   6.565  10.989 -0.2182 -1.1829  0.3146
 4704TIP3   OH235602   4.746   6.239  16.723 -0.9094  0.1621  0.0202
 4704TIP3    H135603   4.785   6.314  16.678 -1.8792  1.1743  0.7860
 4704TIP3    H235604   4.814   6.209  16.783 -0.7562  0.9055  0.2284
 4705TIP3   OH235605   4.879   3.628   0.469  0.2140  0.2093 -0.0843
 4705TIP3    H135606   4.791   3.635   0.507  0.4906  0.1929  0.5609
 4705TIP3    H235607   4.937   3.616   0.544  0.7839  0.3283 -0.5028
 4706TIP3   OH235608   4.944   2.822  11.750 -0.0333  0.0604 -0.6398
 4706TIP3    H135609   4.849   2.824  11.739 -0.2721 -1.9158  0.5488
 4706TIP3    H235610   4.966   2.905  11.791 -1.0642  1.0301 -1.9556
 4707TIP3   OH235611   2.641   4.441   4.824 -0.4313  0.0154 -0.6881
 4707TIP3    H135612   2.681   4.357   4.847 -1.7633 -1.0489 -1.9868
 4707TIP3    H235613   2.704   4.507   4.854  1.9604 -1.5112 -1.9773
 4708TIP3   OH235614   6.630   2.548   6.001 -0.3083  0.4457  0.0757
 4708TIP3    H135615   6.670   2.492   6.067 -0.4869  0.1821 -0.0353
 4708TIP3    H235616   6.546   2.575   6.039 -0.7995 -0.3858 -0.3629
 4709TIP3   OH235617   5.646   4.174   0.567 -0.2048  0.0196  1.0474
 4709TIP3    H135618   5.721   4.115   0.577  0.3797  0.4659 -0.5683
 4709TIP3    H235619   5.655   4.236   0.640  1.3802  0.4798  0.4894
 4710TIP3   OH235620   0.490   0.410   0.286 -0.0430  0.1900  0.3853
 4710TIP3    H135621   0.491   0.374   0.197 -1.3936 -0.0014  0.4163
 4710TIP3    H235622   0.401   0.393   0.317  0.8304 -1.1274  2.3543
 4711TIP3   OH235623   3.089   5.882  13.654 -0.1218 -0.3390 -0.4836
 4711TIP3    H135624   3.001   5.918  13.645  0.1213  0.2108 -0.7383
 4711TIP3    H235625   3.084   5.826  13.731 -0.8801 -0.8959 -0.9235
 4712TIP3   OH235626   6.174   4.405   4.666  0.0992 -0.2439 -0.3259
 4712TIP3    H135627   6.090   4.384   4.626 -1.4004  0.9471  1.9569
 4712TIP3    H235628   6.239   4.369   4.606 -2.0324 -2.8644 -1.2788
 4713TIP3   OH235629   1.216   3.815   1.873 -0.9057 -0.6965 -0.4013
 4713TIP3    H135630   1.245   3.735   1.830  1.5111  0.8694 -1.8859
 4713TIP3    H235631   1.232   3.884   1.809 -1.2844  1.2155  1.4573
 4714TIP3   OH235632   3.805   0.396   4.630  0.3730  0.1161 -0.2800
 4714TIP3    H135633   3.834   0.359   4.713  1.4081  0.4457 -0.4828
 4714TIP3    H235634   3.843   0.338   4.563 -0.5754 -0.2384 -0.5333
 4715TIP3   OH235635   4.965   3.898   4.003 -0.1776 -1.3145  0.1484
 4715TIP3    H135636   4.928   3.816   4.036 -1.6238 -0.9957 -0.5819
 4715TIP3    H235637   5.034   3.871   3.943 -0.8848 -2.0140 -0.3662
 4716TIP3   OH235638   2.387   0.357   1.656  0.6006  0.0395 -0.2246
 4716TIP3    H135639   2.455   0.425   1.662 -1.0546  1.6657  1.7494
 4716TIP3    H235640   2.311   0.395   1.700 -2.1106 -1.1446 -3.4494
 4717TIP3   OH235641   3.784   4.430   3.194  0.0430 -0.0565  0.1896
 4717TIP3    H135642   3.741   4.351   3.226 -1.0108  0.5198  0.2718
 4717TIP3    H235643   3.803   4.480   3.273  0.2846 -0.0276  0.1118
 4718TIP3   OH235644   3.903   0.694   3.424 -0.0815 -0.7210  0.1998
 4718TIP3    H135645   3.950   0.631   3.370 -0.6824 -1.0721  0.0838
 4718TIP3    H235646   3.859   0.641   3.490 -0.6784 -0.4422  0.0368
 4719TIP3   OH235647   1.848   0.892  11.937  0.0735 -0.3800 -0.0972
 4719TIP3    H135648   1.805   0.849  12.011  0.1922 -1.1634 -0.4754
 4719TIP3    H235649   1.861   0.982  11.967 -0.5260 -0.4967  0.5644
 4720TIP3   OH235650   1.971   4.761   4.376  0.2422 -0.8051  0.2031
 4720TIP3    H135651   2.066   4.755   4.379  0.4529  0.5564 -2.1559
 4720TIP3    H235652   1.944   4.698   4.309 -0.2974  0.3831 -0.7320
 4721TIP3   OH235653   1.212   4.859  13.436  0.1376 -0.3827  0.2827
 4721TIP3    H135654   1.242   4.787  13.381  0.9437  1.2963 -1.5989
 4721TIP3    H235655   1.292   4.894  13.476  0.2887  1.6694 -1.6740
 4722TIP3   OH235656   1.259   2.591   5.473  0.2256  0.4050 -0.1792
 4722TIP3    H135657   1.279   2.601   5.567  0.7600 -0.7774 -0.1509
 4722TIP3    H235658   1.314   2.656   5.430  0.1070  0.8393  0.3119
 4723TIP3   OH235659   4.441   6.499   0.369  0.0063 -0.4143  0.6631
 4723TIP3    H135660   4.427   6.589   0.398 -0.8769 -0.2607 -0.1976
 4723TIP3    H235661   4.373   6.449   0.413 -1.8814 -0.0524 -1.6318
 4724TIP3   OH235662   2.129   0.088  15.346  0.2183 -0.5482  0.4152
 4724TIP3    H135663   2.207   0.117  15.392 -0.2193  0.6881  0.4088
 4724TIP3    H235664   2.160   0.065  15.258  0.7895 -1.4072  0.8294
 4725TIP3   OH235665   6.049   2.973  15.952  0.0915 -0.0635  0.2259
 4725TIP3    H135666   6.013   2.990  15.865  0.3817 -0.2870  0.0604
 4725TIP3    H235667   6.142   2.990  15.944  0.0506  0.3580  0.6150
 4726TIP3   OH235668   4.784   4.697   2.817 -0.1156  0.1870 -0.1396
 4726TIP3    H135669   4.810   4.751   2.892  1.3133 -0.6210 -0.0220
 4726TIP3    H235670   4.855   4.708   2.754 -0.6953 -0.1423 -0.8619
 4727TIP3   OH235671   5.118   3.782  14.545 -0.2669  0.0035  0.2171
 4727TIP3    H135672   5.026   3.806  14.550  0.4813  3.5023 -0.2106
 4727TIP3    H235673   5.125   3.702  14.598 -3.2789  0.3727  1.3598
 4728TIP3   OH235674   0.697   5.706  15.090 -0.1195 -0.0174 -0.2290
 4728TIP3    H135675   0.602   5.695  15.098 -0.0897  0.7990  1.6531
 4728TIP3    H235676   0.724   5.747  15.172  1.4459  2.5769 -1.8709
 4729TIP3   OH235677   5.938   0.544   0.132 -0.1471  0.8231  0.1583
 4729TIP3    H135678   5.921   0.506   0.045 -0.5507  1.6378 -0.1235
 4729TIP3    H235679   5.935   0.638   0.118  2.5270  1.0312  0.5077
 4730TIP3   OH235680   0.548   0.658  12.256 -0.1613 -0.3729 -0.4017
 4730TIP3    H135681   0.641   0.640  12.271  0.5724  2.2383 -1.2335
 4730TIP3    H235682   0.527   0.728  12.319 -1.4413 -0.6176 -0.5365
 4731TIP3   OH235683   2.781   0.982   3.286 -0.0169 -0.2776  0.3074
 4731TIP3    H135684   2.868   1.017   3.270  0.6440 -1.5863  0.8957
 4731TIP3    H235685   2.741   1.042   3.348  1.0437 -0.4813  1.2153
 4732TIP3   OH235686   1.151   2.250   3.608  0.0538 -0.2656 -0.2875
 4732TIP3    H135687   1.188   2.217   3.525  0.5592  1.0776 -0.6268
 4732TIP3    H235688   1.191   2.336   3.619 -0.8567  0.0367  0.8121
 4733TIP3   OH235689   6.652   6.773  17.267 -0.4396 -0.1395 -0.4042
 4733TIP3    H135690   6.657   6.861  17.304  0.8297 -0.3142 -0.1507
 4733TIP3    H235691   6.568   6.773  17.220 -0.8939  0.8948  0.3538
 4734TIP3   OH235692   3.054   1.492  13.776  0.4377 -0.0380  0.5770
 4734TIP3    H135693   3.127   1.549  13.751 -0.8374  1.4114  0.0066
 4734TIP3    H235694   3.022   1.529  13.859  0.3665 -0.6879  0.8459
 4735TIP3   OH235695   4.524   0.033  14.098 -0.1638  0.0613  0.1558
 4735TIP3    H135696   4.470  -0.007  14.029 -2.0293  1.2851  0.8124
 4735TIP3    H235697   4.465   0.039  14.173  0.2537  3.1869  0.3623
 4736TIP3   OH235698   0.251   1.496   1.585  0.1875 -0.3805 -0.3445
 4736TIP3    H135699   0.181   1.556   1.562  1.1963  1.3793  0.8616
 4736TIP3    H235700   0.242   1.484   1.680 -0.1630 -2.4318 -0.5882
 4737TIP3   OH235701   1.908   2.205   2.776 -0.0731 -0.1641 -0.1911
 4737TIP3    H135702   1.921   2.143   2.704 -2.8050 -0.6599 -0.3609
 4737TIP3    H235703   1.995   2.217   2.814  0.6716 -3.8995 -0.3476
 4738TIP3   OH235704   0.235   5.500  16.374  0.2285 -0.2600 -0.4514
 4738TIP3    H135705   0.298   5.428  16.365  1.2115  0.5942 -0.5039
 4738TIP3    H235706   0.151   5.461  16.348  0.8186 -1.2698 -0.9157
 4739TIP3   OH235707   0.881   1.290   6.537  0.0309  0.2883  0.3879
 4739TIP3    H135708   0.889   1.382   6.511  0.8161  0.5897  1.6075
 4739TIP3    H235709   0.829   1.292   6.617  0.6554 -0.2615  0.8149
 4740TIP3   OH235710   3.401   1.975   1.510 -0.6347 -0.2609  0.3332
 4740TIP3    H135711   3.409   1.903   1.447 -2.0210 -1.1536  1.1150
 4740TIP3    H235712   3.324   2.024   1.480 -0.7769 -0.1724  0.8345
 4741TIP3   OH235713   2.751   0.071  10.973  0.0995  0.1655  0.4136
 4741TIP3    H135714   2.696  -0.007  10.961  0.1597  0.0175  1.0836
 4741TIP3    H235715   2.770   0.101  10.884 -0.2609 -0.3510  0.1614
 4742TIP3   OH235716   4.234   2.544   0.835  0.1030  0.4725  0.2325
 4742TIP3    H135717   4.254   2.583   0.750 -1.2609 -0.0389 -0.3488
 4742TIP3    H235718   4.218   2.618   0.893  1.9549  0.8572  0.3236
 4743TIP3   OH235719   4.350   0.200  16.734 -0.3566 -0.1665  0.3519
 4743TIP3    H135720   4.398   0.243  16.805 -0.4691  1.4264 -0.5099
 4743TIP3    H235721   4.357   0.107  16.755  3.3604 -0.0838  0.1225
 4744TIP3   OH235722   4.408   0.472  15.783 -0.4599  0.0272  0.1894
 4744TIP3    H135723   4.468   0.546  15.777 -0.9426  0.2798 -2.7531
 4744TIP3    H235724   4.342   0.500  15.847 -0.1684  1.7937 -0.2372
 4745TIP3   OH235725   2.431   3.460  12.842 -0.0076 -0.6971  0.3163
 4745TIP3    H135726   2.511   3.502  12.809  0.7075 -1.7125  0.7197
 4745TIP3    H235727   2.377   3.447  12.765  0.3505 -0.2945 -0.0075
 4746TIP3   OH235728   5.537   2.912  11.904 -0.0775  0.0555  0.2906
 4746TIP3    H135729   5.464   2.861  11.938  0.5083 -0.1807  1.2422
 4746TIP3    H235730   5.590   2.850  11.855 -0.9589  0.4103 -1.1738
 4747TIP3   OH235731   5.165   4.977  12.401 -0.3766  0.8800 -0.2013
 4747TIP3    H135732   5.077   4.950  12.375 -0.4867 -0.3807  1.3825
 4747TIP3    H235733   5.156   5.071  12.417 -1.8857  0.5127  1.5033
 4748TIP3   OH235734   0.520   4.466  17.010 -0.6479  0.7361  0.3447
 4748TIP3    H135735   0.474   4.549  17.024 -0.0503  1.1050  0.1510
 4748TIP3    H235736   0.531   4.429  17.098  1.1419  1.9870  0.6852
 4749TIP3   OH235737   4.791   3.295  11.009 -0.5026 -0.3068 -0.3378
 4749TIP3    H135738   4.719   3.335  10.960  0.1188 -0.7671 -1.6623
 4749TIP3    H235739   4.862   3.358  11.002 -0.6308 -0.0363  0.6332
 4750TIP3   OH235740   1.417   4.381  16.435 -0.4667  0.0524 -0.2544
 4750TIP3    H135741   1.501   4.359  16.476  0.0046  0.6274 -0.8780
 4750TIP3    H235742   1.411   4.476  16.442 -0.3339  0.1802 -1.5397
 4751TIP3   OH235743   3.449   5.090   1.552 -0.0074 -0.4165  0.2395
 4751TIP3    H135744   3.451   5.185   1.560 -0.5284 -0.4038  0.2163
 4751TIP3    H235745   3.538   5.066   1.524 -0.6160  0.2890 -2.5230
 4752TIP3   OH235746   1.084   5.402   5.802  0.1421 -0.0536  0.1940
 4752TIP3    H135747   1.080   5.377   5.894  0.4252 -1.5616 -0.1845
 4752TIP3    H235748   1.063   5.322   5.754  1.1308  0.4116 -1.0779
 4753TIP3   OH235749   0.395   1.267  17.039 -0.0198  0.1570 -0.2823
 4753TIP3    H135750   0.454   1.206  17.083  0.5354 -0.1474 -1.4398
 4753TIP3    H235751   0.307   1.234  17.060  0.2479 -0.2892  0.1568
 4754TIP3   OH235752   3.941   2.320   0.203  0.4855  0.5715  0.4042
 4754TIP3    H135753   3.949   2.277   0.288  1.0509  1.6118  0.8986
 4754TIP3    H235754   3.868   2.275   0.160  0.7108 -0.5041  1.1096
 4755TIP3   OH235755   4.240   4.899  14.782 -0.6063 -0.2837  0.0264
 4755TIP3    H135756   4.234   4.843  14.859 -1.2143  0.7959  0.7809
 4755TIP3    H235757   4.318   4.866  14.736  0.7196  0.0373  1.9017
 4756TIP3   OH235758   6.592   6.026   0.306  0.0504  0.6350  0.6146
 4756TIP3    H135759   6.519   6.086   0.318 -0.2636  0.3307  0.2123
 4756TIP3    H235760   6.614   5.997   0.395  0.1895  1.3141  0.8139
 4757TIP3   OH235761   1.755   2.902   5.123  0.4053  0.0960  0.0808
 4757TIP3    H135762   1.749   2.839   5.194  0.6363  0.7963  0.7376
 4757TIP3    H235763   1.835   2.879   5.076  1.0785  0.5674  0.9784
 4758TIP3   OH235764   3.742   5.123   2.755  0.4347 -0.1686 -0.0128
 4758TIP3    H135765   3.690   5.159   2.826  0.5044 -1.6287  0.8073
 4758TIP3    H235766   3.766   5.035   2.784  1.3005 -0.4347 -1.4180
 4759TIP3   OH235767   2.758   3.196   4.262 -0.9472 -0.5453  0.5438
 4759TIP3    H135768   2.710   3.113   4.260  1.5893 -2.1597  1.5056
 4759TIP3    H235769   2.823   3.187   4.193  1.9649 -1.1920  3.1544
 4760TIP3   OH235770   4.188   2.773   5.605  0.2509  0.1479 -0.2506
 4760TIP3    H135771   4.191   2.847   5.545  0.6362  0.9171  0.6863
 4760TIP3    H235772   4.177   2.813   5.691  2.5812 -0.7238  0.5355
 4761TIP3   OH235773   0.102   1.671  12.160  0.2814 -0.1159 -0.3365
 4761TIP3    H135774   0.008   1.689  12.151  0.0555 -1.2286 -0.3598
 4761TIP3    H235775   0.129   1.725  12.234 -0.5238 -0.2646  0.0867
 4762TIP3   OH235776   2.685   0.242   4.316  0.4283  0.1971  0.3105
 4762TIP3    H135777   2.727   0.324   4.341 -2.2271  1.3164  1.4379
 4762TIP3    H235778   2.703   0.182   4.388 -0.2023  0.7958  0.9809
 4763TIP3   OH235779   4.650   3.743  16.278 -0.0391  0.3279 -0.3808
 4763TIP3    H135780   4.721   3.741  16.214 -0.5795 -0.4739 -0.9690
 4763TIP3    H235781   4.590   3.809  16.245 -0.1401  0.1726 -0.5084
 4764TIP3   OH235782   0.629   4.094  11.062  0.1998 -0.1572  0.1554
 4764TIP3    H135783   0.652   4.156  10.993 -0.5634  1.1310  1.0065
 4764TIP3    H235784   0.534   4.084  11.055 -0.2087  1.5407  2.1899
 4765TIP3   OH235785   2.719   6.019   3.446  0.2546  0.0039 -0.4068
 4765TIP3    H135786   2.802   5.976   3.427  0.2050 -0.0560 -0.4873
 4765TIP3    H235787   2.706   6.005   3.540 -0.4979 -1.4561 -0.6984
 4766TIP3   OH235788   1.806   4.929   5.484 -0.5686 -0.3304 -0.6378
 4766TIP3    H135789   1.735   4.935   5.420 -1.7127 -2.3706  0.3234
 4766TIP3    H235790   1.828   4.836   5.485 -1.1740 -0.5433  2.4843
 4767TIP3   OH235791   0.821   1.827  12.662 -0.4079  0.0370  0.0356
 4767TIP3    H135792   0.831   1.893  12.593 -0.0459  0.3907  0.4241
 4767TIP3    H235793   0.786   1.876  12.737  1.7124  0.2180  0.9767
 4768TIP3   OH235794   5.766   0.717   3.489  0.4681 -0.3383  0.3748
 4768TIP3    H135795   5.855   0.698   3.459  0.0807 -1.1107 -0.3324
 4768TIP3    H235796   5.716   0.638   3.468 -1.2482  1.3723 -2.8011
 4769TIP3   OH235797   6.127   3.068  12.780  0.3264 -0.8185  0.1562
 4769TIP3    H135798   6.045   3.057  12.731  1.0236 -0.4393 -1.1193
 4769TIP3    H235799   6.193   3.087  12.713  1.0984  0.8296  1.3265
 4770TIP3   OH235800   5.766   5.415  15.711 -0.2664 -0.2352 -0.5497
 4770TIP3    H135801   5.781   5.471  15.635  1.8634 -1.0537 -0.7967
 4770TIP3    H235802   5.818   5.454  15.781 -2.0221  0.3710  0.4696
 4771TIP3   OH235803   2.128   4.996   3.853  0.0390 -0.0376 -0.7181
 4771TIP3    H135804   2.035   4.978   3.866  0.0370  0.9433  0.9298
 4771TIP3    H235805   2.133   5.091   3.837  0.8352  0.1624  0.5301
 4772TIP3   OH235806   3.280   1.409  16.249 -0.1694  0.3761 -0.1627
 4772TIP3    H135807   3.349   1.476  16.247 -0.8263  1.0596 -2.1721
 4772TIP3    H235808   3.231   1.429  16.329  1.5427  0.2685  0.9601
 4773TIP3   OH235809   5.755   6.749  12.519  0.3220  0.1858 -0.6134
 4773TIP3    H135810   5.845   6.737  12.489  1.4182  0.3903  2.2818
 4773TIP3    H235811   5.726   6.661  12.544 -0.0978  0.1970 -1.0533
 4774TIP3   OH235812   4.225   4.380   4.699  0.1048 -0.3088 -0.2547
 4774TIP3    H135813   4.169   4.457   4.713  0.4683 -0.1396  0.3360
 4774TIP3    H235814   4.313   4.416   4.688 -0.0864 -0.4670 -2.7340
 4775TIP3   OH235815   4.522   2.330  12.954 -0.1021 -0.4331  0.3041
 4775TIP3    H135816   4.616   2.317  12.967 -0.1924 -0.8101  0.5800
 4775TIP3    H235817   4.503   2.285  12.872  0.4126  1.7044 -1.0702
 4776TIP3   OH235818   5.091   3.304  14.555  0.1174 -0.1803 -0.7458
 4776TIP3    H135819   5.006   3.342  14.576  0.2761 -0.0850 -0.2669
 4776TIP3    H235820   5.109   3.334  14.466  0.2749  0.9301 -0.3536
 4777TIP3   OH235821   4.408   5.765   1.658 -0.8751 -0.2961  0.3513
 4777TIP3    H135822   4.440   5.681   1.625 -0.3004 -0.4592  1.3010
 4777TIP3    H235823   4.333   5.743   1.713 -1.0257 -0.1420  0.2086
 4778TIP3   OH235824   0.233   0.965   4.601  0.1153 -0.3893  0.0144
 4778TIP3    H135825   0.283   0.889   4.630  0.5561 -0.1664 -0.1517
 4778TIP3    H235826   0.273   1.040   4.645  2.3009  0.2760 -2.7813
 4779TIP3   OH235827   6.608   1.651  13.220  0.3832 -0.0770 -0.2427
 4779TIP3    H135828   6.523   1.608  13.232 -0.9336  2.8114  2.2042
 4779TIP3    H235829   6.664   1.614  13.287 -0.2144  0.7296  0.7283
 4780TIP3   OH235830   6.646   3.327   0.583  0.2089 -0.3453  0.5583
 4780TIP3    H135831   6.718   3.390   0.573  0.0095 -0.1252  0.4954
 4780TIP3    H235832   6.627   3.327   0.677  0.5351 -0.6796  0.6268
 4781TIP3   OH235833   0.780   1.269  17.215  0.0564 -0.3357  0.2131
 4781TIP3    H135834   0.712   1.208  17.242  0.2174 -1.1598 -1.1699
 4781TIP3    H235835   0.857   1.214  17.198  1.1873  0.6034  2.0169
 4782TIP3   OH235836   6.167   5.389   3.474 -0.3027 -0.0433 -0.1041
 4782TIP3    H135837   6.141   5.474   3.510 -0.2666 -0.3468  0.6696
 4782TIP3    H235838   6.216   5.347   3.545 -1.1615 -1.1035 -0.1087
 4783TIP3   OH235839   5.951   2.398  14.815  0.1394  0.0236 -0.5566
 4783TIP3    H135840   5.922   2.343  14.742  0.5233 -1.9285  0.6927
 4783TIP3    H235841   5.944   2.342  14.892 -0.6716  2.1479  1.0250
 4784TIP3   OH235842   4.529   2.177   5.558  0.0831  0.0187  0.4012
 4784TIP3    H135843   4.573   2.108   5.508  1.4199  0.9468  0.2402
 4784TIP3    H235844   4.444   2.186   5.516  0.7509  0.0131 -1.0298
 4785TIP3   OH235845   6.157   0.240  15.177  0.4656 -0.0025 -0.0751
 4785TIP3    H135846   6.248   0.217  15.161  0.5515  1.4436 -1.9717
 4785TIP3    H235847   6.151   0.333  15.157 -1.2593  0.1257  0.8086
 4786TIP3   OH235848   1.217   3.844   5.421 -0.7583  0.3709  0.7244
 4786TIP3    H135849   1.182   3.769   5.373 -0.0099 -0.3133  1.2147
 4786TIP3    H235850   1.207   3.820   5.514 -0.9464  1.0847  0.8941
 4787TIP3   OH235851   2.382   0.627  15.542 -0.0143 -0.7899  0.4204
 4787TIP3    H135852   2.335   0.545  15.528 -1.6232 -0.5884  3.6776
 4787TIP3    H235853   2.345   0.688  15.479 -0.7856 -1.8641 -0.1841
 4788TIP3   OH235854   5.537   0.307   0.503 -0.1265 -0.0613 -0.1381
 4788TIP3    H135855   5.467   0.247   0.477 -1.5813  0.9216  1.3406
 4788TIP3    H235856   5.540   0.372   0.432  1.2404 -1.6052 -1.5881
 4789TIP3   OH235857   0.314   1.137   2.461 -0.1785  0.3386  0.1801
 4789TIP3    H135858   0.333   1.170   2.374  0.5362 -0.1476  0.1434
 4789TIP3    H235859   0.326   1.042   2.454  0.6888  0.3756  0.9956
 4790TIP3   OH235860   3.434   6.037  14.277  0.7458  0.6145 -0.4128
 4790TIP3    H135861   3.473   6.123  14.294  0.9471  0.3016  0.7824
 4790TIP3    H235862   3.492   5.975  14.321  0.5294 -0.1341 -1.1538
 4791TIP3   OH235863   1.245   1.251   2.255 -0.2176 -0.1211  0.2156
 4791TIP3    H135864   1.337   1.250   2.280 -0.9423 -1.3832  3.3103
 4791TIP3    H235865   1.217   1.342   2.267  0.1619 -0.1409  1.2703
 4792TIP3   OH235866   1.362   3.634   0.109 -0.3108 -0.1959  0.7201
 4792TIP3    H135867   1.387   3.646   0.201  0.5914  0.4934  0.4055
 4792TIP3    H235868   1.266   3.636   0.110 -0.3877 -2.2010  1.8821
 4793TIP3   OH235869   3.500   4.363  14.856 -0.4191  0.2524  0.0521
 4793TIP3    H135870   3.592   4.350  14.881 -1.2558 -2.1922  2.3341
 4793TIP3    H235871   3.474   4.443  14.902  0.4055  0.6586 -0.1655
 4794TIP3   OH235872   6.256   3.504  15.739  0.2382 -0.3892 -0.4077
 4794TIP3    H135873   6.349   3.524  15.749  0.1803 -0.7469  1.0587
 4794TIP3    H235874   6.246   3.415  15.774 -0.6852 -0.2887 -0.3798
 4795TIP3   OH235875   0.012   3.729  13.037  0.0852  0.2500 -0.1583
 4795TIP3    H135876   0.033   3.716  12.944 -3.0928  0.1492 -0.9618
 4795TIP3    H235877  -0.039   3.810  13.039 -3.1216 -1.6099  0.8378
 4796TIP3   OH235878   0.056   5.926  16.288 -0.6840  0.2369 -0.6046
 4796TIP3    H135879   0.057   5.928  16.383  1.5885 -1.6920 -0.4931
 4796TIP3    H235880   0.140   5.964  16.261 -1.0950  0.3507 -1.8200
 4797TIP3   OH235881   6.447   0.803   3.874  0.4655  0.1003 -0.3342
 4797TIP3    H135882   6.399   0.886   3.875 -1.2380 -0.8362 -0.8352
 4797TIP3    H235883   6.400   0.748   3.936  0.7554 -0.9106 -0.9939
 4798TIP3   OH235884   5.696   5.980  16.451 -0.5061 -0.1410  0.1987
 4798TIP3    H135885   5.651   5.896  16.464 -2.0494  0.8336  1.6190
 4798TIP3    H235886   5.789   5.959  16.458 -0.8261 -1.8486 -0.2682
 4799TIP3   OH235887   0.522   2.033  12.666 -0.6521  0.4991 -0.3955
 4799TIP3    H135888   0.494   2.022  12.757 -1.9107  1.7259 -0.6003
 4799TIP3    H235889   0.551   2.124  12.661  0.3630  0.1581 -0.9962
 4800TIP3   OH235890   6.065   4.294   3.455  0.3783 -0.3017  0.0847
 4800TIP3    H135891   6.087   4.235   3.383  1.0485 -0.1320  0.1471
 4800TIP3    H235892   6.055   4.380   3.413 -0.2690 -0.3918  0.0434
 4801TIP3   OH235893   2.236   3.613   2.040  0.0269  0.1077 -0.0492
 4801TIP3    H135894   2.316   3.571   2.008 -0.8864 -0.6925 -1.3844
 4801TIP3    H235895   2.165   3.559   2.006 -1.2275  2.6662 -1.9191
 4802TIP3   OH235896   6.470   6.238  16.728  0.2073  0.0066  0.0285
 4802TIP3    H135897   6.413   6.165  16.750 -0.4805  1.3132  3.1136
 4802TIP3    H235898   6.410   6.310  16.708  0.8587 -0.2377 -3.6451
 4803TIP3   OH235899   5.925   6.414  11.199  0.0959  0.4502 -0.6071
 4803TIP3    H135900   5.974   6.496  11.199 -0.4904  0.8041 -0.0429
 4803TIP3    H235901   5.901   6.400  11.107 -0.1328  1.1054 -0.6467
 4804TIP3   OH235902   2.101   2.250   2.278 -0.3195 -0.4898 -0.2143
 4804TIP3    H135903   2.118   2.304   2.202  1.2687 -0.3943  0.1754
 4804TIP3    H235904   2.033   2.188   2.249  0.5762 -0.7573 -1.8522
 4805TIP3   OH235905   2.297   1.414  10.719  0.1536 -0.0297 -0.5077
 4805TIP3    H135906   2.293   1.376  10.631  0.0881 -1.1977 -0.0055
 4805TIP3    H235907   2.222   1.474  10.722 -1.6219 -2.1683 -0.2666
 4806TIP3   OH235908   5.864   4.025   3.383 -0.0036  0.0499  0.1596
 4806TIP3    H135909   5.950   4.053   3.353 -0.2940 -1.3414 -2.2766
 4806TIP3    H235910   5.871   4.023   3.478  1.9968  1.8611  0.1261
 4807TIP3   OH235911   5.713   5.211  15.351 -0.2328 -0.4260 -0.2743
 4807TIP3    H135912   5.655   5.249  15.417  1.6578  0.8720  0.7015
 4807TIP3    H235913   5.669   5.130  15.325 -1.3553 -0.6532  2.1044
 4808TIP3   OH235914   5.104   5.259  16.530 -0.0108  0.3293  0.4835
 4808TIP3    H135915   5.192   5.244  16.496 -0.4366  1.7409 -1.4523
 4808TIP3    H235916   5.071   5.171  16.549  0.3628 -0.6817 -2.7976
 4809TIP3   OH235917   4.477   3.775   4.735  0.4041 -0.1944  0.3574
 4809TIP3    H135918   4.485   3.865   4.769  1.3856 -0.9855  2.4267
 4809TIP3    H235919   4.392   3.745   4.768  1.4923 -1.0702  2.6150
 4810TIP3   OH235920   1.576   0.432   5.524 -0.1151 -0.8068 -0.9706
 4810TIP3    H135921   1.646   0.400   5.467  2.4514  1.0297  0.8581
 4810TIP3    H235922   1.595   0.392   5.609 -0.9790  0.1418 -0.3118
 4811TIP3   OH235923   6.705   1.513  14.642  0.1172  0.1440 -0.2183
 4811TIP3    H135924   6.627   1.568  14.652 -0.8144 -1.3449  1.3674
 4811TIP3    H235925   6.680   1.446  14.578  0.5084  0.3440 -0.5832
 4812TIP3   OH235926   0.712   0.485  13.197 -0.4404 -0.5144 -0.1277
 4812TIP3    H135927   0.779   0.458  13.261 -0.2138 -0.4977 -0.3596
 4812TIP3    H235928   0.692   0.405  13.149 -0.3931 -0.4571 -0.2411
 4813TIP3   OH235929   0.373   1.116  14.394 -0.2484 -0.2877 -0.3618
 4813TIP3    H135930   0.325   1.196  14.372  0.1691 -0.3197 -1.4750
 4813TIP3    H235931   0.465   1.141  14.384 -0.1028 -0.8022 -0.3150
 4814TIP3   OH235932   3.368   5.481   3.848  0.1491 -0.0748  0.6118
 4814TIP3    H135933   3.320   5.454   3.926 -0.0787 -0.3099  0.3872
 4814TIP3    H235934   3.352   5.575   3.842 -0.6425 -0.2209  0.2915
 4815TIP3   OH235935   0.533   1.907  11.499  0.0842 -0.9875  0.4309
 4815TIP3    H135936   0.559   1.822  11.534  2.0930 -1.1333 -1.2510
 4815TIP3    H235937   0.598   1.927  11.432 -1.1017  1.2758 -0.1583
 4816TIP3   OH235938   2.838   5.337   0.798  0.2873 -0.0408  0.0339
 4816TIP3    H135939   2.772   5.406   0.789  0.7897  0.1249 -4.5773
 4816TIP3    H235940   2.922   5.384   0.793  0.7005 -0.6830  0.7420
 4817TIP3   OH235941   1.068   1.087   0.530  0.3381  0.5780 -0.1062
 4817TIP3    H135942   1.100   1.155   0.471 -0.1452  0.4204 -0.5576
 4817TIP3    H235943   0.984   1.061   0.494 -0.3300  1.0137  1.0808
 4818TIP3   OH235944   5.565   0.735  10.721  0.0969 -0.2769  0.3502
 4818TIP3    H135945   5.652   0.735  10.681 -0.3443  1.7395 -0.7454
 4818TIP3    H235946   5.579   0.702  10.809  1.9110 -0.2944  0.0876
 4819TIP3   OH235947   0.473   6.402   5.416  0.4039 -0.4132 -0.2019
 4819TIP3    H135948   0.399   6.366   5.367 -0.0313 -0.5411  0.5334
 4819TIP3    H235949   0.434   6.440   5.494  1.1822 -1.0767  0.5296
 4820TIP3   OH235950   6.632   1.468   5.643  0.4367 -0.3996 -0.1117
 4820TIP3    H135951   6.630   1.378   5.607  0.9138 -0.9975  1.3078
 4820TIP3    H235952   6.540   1.488   5.662  0.2052 -0.1789 -1.3520
 4821TIP3   OH235953   3.214   6.824  13.548 -0.5252 -0.3443 -0.6177
 4821TIP3    H135954   3.252   6.782  13.625 -1.0040 -1.4592 -0.9692
 4821TIP3    H235955   3.281   6.887  13.519 -0.1810 -0.2000  0.4621
 4822TIP3   OH235956   5.695   3.877   5.451  1.2839 -0.4601 -0.4162
 4822TIP3    H135957   5.619   3.897   5.506  1.7885  2.8798 -0.7794
 4822TIP3    H235958   5.661   3.879   5.362  1.5092 -0.4659 -0.5028
 4823TIP3   OH235959   6.222   3.286   6.410  0.2671 -0.2770  0.2029
 4823TIP3    H135960   6.215   3.382   6.407  2.8712 -0.0252  0.3179
 4823TIP3    H235961   6.200   3.259   6.321  2.5750  0.7486 -0.7532
 4824TIP3   OH235962   5.229   6.565  12.777 -0.3462  0.4409  0.0995
 4824TIP3    H135963   5.321   6.562  12.802  0.0198  0.2933 -1.1963
 4824TIP3    H235964   5.216   6.653  12.741 -0.0854 -0.2887 -1.8883
 4825TIP3   OH235965   6.342   0.011   6.516 -0.2175  0.3253 -0.1358
 4825TIP3    H135966   6.419  -0.041   6.540 -0.5597 -0.7018 -1.1685
 4825TIP3    H235967   6.377   0.083   6.464  0.0567 -0.1705 -0.6538
 4826TIP3   OH235968   0.863   6.448   3.086 -0.2470 -0.6685  0.3396
 4826TIP3    H135969   0.806   6.481   3.017  1.7696  0.5566 -0.8418
 4826TIP3    H235970   0.900   6.527   3.125 -1.4016 -1.3183  2.9745
 4827TIP3   OH235971   6.577   2.177  13.865 -0.1542  0.1583  0.2352
 4827TIP3    H135972   6.607   2.232  13.938  0.0788  0.0144  0.2493
 4827TIP3    H235973   6.511   2.230  13.821 -0.1409  0.3332  0.4229
 4828TIP3   OH235974   5.708   6.783   5.517 -0.1936 -0.1875  0.1429
 4828TIP3    H135975   5.777   6.815   5.575 -1.5269  0.4638  1.4407
 4828TIP3    H235976   5.746   6.707   5.473  1.9110  1.1510 -0.4716
 4829TIP3   OH235977   2.859   3.111  13.617  0.2505 -0.2556 -0.0582
 4829TIP3    H135978   2.938   3.149  13.578  0.6636 -1.4186 -0.4046
 4829TIP3    H235979   2.866   3.018  13.599 -3.0381 -0.0560 -3.4641
 4830TIP3   OH235980   3.679   3.047   4.199 -0.1091  0.4863  0.4152
 4830TIP3    H135981   3.734   3.087   4.266 -0.5495 -0.3010  1.2830
 4830TIP3    H235982   3.616   2.994   4.249 -1.4690  1.1337 -0.5493
 4831TIP3   OH235983   6.403   6.576  11.811 -0.2297 -0.3000  0.9821
 4831TIP3    H135984   6.346   6.512  11.854 -0.1972 -0.5324  0.6789
 4831TIP3    H235985   6.434   6.532  11.732 -0.1788  0.0785  0.7881
 4832TIP3   OH235986   5.211   0.187   0.718 -0.6761 -0.4207  0.2320
 4832TIP3    H135987   5.260   0.169   0.798 -1.1556  0.1943  0.6706
 4832TIP3    H235988   5.142   0.120   0.716 -1.3698  0.2534  0.9406
 4833TIP3   OH235989   1.944   6.496   4.330 -0.2632  0.1778  0.0635
 4833TIP3    H135990   2.035   6.516   4.351 -0.1932  0.1394 -0.2009
 4833TIP3    H235991   1.935   6.518   4.237 -0.7916  1.1306  0.3254
 4834TIP3   OH235992   0.456   2.078  11.709  0.0094  0.0980 -0.4493
 4834TIP3    H135993   0.508   2.025  11.648 -1.7793 -0.6973 -1.3513
 4834TIP3    H235994   0.489   2.052  11.796  0.1903 -1.4101 -0.9297
 4835TIP3   OH235995   4.339   0.233   0.808  0.4150  0.2522  0.1014
 4835TIP3    H135996   4.324   0.311   0.861 -1.8900 -0.5168  0.6755
 4835TIP3    H235997   4.271   0.235   0.742  1.0236 -0.7090 -0.5778
 4836TIP3   OH235998   6.500   2.910   3.007 -0.6622 -0.3716  0.0603
 4836TIP3    H135999   6.461   2.949   3.086  1.1122 -0.4798  1.0327
 4836TIP3    H236000   6.459   2.958   2.935 -1.0249  0.9633  1.1064
 4837TIP3   OH236001   4.508   0.635  14.890  0.2207 -0.1004 -0.5881
 4837TIP3    H136002   4.545   0.635  14.978  1.8449 -1.2268 -1.2339
 4837TIP3    H236003   4.513   0.544  14.861  0.0676  0.3076 -1.9775
 4838TIP3   OH236004   5.411   1.882  12.657  0.0791  0.3217 -0.3909
 4838TIP3    H136005   5.355   1.818  12.701  1.4583 -1.6559 -1.3295
 4838TIP3    H236006   5.381   1.882  12.566  0.8900  0.0241 -0.6744
 4839TIP3   OH236007   3.577   1.488  14.423  0.0215 -0.3269 -0.1043
 4839TIP3    H136008   3.584   1.547  14.498 -1.3249  0.6877 -0.7311
 4839TIP3    H236009   3.665   1.486  14.385  0.5707 -0.3852  1.1305
 4840TIP3   OH236010   1.770   2.190  13.115 -0.6791 -0.1904  0.2530
 4840TIP3    H136011   1.782   2.096  13.106 -1.6639 -0.2533 -0.7068
 4840TIP3    H236012   1.676   2.203  13.102 -0.7223  0.8223  1.4139
 4841TIP3   OH236013   3.176   4.295  16.131 -0.1517  0.3098  0.2259
 4841TIP3    H136014   3.221   4.344  16.201 -1.1080  0.6104  0.6440
 4841TIP3    H236015   3.159   4.361  16.064  0.0829  0.1846  0.0450
 4842TIP3   OH236016   0.358   4.154   2.829 -0.1661  0.4003  0.0246
 4842TIP3    H136017   0.402   4.174   2.747 -0.6566  1.5500  0.0295
 4842TIP3    H236018   0.333   4.062   2.821  1.6652 -0.1212 -0.2202
 4843TIP3   OH236019   0.333   6.283   4.821  0.2264  0.4274  0.1505
 4843TIP3    H136020   0.269   6.331   4.872 -1.7793 -0.2871 -1.5581
 4843TIP3    H236021   0.383   6.232   4.885 -0.5938  1.3361  1.5510
 4844TIP3   OH236022   1.538   6.520   2.044 -0.5803 -0.3776  0.1792
 4844TIP3    H136023   1.601   6.570   2.096 -0.9549 -2.1232  2.4575
 4844TIP3    H236024   1.553   6.429   2.068 -1.6953 -1.1579 -1.8284
 4845TIP3   OH236025   4.766   6.624   4.931 -0.0862  0.4845  0.3196
 4845TIP3    H136026   4.739   6.578   4.851 -1.7261 -0.9004  1.5823
 4845TIP3    H236027   4.766   6.716   4.907 -0.2795  0.0826 -1.3446
 4846TIP3   OH236028   6.558   4.972   4.922 -0.2993  0.2207  0.0408
 4846TIP3    H136029   6.648   4.940   4.919  0.0124  1.1206 -0.4307
 4846TIP3    H236030   6.507   4.907   4.874 -0.3390 -1.6255  2.4254
 4847TIP3   OH236031   6.026   2.275   3.915 -0.6155 -0.8039 -0.1916
 4847TIP3    H136032   5.976   2.237   3.843 -0.3091 -2.0276  0.2239
 4847TIP3    H236033   6.114   2.288   3.879 -0.8348 -0.0457 -0.4700
 4848TIP3   OH236034   5.316   0.435   5.831 -0.2873  0.2876 -0.1906
 4848TIP3    H136035   5.360   0.398   5.907  0.6489  0.6302 -0.5494
 4848TIP3    H236036   5.311   0.363   5.768  1.1822  0.6103 -0.7365
 4849TIP3   OH236037   4.348   0.072  13.788  0.1376  0.2410  0.0838
 4849TIP3    H136038   4.429   0.120  13.771  0.9960 -1.3881 -0.6066
 4849TIP3    H236039   4.376  -0.011  13.826 -0.9889 -1.3673 -2.3464
 4850TIP3   OH236040   5.250   5.380   0.582  0.0350 -0.0900 -0.3711
 4850TIP3    H136041   5.276   5.316   0.516 -0.4852  0.9606 -1.6313
 4850TIP3    H236042   5.285   5.463   0.550  1.8370  0.1247  1.8794
 4851TIP3   OH236043   5.497   5.842  13.927 -0.2987  0.0908  0.6134
 4851TIP3    H136044   5.535   5.905  13.989  2.9551  1.4977 -2.4342
 4851TIP3    H236045   5.440   5.895  13.871 -1.9025 -0.8484  1.2857
 4852TIP3   OH236046   3.143   1.146  15.081 -0.5302 -0.0918 -0.2372
 4852TIP3    H136047   3.089   1.191  15.146 -1.0346 -0.2337 -0.5517
 4852TIP3    H236048   3.128   1.195  15.000 -1.4243 -1.0860 -0.6788
 4853TIP3   OH236049   6.757   5.574   1.692  0.0414  0.6001  0.0406
 4853TIP3    H136050   6.689   5.620   1.741 -0.0709  0.6042 -0.1213
 4853TIP3    H236051   6.714   5.544   1.612 -0.2095 -0.8554  0.6869
 4854TIP3   OH236052   3.207   0.184  13.232  0.4167  0.0890 -0.3665
 4854TIP3    H136053   3.260   0.184  13.152 -0.7639  1.1510 -1.1881
 4854TIP3    H236054   3.271   0.177  13.303  1.7582  2.0950 -1.2873
 4855TIP3   OH236055   5.789   1.387  15.026 -1.0382 -0.0289 -0.2823
 4855TIP3    H136056   5.753   1.430  15.104 -1.4865  1.5904 -1.3422
 4855TIP3    H236057   5.727   1.316  15.008 -2.2865  1.0930 -0.5543
 4856TIP3   OH236058   6.488   2.490  16.246  0.1672  0.2862 -0.3866
 4856TIP3    H136059   6.438   2.426  16.297  1.0907 -0.0246  0.1677
 4856TIP3    H236060   6.552   2.525  16.308  0.4271  0.9035 -0.9913
 4857TIP3   OH236061   1.824   1.543   1.565  0.1353 -0.1405 -0.0617
 4857TIP3    H136062   1.769   1.472   1.531  0.9446 -0.5630 -0.4959
 4857TIP3    H236063   1.803   1.618   1.509 -0.5313 -0.0921  0.2385
 4858TIP3   OH236064   1.050   0.368  14.166  0.0474 -0.1783 -0.1198
 4858TIP3    H136065   1.032   0.281  14.129  0.9838 -0.7937  0.7895
 4858TIP3    H236066   0.996   0.371  14.245  1.5804 -0.8432  1.0175
 4859TIP3   OH236067   2.530   1.733   5.122  0.1427  0.0451 -0.3654
 4859TIP3    H136068   2.483   1.654   5.145  2.0633 -0.9775  0.2881
 4859TIP3    H236069   2.464   1.802   5.122 -1.3475 -1.3367  0.3010
 4860TIP3   OH236070   4.698   3.391   1.824  0.0383  0.3759 -0.1647
 4860TIP3    H136071   4.610   3.377   1.859 -0.5524 -0.7444 -1.9534
 4860TIP3    H236072   4.701   3.484   1.803 -0.9236  0.3226 -0.5774
 4861TIP3   OH236073   5.567   3.521  15.072  0.1263  0.3638 -0.1763
 4861TIP3    H136074   5.598   3.508  15.162  0.8390 -1.6710 -0.6406
 4861TIP3    H236075   5.585   3.437  15.029 -0.4842  1.1830 -2.1399
 4862TIP3   OH236076   5.939   6.375   2.003  0.5074 -0.1955 -0.2594
 4862TIP3    H136077   5.965   6.286   2.027 -1.9057 -1.1126 -0.8428
 4862TIP3    H236078   5.984   6.430   2.068  0.4262 -1.9791  1.4160
 4863TIP3   OH236079   3.044   6.052  14.676  0.4072  0.1453 -0.2222
 4863TIP3    H136080   3.100   5.986  14.637  0.6617 -0.4230  1.0509
 4863TIP3    H236081   3.073   6.058  14.767 -0.9699  0.5283  0.2204
 4864TIP3   OH236082   1.374   4.257  11.507 -0.2437 -0.4620 -0.2149
 4864TIP3    H136083   1.454   4.291  11.467 -0.0659  2.1712  2.0586
 4864TIP3    H236084   1.403   4.183  11.560  0.8070  0.5843  0.7429
 4865TIP3   OH236085   3.565   4.337  11.740  0.4297  0.0511 -0.6941
 4865TIP3    H136086   3.639   4.292  11.778  0.0900  0.6435  0.7310
 4865TIP3    H236087   3.566   4.311  11.647  2.4681  0.1565 -0.7469
 4866TIP3   OH236088   4.219   6.132   5.544 -0.0335 -0.0416 -0.2860
 4866TIP3    H136089   4.172   6.116   5.462  0.9845 -0.1392 -0.8683
 4866TIP3    H236090   4.192   6.220   5.570 -1.1175 -0.3900 -0.1943
 4867TIP3   OH236091   4.522   4.018  12.244 -0.1666 -0.5747 -0.4218
 4867TIP3    H136092   4.543   3.933  12.283  0.4215 -1.1717 -1.9623
 4867TIP3    H236093   4.438   4.004  12.200  0.2131 -0.5321 -1.1692
 4868TIP3   OH236094   4.087   5.262   2.110 -0.4700  1.2227  0.7988
 4868TIP3    H136095   4.043   5.179   2.127 -0.1278  1.0883  1.0293
 4868TIP3    H236096   4.036   5.301   2.039  0.2153  0.1709 -0.3016
 4869TIP3   OH236097   0.361   5.783  12.317  0.1378  0.0688 -0.4588
 4869TIP3    H136098   0.288   5.805  12.258 -1.2633 -0.3628  1.0475
 4869TIP3    H236099   0.356   5.688  12.325 -0.0220  0.1693  0.7386
 4870TIP3   OH236100   2.706   2.999   2.797 -0.0213  0.7852 -0.1736
 4870TIP3    H136101   2.660   3.028   2.876 -0.6600  0.1171 -0.2912
 4870TIP3    H236102   2.671   2.912   2.779  1.0926  0.3615 -0.4286
 4871TIP3   OH236103   2.036   6.676   5.609  0.1866 -0.7459  0.0867
 4871TIP3    H136104   2.126   6.690   5.579  0.3015 -0.9808  0.3253
 4871TIP3    H236105   1.984   6.676   5.528  0.3499 -0.2444 -0.0246
 4872TIP3   OH236106   4.869   3.927   0.402  0.0411  0.1895  0.5400
 4872TIP3    H136107   4.863   3.840   0.442 -1.2921  0.1645  0.3570
 4872TIP3    H236108   4.882   3.909   0.309  0.9432  0.2101  0.6594
 4873TIP3   OH236109   4.280   1.801   0.296 -0.4197 -0.0455 -0.1039
 4873TIP3    H136110   4.285   1.719   0.345  1.8006  1.0288  1.6422
 4873TIP3    H236111   4.186   1.816   0.283 -0.9072 -2.2336  0.5823
 4874TIP3   OH236112   4.605   3.002   0.331  0.7359  0.0924 -0.3491
 4874TIP3    H136113   4.618   2.952   0.251 -1.1268 -3.0656  1.1582
 4874TIP3    H236114   4.654   2.955   0.398 -0.3995  0.7551  1.0041
 4875TIP3   OH236115   3.485   0.435   6.509 -0.2010  0.0841 -0.3069
 4875TIP3    H136116   3.545   0.441   6.434  1.3900  2.0828  1.0113
 4875TIP3    H236117   3.410   0.488   6.483  0.0802  0.2972 -0.7150
 4876TIP3   OH236118   6.309   6.775   4.636 -0.5556  0.1901 -0.0217
 4876TIP3    H136119   6.331   6.868   4.641 -0.3835  0.0833  1.3793
 4876TIP3    H236120   6.366   6.741   4.567  0.2305  0.8906  0.2655
 4877TIP3   OH236121   3.719   1.248   4.047 -0.0905 -0.0444  0.0947
 4877TIP3    H136122   3.742   1.326   3.996  2.2443 -0.6922  0.0583
 4877TIP3    H236123   3.779   1.250   4.121 -2.0064 -0.2735  1.7233
 4878TIP3   OH236124   2.095   1.400  14.203  0.1338 -0.9280  0.1209
 4878TIP3    H136125   2.177   1.357  14.180  0.6495  0.3473 -0.5351
 4878TIP3    H236126   2.100   1.486  14.160 -0.3324  0.2534  2.2432
 4879TIP3   OH236127   5.925   3.959   2.072  0.1318  0.2910 -0.5850
 4879TIP3    H136128   5.849   3.907   2.097 -0.6520  1.6712 -0.0098
 4879TIP3    H236129   5.906   3.987   1.982  1.5980 -2.2093 -1.7958
 4880TIP3   OH236130   5.460   2.937  14.558  0.2656 -0.1424 -0.1582
 4880TIP3    H136131   5.488   2.848  14.535 -0.3339 -0.2354 -0.5555
 4880TIP3    H236132   5.392   2.924  14.623  0.5711  0.0514  0.2002
 4881TIP3   OH236133   3.666   4.983   3.668  0.3435 -0.1565  0.1455
 4881TIP3    H136134   3.746   4.934   3.686  0.3556  0.2437  1.2313
 4881TIP3    H236135   3.614   4.975   3.748 -1.1722 -1.2605 -0.8764
 4882TIP3   OH236136   6.296   3.470  13.407  0.2342  0.0999  0.0432
 4882TIP3    H136137   6.301   3.387  13.359 -1.3643 -1.0018  1.6570
 4882TIP3    H236138   6.233   3.523  13.358  2.0356  0.8520 -1.5883
 4883TIP3   OH236139   0.174   3.609   3.726 -0.1433  0.4124 -0.5044
 4883TIP3    H136140   0.125   3.676   3.677 -0.6176 -0.6115 -1.4688
 4883TIP3    H236141   0.196   3.543   3.660 -0.5530 -0.8765  0.6171
 4884TIP3   OH236142   4.631   0.929  16.663  0.1399 -0.7407  0.4915
 4884TIP3    H136143   4.616   0.967  16.750  2.0507  0.0682  0.5138
 4884TIP3    H236144   4.662   1.003  16.610  0.0283 -1.4536 -0.5938
 4885TIP3   OH236145   0.716   6.473   3.581  0.3586 -0.3651 -0.0263
 4885TIP3    H136146   0.738   6.427   3.662  1.5219 -1.0543 -0.7012
 4885TIP3    H236147   0.628   6.441   3.558  0.4739 -1.0008  0.3862
 4886TIP3   OH236148   1.334   2.679  17.140  0.0217  0.4088 -0.3430
 4886TIP3    H136149   1.388   2.601  17.153 -2.5438 -1.8577 -2.1830
 4886TIP3    H236150   1.302   2.701  17.227  0.6657 -0.6892  0.1929
 4887TIP3   OH236151   5.546   0.916  14.156 -0.4267 -0.6971  0.0051
 4887TIP3    H136152   5.569   0.927  14.248 -1.1435 -3.3294  0.5841
 4887TIP3    H236153   5.470   0.858  14.156 -0.6430 -0.5187 -2.2398
 4888TIP3   OH236154   1.973   1.207  13.351 -0.1468 -0.2778 -0.1073
 4888TIP3    H136155   1.996   1.142  13.417 -0.6763 -0.2163  0.1462
 4888TIP3    H236156   2.043   1.202  13.286  1.9217  1.6270  1.8268
 4889TIP3   OH236157   5.958   4.107   3.628  0.0526  0.1842  0.5041
 4889TIP3    H136158   6.028   4.062   3.675  0.7694  1.9225  1.1853
 4889TIP3    H236159   6.000   4.184   3.590 -1.7325  2.1380  2.2018
 4890TIP3   OH236160   3.331   3.428  12.689  0.1538  0.0069  0.2493
 4890TIP3    H136161   3.392   3.494  12.656  1.3781 -1.6897 -1.0722
 4890TIP3    H236162   3.310   3.457  12.778  0.2274  2.4092 -0.4316
 4891TIP3   OH236163   0.402   3.138   2.476 -0.0469  0.6210 -0.6038
 4891TIP3    H136164   0.363   3.127   2.389  0.3453  0.8284 -0.8101
 4891TIP3    H236165   0.409   3.049   2.510 -0.0452  0.5214 -0.8574
 4892TIP3   OH236166   1.167   0.849   5.784 -0.0736 -0.1447  0.7295
 4892TIP3    H136167   1.202   0.836   5.872  0.1463  1.3343  0.8777
 4892TIP3    H236168   1.133   0.938   5.784 -0.9737 -0.4622 -0.3953
 4893TIP3   OH236169   0.815   1.111   3.321 -0.3283 -0.3787 -0.0116
 4893TIP3    H136170   0.738   1.133   3.268 -0.5993 -2.9010 -0.7886
 4893TIP3    H236171   0.826   1.187   3.379 -1.9625  1.0766 -1.4756
 4894TIP3   OH236172   1.425   4.545  16.068  0.1470  1.0641 -0.2132
 4894TIP3    H136173   1.514   4.535  16.035 -0.2021 -0.2880 -0.8003
 4894TIP3    H236174   1.422   4.634  16.103  2.2003  0.6003  1.2821
 4895TIP3   OH236175   1.017   3.234   5.620 -0.1667 -0.4892 -0.7254
 4895TIP3    H136176   1.045   3.237   5.528  0.7425  0.8066 -0.4237
 4895TIP3    H236177   0.949   3.301   5.626  1.4119  1.1141  0.0423
 4896TIP3   OH236178   6.335   4.726  11.778 -0.0998  0.8059 -0.3989
 4896TIP3    H136179   6.390   4.777  11.718  0.5330  0.8982  0.2391
 4896TIP3    H236180   6.299   4.791  11.838 -0.0645  0.6224 -0.1779
 4897TIP3   OH236181   3.022   3.418  15.988  0.1648  0.0183 -0.2011
 4897TIP3    H136182   3.108   3.394  15.954 -0.2091 -0.2916 -0.9663
 4897TIP3    H236183   3.027   3.400  16.082  1.1338  0.6147 -0.1255
 4898TIP3   OH236184   1.030   4.359  11.150 -0.1133  0.1829  0.2661
 4898TIP3    H136185   1.013   4.399  11.064 -0.9489  0.7265  0.6719
 4898TIP3    H236186   0.993   4.421  11.213  0.7981 -0.0448  1.0439
 4899TIP3   OH236187   4.561   4.632   2.671  0.5828  0.4028 -0.8610
 4899TIP3    H136188   4.608   4.646   2.589  1.3506  2.0006 -0.1859
 4899TIP3    H236189   4.625   4.651   2.739 -0.2179 -0.3025  0.1210
 4900TIP3   OH236190   6.477   4.728   3.760 -0.1646  0.1020 -0.0399
 4900TIP3    H136191   6.572   4.737   3.768 -0.1591 -0.6579  0.8893
 4900TIP3    H236192   6.451   4.675   3.836 -1.0531 -1.5621 -1.4343
 4901TIP3   OH236193   6.301   0.380   3.520 -0.1521 -0.1391  0.1180
 4901TIP3    H136194   6.318   0.418   3.434 -0.3986  0.2767  0.2473
 4901TIP3    H236195   6.207   0.392   3.534  0.0963  0.9561  0.9815
 4902TIP3   OH236196   2.848   6.048  11.393  0.4503 -0.7540  0.0078
 4902TIP3    H136197   2.851   6.108  11.318  2.3629 -0.8355 -0.0243
 4902TIP3    H236198   2.820   5.965  11.355  0.5611 -0.5840 -0.4657
 4903TIP3   OH236199   4.750   2.968   2.993  0.0700 -0.0814 -0.6184
 4903TIP3    H136200   4.717   3.058   2.989 -2.1757 -0.7825  0.1994
 4903TIP3    H236201   4.687   2.917   2.942  0.6029 -1.3435 -0.0685
 4904TIP3   OH236202   5.628   1.752   0.015 -0.4233  0.0112 -0.5611
 4904TIP3    H136203   5.695   1.768   0.081 -1.0755  1.5974 -0.2466
 4904TIP3    H236204   5.581   1.835   0.008 -1.6527 -0.7415 -1.5663
 4905TIP3   OH236205   5.291   0.286  11.508  0.0961 -0.1247  0.2877
 4905TIP3    H136206   5.336   0.207  11.539  1.5377  0.7477  0.5334
 4905TIP3    H236207   5.216   0.296  11.567 -0.0174 -1.2114  0.3467
 4906TIP3   OH236208   3.422   4.178  13.804 -0.4241 -0.0248  0.4105
 4906TIP3    H136209   3.423   4.260  13.755  0.7465  0.9625  1.9675
 4906TIP3    H236210   3.359   4.194  13.875  1.0161  0.1685  1.6834
 4907TIP3   OH236211   2.363   5.294  12.995  0.1159 -0.3660 -0.2779
 4907TIP3    H136212   2.287   5.265  13.046  0.6101 -0.3029  0.5025
 4907TIP3    H236213   2.359   5.390  12.999  0.5104 -0.3708  0.1610
 4908TIP3   OH236214   6.089   4.847  13.314  0.2073  0.2564 -0.0710
 4908TIP3    H136215   6.122   4.763  13.346 -0.0422  0.1607 -0.0629
 4908TIP3    H236216   6.164   4.906  13.322 -0.1089  0.4825  1.6327
 4909TIP3   OH236217   2.848   4.816  13.996  0.4080 -0.2840 -0.0158
 4909TIP3    H136218   2.790   4.823  14.072 -0.1896 -1.9774 -0.2900
 4909TIP3    H236219   2.821   4.736  13.951  2.2658 -0.5573 -0.7435
 4910TIP3   OH236220   5.259   5.563  14.979 -0.2235 -1.1591 -0.2095
 4910TIP3    H136221   5.287   5.525  14.896 -0.0094 -0.1592 -0.6103
 4910TIP3    H236222   5.263   5.491  15.042  1.6288 -1.4429 -0.6200
 4911TIP3   OH236223   3.461   3.996  13.088 -0.0837  0.1342  0.0378
 4911TIP3    H136224   3.388   4.051  13.117  0.6759  1.4476 -0.4279
 4911TIP3    H236225   3.539   4.043  13.119  0.5904 -0.7901 -0.2232
 4912TIP3   OH236226   4.621   4.453   4.138  0.4610  0.1997 -0.8182
 4912TIP3    H136227   4.704   4.499   4.125  0.5419  0.9199  1.7457
 4912TIP3    H236228   4.644   4.373   4.184 -0.2826  0.7982  0.6710
 4913TIP3   OH236229   5.614   0.861  16.684 -0.1962 -0.5700 -0.1802
 4913TIP3    H136230   5.678   0.798  16.715 -0.7981 -0.8856  0.4455
 4913TIP3    H236231   5.621   0.858  16.588  1.2608 -0.0216 -0.1153
 4914TIP3   OH236232   2.597   6.387   4.746 -0.0831  0.1726  0.5024
 4914TIP3    H136233   2.643   6.375   4.663 -1.9609 -1.8054 -0.3538
 4914TIP3    H236234   2.664   6.374   4.813  1.5081  1.9527 -0.6280
 4915TIP3   OH236235   1.637   6.417  16.291 -0.0054  0.2224  0.0247
 4915TIP3    H136236   1.580   6.492  16.302 -1.8390 -1.1844  0.5579
 4915TIP3    H236237   1.615   6.358  16.363  0.9954 -1.0699 -0.6656
 4916TIP3   OH236238   1.653   1.256  16.870  0.0166  0.4956 -0.0035
 4916TIP3    H136239   1.747   1.238  16.876  0.1313  1.2022  0.4255
 4916TIP3    H236240   1.642   1.341  16.912 -0.7469  0.6492 -0.4969
 4917TIP3   OH236241   5.055   3.297   0.367  0.5654  0.8898 -0.0045
 4917TIP3    H136242   5.064   3.392   0.360  0.6454  1.4755  4.8181
 4917TIP3    H236243   5.130   3.269   0.418 -0.6779 -1.3759  0.7391
 4918TIP3   OH236244   3.821   5.270   5.178 -0.2597 -0.0217 -0.5456
 4918TIP3    H136245   3.757   5.230   5.237 -1.0352  0.2154 -1.2069
 4918TIP3    H236246   3.768   5.311   5.109  0.4449  2.7032  0.4047
 4919TIP3   OH236247   3.103   1.311  14.859  0.5301  0.4987 -0.3383
 4919TIP3    H136248   3.115   1.394  14.906 -0.5020  0.1026  0.6828
 4919TIP3    H236249   3.034   1.330  14.795 -0.5813  0.1649  0.7036
 4920TIP3   OH236250   6.174   1.962   3.544  0.2547  0.3829  0.7435
 4920TIP3    H136251   6.262   1.923   3.547 -0.3969 -1.2995 -0.5026
 4920TIP3    H236252   6.126   1.920   3.615  0.3491  1.0534  1.2110
 4921TIP3   OH236253   3.801   2.536  16.525  0.0927  0.3002  0.2032
 4921TIP3    H136254   3.798   2.536  16.429 -1.3443 -1.3472  0.2196
 4921TIP3    H236255   3.885   2.496  16.546 -0.5763 -1.5481 -0.4139
 4922TIP3   OH236256   6.361   5.749  16.199  0.7920 -0.2894  0.4889
 4922TIP3    H136257   6.403   5.688  16.139  0.4207  1.6530 -1.8987
 4922TIP3    H236258   6.433   5.795  16.242  1.2495  1.5265 -2.0022
 4923TIP3   OH236259   6.709   0.584  15.817 -0.3064  0.1788 -0.0356
 4923TIP3    H136260   6.756   0.661  15.786 -0.7147  0.3290 -0.2959
 4923TIP3    H236261   6.744   0.512  15.764  0.9226 -0.0370  1.0111
 4924TIP3   OH236262   0.290   6.663  13.840 -0.4032  0.0051 -0.0074
 4924TIP3    H136263   0.291   6.675  13.745  0.5290  2.7236  0.2599
 4924TIP3    H236264   0.373   6.619  13.860 -0.0074  0.5808 -0.3535
 4925TIP3   OH236265   5.752   2.407  15.355  0.4271 -0.5868 -0.5332
 4925TIP3    H136266   5.798   2.482  15.392  2.1759 -1.2188 -1.3325
 4925TIP3    H236267   5.818   2.338  15.350 -0.9816 -1.9993 -0.3828
 4926TIP3   OH236268   1.502   1.738  14.038  0.1115 -0.0285 -0.4442
 4926TIP3    H136269   1.500   1.762  13.946 -2.3777 -1.5933 -0.9144
 4926TIP3    H236270   1.455   1.810  14.082  0.3978  0.2202 -0.5424
 4927TIP3   OH236271   1.495   6.430   3.075 -0.2272 -0.0105  0.4210
 4927TIP3    H136272   1.476   6.355   3.019  0.5765  0.1739 -0.1290
 4927TIP3    H236273   1.418   6.487   3.067  0.1273  0.3126 -1.0271
 4928TIP3   OH236274   5.665   0.879   0.773 -0.1433  0.0514  0.6401
 4928TIP3    H136275   5.678   0.971   0.750 -0.3249 -0.4153 -1.4759
 4928TIP3    H236276   5.753   0.844   0.784  0.2217 -0.4775 -2.8162
 4929TIP3   OH236277   5.241   3.458   2.046 -0.9292  0.2804  0.0235
 4929TIP3    H136278   5.158   3.502   2.030 -1.1127 -0.2714 -0.5876
 4929TIP3    H236279   5.261   3.412   1.964  0.8931  1.8718 -0.5035
 4930TIP3   OH236280   0.884   1.239  12.479 -0.0493  0.2514  0.7755
 4930TIP3    H136281   0.943   1.240  12.404 -0.5777 -0.5728  0.3378
 4930TIP3    H236282   0.808   1.188  12.450 -0.0640 -0.4655  1.9995
 4931TIP3   OH236283   6.593   0.781  11.540 -0.1707  0.0389  0.5158
 4931TIP3    H136284   6.615   0.846  11.606 -0.5564 -0.4146  1.0984
 4931TIP3    H236285   6.644   0.704  11.564  1.0938  0.4109 -0.7595
 4932TIP3   OH236286   3.804   1.871  12.342  0.5295  0.7927 -0.2747
 4932TIP3    H136287   3.747   1.802  12.374  0.2069  0.6988 -1.0191
 4932TIP3    H236288   3.816   1.930  12.417 -0.4096  0.7248 -0.0553
 4933TIP3   OH236289   0.585   5.875   1.465 -0.1518  0.0313  0.5865
 4933TIP3    H136290   0.513   5.889   1.403 -0.6077  0.2283  1.1533
 4933TIP3    H236291   0.648   5.821   1.417 -2.4537 -3.6787  1.2996
 4934TIP3   OH236292   3.129   5.371   4.853  0.1941 -0.4479 -0.2022
 4934TIP3    H136293   3.086   5.438   4.906 -0.9457  0.6304 -2.3664
 4934TIP3    H236294   3.222   5.382   4.870 -0.1651 -0.8033  2.2790
 4935TIP3   OH236295   6.782   6.278  16.515 -0.0023 -0.2953 -0.0316
 4935TIP3    H136296   6.704   6.223  16.523 -0.1025 -0.2080 -0.3767
 4935TIP3    H236297   6.838   6.230  16.453  1.0101 -1.2533  1.5665
 4936TIP3   OH236298   3.101   0.282   4.667 -0.0364  0.6399 -0.4787
 4936TIP3    H136299   3.076   0.257   4.756 -0.5263  0.2305 -0.7302
 4936TIP3    H236300   3.112   0.378   4.671  1.3408  0.4753  0.3552
 4937TIP3   OH236301   6.441   5.722  13.854  0.0557  0.3355 -0.0102
 4937TIP3    H136302   6.443   5.673  13.772  0.1258  1.2875 -0.6032
 4937TIP3    H236303   6.349   5.722  13.880  0.2296 -1.1417  0.6597
 4938TIP3   OH236304   6.217   0.877  12.957 -0.5568  0.3512  0.4295
 4938TIP3    H136305   6.131   0.916  12.947 -1.1968 -0.6073  1.9286
 4938TIP3    H236306   6.227   0.820  12.880 -0.5513  1.6722 -0.5852
 4939TIP3   OH236307   2.261   6.513  11.431 -0.2073  0.0078 -0.2514
 4939TIP3    H136308   2.334   6.553  11.479  0.8012  0.7116 -2.2445
 4939TIP3    H236309   2.245   6.572  11.358 -0.5008 -1.8282 -1.7591
 4940TIP3   OH236310   3.693   3.237   1.591  0.2171 -0.3495 -0.0401
 4940TIP3    H136311   3.694   3.151   1.549  1.3337  0.4788 -1.8235
 4940TIP3    H236312   3.775   3.241   1.640  1.3606  0.5391 -1.9067
 4941TIP3   OH236313   0.467   3.003  17.121 -0.0243 -0.2218  0.4138
 4941TIP3    H136314   0.449   2.935  17.186  1.1224  0.7071  1.7721
 4941TIP3    H236315   0.561   3.019  17.128 -0.4396  2.4245  1.1540
 4942TIP3   OH236316   6.488   0.725   2.872 -0.0374 -0.1809 -0.4483
 4942TIP3    H136317   6.474   0.758   2.784  1.8418  0.4170 -0.5510
 4942TIP3    H236318   6.418   0.661   2.885 -1.1324  0.6737 -1.8586
 4943TIP3   OH236319   0.376   6.774   3.019 -0.2011  0.8534  0.6005
 4943TIP3    H136320   0.467   6.800   3.011 -0.6141  1.8942 -1.0693
 4943TIP3    H236321   0.359   6.774   3.114  1.0846  2.2113  0.8544
 4944TIP3   OH236322   5.242   4.915  11.834 -0.6245  0.0644 -0.1893
 4944TIP3    H136323   5.289   4.844  11.791 -0.6494 -1.5044  2.1694
 4944TIP3    H236324   5.304   4.988  11.834  0.5117 -0.8658 -0.2089
 4945TIP3   OH236325   6.540   6.730   4.482  0.7057  0.0455 -0.0766
 4945TIP3    H136326   6.490   6.793   4.429 -2.4192 -2.0073  0.1297
 4945TIP3    H236327   6.562   6.660   4.420  2.5218  0.4109  0.0962
 4946TIP3   OH236328   2.966   0.606  15.147 -0.4682  0.2078 -0.3210
 4946TIP3    H136329   3.044   0.552  15.140 -0.5469  0.0949 -0.3392
 4946TIP3    H236330   2.934   0.591  15.236  0.0026  0.9124 -0.0221
 4947TIP3   OH236331   5.727   6.728  12.946  0.3678  0.3642 -0.3011
 4947TIP3    H136332   5.696   6.671  13.016 -0.4533  0.6077 -0.4537
 4947TIP3    H236333   5.656   6.729  12.882  1.5451 -0.7431 -1.6937
 4948TIP3   OH236334   3.030   3.038   5.533  0.0800 -0.2806 -0.1090
 4948TIP3    H136335   2.950   3.079   5.567 -0.1359 -0.3969 -0.4724
 4948TIP3    H236336   3.009   2.945   5.527 -0.3081 -0.1199 -1.7016
 4949TIP3   OH236337   3.971   1.149   2.835 -0.0962 -0.6291 -0.3591
 4949TIP3    H136338   3.899   1.207   2.814  0.1322 -0.1302  0.2327
 4949TIP3    H236339   3.971   1.143   2.930  0.7173 -0.5170 -0.3438
 4950TIP3   OH236340   6.171   2.271  14.360  0.0900 -0.8337 -0.4305
 4950TIP3    H136341   6.214   2.300  14.440  0.4812 -0.4776 -0.7689
 4950TIP3    H236342   6.099   2.332  14.348 -0.8093 -1.6973  0.3802
 4951TIP3   OH236343   4.380   1.754   0.039 -0.7290  0.2929  0.2473
 4951TIP3    H136344   4.309   1.714  -0.012 -0.3428 -1.3482  0.9305
 4951TIP3    H236345   4.344   1.765   0.126 -0.0124 -1.1060  0.7608
 4952TIP3   OH236346   2.901   1.253  15.909 -0.1903  0.0177  0.3245
 4952TIP3    H136347   2.932   1.227  15.822 -0.6852  0.5899 -0.0297
 4952TIP3    H236348   2.981   1.273  15.958  0.0712  0.1316 -0.1426
 4953TIP3   OH236349   3.903   4.321   2.436  0.3534 -0.1773 -0.0623
 4953TIP3    H136350   3.866   4.287   2.517 -0.0784 -0.7215 -0.4801
 4953TIP3    H236351   3.988   4.358   2.462  1.1204 -2.1046  0.3204
 4954TIP3   OH236352   1.695   4.012   1.366 -0.0775 -0.6343  0.2201
 4954TIP3    H136353   1.681   4.100   1.401  0.3144 -0.3783 -0.2520
 4954TIP3    H236354   1.752   3.969   1.430  0.9571 -0.0379 -0.2787
 4955TIP3   OH236355   3.331   6.073   0.504  1.0430 -0.1546 -0.2928
 4955TIP3    H136356   3.394   6.018   0.550  2.2691 -0.4319 -2.2006
 4955TIP3    H236357   3.245   6.045   0.538  1.4862 -3.9766 -1.8020
 4956TIP3   OH236358   5.268   4.186   1.836 -0.1727 -0.2170  0.5126
 4956TIP3    H136359   5.194   4.246   1.836 -0.9218 -1.1205  1.2957
 4956TIP3    H236360   5.275   4.157   1.744 -1.9031 -1.4355  0.7151
 4957TIP3   OH236361   3.410   0.984   0.927 -0.1554 -0.5776  0.1660
 4957TIP3    H136362   3.497   1.009   0.893 -1.6773  1.3260 -2.7559
 4957TIP3    H236363   3.405   1.026   1.013  0.8860  1.5574 -0.7380
 4958TIP3   OH236364   0.519   3.172  12.243 -0.3479  0.1212  0.2758
 4958TIP3    H136365   0.552   3.089  12.278 -0.0402  0.3262  0.4756
 4958TIP3    H236366   0.519   3.159  12.148 -1.7990 -0.6602  0.3575
 4959TIP3   OH236367   2.786   1.144   1.752 -0.5307 -0.1201  0.6701
 4959TIP3    H136368   2.795   1.223   1.806  0.3922  0.7983 -0.7499
 4959TIP3    H236369   2.855   1.152   1.686 -3.0862  0.1248 -2.2114
 4960TIP3   OH236370   2.803   0.226   3.261  0.4846  0.1241 -0.3398
 4960TIP3    H136371   2.877   0.214   3.202 -0.2071  2.9461 -1.9704
 4960TIP3    H236372   2.835   0.288   3.327  0.6910 -1.6615  1.3546
 4961TIP3   OH236373   5.824   3.860   4.797 -0.5584 -0.9193 -0.5687
 4961TIP3    H136374   5.893   3.799   4.825  0.8952  0.9280  0.0919
 4961TIP3    H236375   5.850   3.888   4.709 -0.1639  0.1378 -0.1362
 4962TIP3   OH236376   6.253   6.692  14.021  0.4880 -0.1866 -0.4141
 4962TIP3    H136377   6.320   6.735  13.967  1.6870 -0.3191  0.9200
 4962TIP3    H236378   6.267   6.598  14.007  0.6671 -0.2172 -0.0277
 4963TIP3   OH236379   1.517   5.998   1.798  0.0510 -0.3806 -0.2164
 4963TIP3    H136380   1.607   6.027   1.784  0.7594 -2.1438  0.4408
 4963TIP3    H236381   1.500   5.934   1.729 -1.0484  0.6004 -0.8996
 4964TIP3   OH236382   5.260   0.769  14.185  0.5332  0.0608  0.1772
 4964TIP3    H136383   5.202   0.824  14.237  0.9204  1.1353 -0.4972
 4964TIP3    H236384   5.209   0.691  14.166 -0.8594  1.1472 -0.7389
 4965TIP3   OH236385   4.304   4.357  14.526  0.0040 -0.3994  0.0358
 4965TIP3    H136386   4.343   4.438  14.493 -0.7658  0.2458  0.6391
 4965TIP3    H236387   4.321   4.292  14.458 -1.0694  0.7476 -1.3873
 4966TIP3   OH236388   2.815   2.217   1.033 -0.0625  0.6202 -0.7304
 4966TIP3    H136389   2.880   2.148   1.046 -3.5894 -2.6695  1.4001
 4966TIP3    H236390   2.827   2.243   0.941  2.4318 -1.7039 -1.2024
 4967TIP3   OH236391   6.367   2.917  11.532 -0.0023  0.4807  0.4285
 4967TIP3    H136392   6.346   2.973  11.606  2.5598  0.0465  1.6115
 4967TIP3    H236393   6.408   2.840  11.571 -1.3978 -1.2425 -1.2933
 4968TIP3   OH236394   1.464   2.420  13.994 -0.3319  0.5655 -0.0919
 4968TIP3    H136395   1.519   2.403  13.918  0.5117 -0.2370  0.6832
 4968TIP3    H236396   1.500   2.365  14.063 -1.2812  1.0404  0.8108
 4969TIP3   OH236397   2.709   4.915  11.455 -0.0941 -0.0630 -0.2275
 4969TIP3    H136398   2.670   5.002  11.460 -0.0963 -0.0466 -0.4902
 4969TIP3    H236399   2.782   4.917  11.516 -1.6404 -0.7053  1.7968
 4970TIP3   OH236400   3.182   4.829  11.370 -0.3455 -1.0333 -0.1866
 4970TIP3    H136401   3.186   4.919  11.338 -0.2450 -0.0694  2.3628
 4970TIP3    H236402   3.268   4.793  11.349 -0.5064 -0.6984 -1.5481
 4971TIP3   OH236403   6.457   6.155  12.090  0.1779  0.2375 -0.2178
 4971TIP3    H136404   6.370   6.117  12.082  0.2701  0.0484 -0.3357
 4971TIP3    H236405   6.470   6.166  12.184  0.5808 -1.0448 -0.1025
 4972TIP3   OH236406   5.891   2.624   0.044 -0.3164  0.3452 -0.0581
 4972TIP3    H136407   5.874   2.661   0.130  2.4683 -0.3108  0.8863
 4972TIP3    H236408   5.986   2.628   0.035 -0.4870  0.0064 -2.9557
 4973TIP3   OH236409   2.155   1.697   6.034  0.3368  0.2240  0.2439
 4973TIP3    H136410   2.184   1.782   6.001  0.9965 -0.2348 -0.4034
 4973TIP3    H236411   2.155   1.640   5.957 -3.1903  0.3641 -0.0327
 4974TIP3   OH236412   4.487   0.222  12.937 -0.3537  0.6565 -0.1406
 4974TIP3    H136413   4.502   0.129  12.956 -0.8011  0.5437 -0.3254
 4974TIP3    H236414   4.507   0.230  12.843 -2.9032  0.1692 -0.7855
 4975TIP3   OH236415   0.224   4.391   2.453 -0.0808 -0.7022  0.9375
 4975TIP3    H136416   0.263   4.371   2.368 -1.0238 -0.6837  0.4871
 4975TIP3    H236417   0.177   4.311   2.477  0.1819 -0.7060  1.4378
 4976TIP3   OH236418   2.902   4.703   5.761 -0.4136  0.2722  0.2027
 4976TIP3    H136419   2.913   4.785   5.714  0.3945 -0.4861 -0.9820
 4976TIP3    H236420   2.819   4.668   5.729  1.1192 -1.2802 -2.4214
 4977TIP3   OH236421   2.353   3.521   1.199 -0.5854 -0.4245  0.3183
 4977TIP3    H136422   2.294   3.491   1.269 -0.6878  2.0797  1.3965
 4977TIP3    H236423   2.297   3.526   1.122 -1.0649 -0.8980  0.6247
 4978TIP3   OH236424   2.399   3.176   4.168 -0.7802  0.2058 -0.0709
 4978TIP3    H136425   2.415   3.096   4.118  0.9177  0.8239 -0.5599
 4978TIP3    H236426   2.391   3.244   4.102  0.0858  0.8042  0.4226
 4979TIP3   OH236427   3.030   3.490  12.117  0.3191  0.4379 -0.0487
 4979TIP3    H136428   3.085   3.504  12.194  0.6625  0.1857 -0.2428
 4979TIP3    H236429   3.086   3.441  12.057  0.4992  1.7314 -0.9751
 4980TIP3   OH236430   0.753   2.428  12.271 -0.3695  0.3465 -0.3296
 4980TIP3    H136431   0.660   2.424  12.293 -0.7430  0.7901 -1.7572
 4980TIP3    H236432   0.791   2.353  12.317 -1.6566 -0.6444 -0.8103
 4981TIP3   OH236433   1.058   4.056   5.229 -0.0997  0.1751 -0.0244
 4981TIP3    H136434   1.121   4.090   5.166  0.2991 -1.8621 -0.8032
 4981TIP3    H236435   1.108   3.991   5.279 -1.2262 -0.4731  0.2762
 4982TIP3   OH236436   3.519   3.412  14.911 -0.2750  0.0448 -0.2270
 4982TIP3    H136437   3.526   3.360  14.991  0.6195 -1.0723 -0.9970
 4982TIP3    H236438   3.610   3.432  14.887 -0.4423 -0.7466 -1.6463
 4983TIP3   OH236439   3.678   2.574   3.744 -0.1441  0.0437  0.1312
 4983TIP3    H136440   3.710   2.649   3.795  0.5863 -0.5267  0.5375
 4983TIP3    H236441   3.746   2.558   3.679  0.2803 -0.9863  0.7991
 4984TIP3   OH236442   6.368   1.511   0.441 -0.6507 -0.6667  0.4060
 4984TIP3    H136443   6.445   1.554   0.476 -1.3643  3.5288 -2.4084
 4984TIP3    H236444   6.298   1.531   0.504 -0.5970  1.0052 -0.0111
 4985TIP3   OH236445   2.421   0.455   3.616  0.2797 -0.2303  0.5448
 4985TIP3    H136446   2.509   0.448   3.580  0.7238  3.1367  0.6724
 4985TIP3    H236447   2.370   0.500   3.549 -1.0568 -1.0159  0.9764
 4986TIP3   OH236448   2.402   2.000   1.950  0.2916 -0.2602  0.5779
 4986TIP3    H136449   2.321   1.991   2.000 -0.6919  0.4235 -0.7977
 4986TIP3    H236450   2.394   2.086   1.908  0.7362 -1.0410 -1.2338
 4987TIP3   OH236451   3.267   6.632  14.226 -0.1569  0.2643 -0.0885
 4987TIP3    H136452   3.344   6.633  14.169  0.6289 -2.2350  0.7858
 4987TIP3    H236453   3.300   6.656  14.312 -0.5968  0.2952  0.0755
 4988TIP3   OH236454   4.487   3.894  15.185 -0.5008 -0.1091 -0.2614
 4988TIP3    H136455   4.505   3.890  15.091  0.9866  0.9989 -0.0578
 4988TIP3    H236456   4.510   3.983  15.210 -0.4105 -0.5338  1.2466
 4989TIP3   OH236457   6.308   1.585  16.772  0.1569  0.1270 -0.4526
 4989TIP3    H136458   6.335   1.674  16.794  2.4411  0.1075 -2.7282
 4989TIP3    H236459   6.224   1.574  16.817  0.2050  3.0952  0.6019
 4990TIP3   OH236460   0.618   5.497  11.881  0.1974 -0.2319  0.5091
 4990TIP3    H136461   0.685   5.430  11.895 -0.5775 -1.1020  0.2096
 4990TIP3    H236462   0.599   5.491  11.787 -0.8901 -0.5943  0.7405
 4991TIP3   OH236463   1.049   1.238   4.323 -0.1513  0.5444  0.0946
 4991TIP3    H136464   1.019   1.324   4.350  0.1549  0.3297  1.1739
 4991TIP3    H236465   1.144   1.240   4.337 -0.0987  0.1429 -0.1901
 4992TIP3   OH236466   4.157   3.509  11.672  0.5597 -0.3530 -0.0608
 4992TIP3    H136467   4.231   3.455  11.646  0.8542  1.2061 -2.9902
 4992TIP3    H236468   4.081   3.453  11.660  1.0467 -0.9794 -0.2621
 4993TIP3   OH236469   6.205   1.122   0.467  0.2014 -0.0999 -0.2230
 4993TIP3    H136470   6.272   1.159   0.410 -0.0249 -2.2681 -1.9932
 4993TIP3    H236471   6.190   1.034   0.434 -1.1521 -0.8826  2.1962
 4994TIP3   OH236472   2.365   1.358   5.880  0.1275 -0.0583 -0.0311
 4994TIP3    H136473   2.456   1.386   5.891 -0.2926  1.1059  0.6797
 4994TIP3    H236474   2.364   1.267   5.909  0.6199  0.6023  2.2235
 4995TIP3   OH236475   3.858   1.611  13.419  0.7409  0.3186  0.8955
 4995TIP3    H136476   3.945   1.618  13.458  0.1958 -1.0344  2.4794
 4995TIP3    H236477   3.813   1.545  13.472 -0.9639  0.3356 -0.4280
 4996TIP3   OH236478   2.343   2.688  11.489 -0.2063  0.8433  0.0755
 4996TIP3    H136479   2.373   2.602  11.519 -0.2930  0.5970 -0.5232
 4996TIP3    H236480   2.423   2.741  11.486  0.2832  0.1153 -1.7589
 4997TIP3   OH236481   1.301   3.728   2.541 -0.0582  0.0707 -0.4016
 4997TIP3    H136482   1.240   3.772   2.482  1.0957  0.0369 -1.6631
 4997TIP3    H236483   1.330   3.651   2.493  0.8434 -0.0058  0.2365
 4998TIP3   OH236484   1.081   3.236  11.780 -0.7063  0.1951 -0.2536
 4998TIP3    H136485   1.017   3.286  11.831  0.7894  0.5509  1.3527
 4998TIP3    H236486   1.149   3.299  11.757 -0.0503 -0.5483 -0.4199
 4999TIP3   OH236487   0.477   4.566   3.585 -0.4092 -0.3745 -0.3007
 4999TIP3    H136488   0.515   4.501   3.526 -0.4486 -0.2450 -0.4692
 4999TIP3    H236489   0.479   4.524   3.672 -1.5999 -1.0983 -0.6019
 5000TIP3   OH236490   0.803   5.076  16.056  0.5466 -0.4305 -0.3699
 5000TIP3    H136491   0.813   5.168  16.031 -0.1578  0.3335  1.8990
 5000TIP3    H236492   0.795   5.078  16.151 -0.2702 -2.7896 -0.3240
 5001TIP3   OH236493   0.171   0.749   5.577 -0.4868  0.2071  0.3179
 5001TIP3    H136494   0.224   0.669   5.581 -0.8907 -0.1015 -0.2904
 5001TIP3    H236495   0.089   0.724   5.620 -0.5765  0.3248  0.2136
 5002TIP3   OH236496   1.619   6.397   4.985 -0.0186  1.0143  0.1038
 5002TIP3    H136497   1.668   6.384   5.067 -0.2620 -0.5351  0.0409
 5002TIP3    H236498   1.643   6.485   4.957  0.0190  1.6204  1.8695
 5003TIP3   OH236499   6.765   4.199   0.209  0.7294 -0.1142 -0.5722
 5003TIP3    H136500   6.788   4.263   0.141  0.3512 -2.3531 -2.9894
 5003TIP3    H236501   6.846   4.185   0.257  1.0895  1.3418 -0.7119
 5004TIP3   OH236502   6.811   1.220   4.997  0.2800 -0.0341  1.0402
 5004TIP3    H136503   6.899   1.243   4.968 -0.3127 -0.0946 -0.9507
 5004TIP3    H236504   6.814   1.125   5.007 -0.2075 -0.4044 -1.6482
 5005TIP3   OH236505   1.946   5.232  10.704 -0.6121  0.1045  0.1920
 5005TIP3    H136506   1.969   5.299  10.639 -1.4099 -0.1646 -0.3906
 5005TIP3    H236507   1.861   5.260  10.738 -3.0401 -2.5874 -2.9806
 5006TIP3   OH236508   5.424   0.711  16.484 -0.3465 -0.3998  0.0338
 5006TIP3    H136509   5.403   0.771  16.412 -4.6675  0.6567  1.8395
 5006TIP3    H236510   5.393   0.626  16.454  0.2222 -0.5113 -0.2591
 5007TIP3   OH236511   3.927   4.948  12.025  0.6242 -0.3021 -0.6092
 5007TIP3    H136512   3.936   5.043  12.012  1.0355 -0.2419  0.0366
 5007TIP3    H236513   4.005   4.911  11.985  0.8326 -0.2995 -0.2108
 5008TIP3   OH236514   5.374   3.390   0.821 -0.0627 -0.4517  0.1891
 5008TIP3    H136515   5.420   3.307   0.833 -1.5101 -1.0750  1.9243
 5008TIP3    H236516   5.330   3.405   0.905 -0.5101  1.6643 -0.3736
 5009TIP3   OH236517   3.382   0.143  11.536 -0.3020  0.2299 -0.0973
 5009TIP3    H136518   3.462   0.112  11.577  0.5496 -1.9515 -3.0746
 5009TIP3    H236519   3.395   0.237  11.526  1.5567  0.0312  0.1735
 5010TIP3   OH236520   5.240   1.665  15.032  0.0926  0.4233  0.2437
 5010TIP3    H136521   5.270   1.613  15.106  2.0664 -0.0234 -0.8045
 5010TIP3    H236522   5.225   1.752  15.067  0.8068  0.1684  1.2126
 5011TIP3   OH236523   3.918   2.004  15.918  0.6620 -0.5350 -0.4020
 5011TIP3    H136524   3.995   2.060  15.930 -0.6196  1.3946 -0.7469
 5011TIP3    H236525   3.947   1.917  15.944  2.7451  0.2771  0.1615
 5012TIP3   OH236526   0.602   0.146  14.123  0.4258  0.0790 -0.1280
 5012TIP3    H136527   0.605   0.242  14.117 -1.1096  0.1921  0.4499
 5012TIP3    H236528   0.638   0.126  14.209  1.6133  0.0546 -0.6155
 5013TIP3   OH236529   6.790   0.369   5.256  0.1376  0.2195  0.3644
 5013TIP3    H136530   6.860   0.428   5.226  0.0630  0.9478  1.5531
 5013TIP3    H236531   6.727   0.427   5.299 -0.4705 -0.6126  0.6167
 5014TIP3   OH236532   2.951   3.650   1.370 -0.1846 -0.3558  0.2402
 5014TIP3    H136533   2.968   3.739   1.403 -0.0623 -0.6126  0.8870
 5014TIP3    H236534   3.007   3.594   1.423  0.5050 -0.7333 -0.8578
 5015TIP3   OH236535   5.342   3.380   4.937  0.1482 -0.4820  0.4519
 5015TIP3    H136536   5.278   3.448   4.914  1.0999  0.5649  0.7926
 5015TIP3    H236537   5.406   3.383   4.866  0.4449 -0.6962  0.7105
 5016TIP3   OH236538   0.450   0.364   0.772  0.1733  0.0801  0.3953
 5016TIP3    H136539   0.398   0.357   0.692 -1.0728  0.9644  1.0820
 5016TIP3    H236540   0.535   0.326   0.750  0.5960  2.1847 -1.9663
 5017TIP3   OH236541   4.424   4.506  16.806  0.2155  0.9243  0.0577
 5017TIP3    H136542   4.488   4.470  16.869  0.7364 -0.8866 -1.4109
 5017TIP3    H236543   4.347   4.526  16.859  0.9099  0.1733  1.4034
 5018TIP3   OH236544   1.719   4.993  17.259 -0.1173  0.2044  0.2755
 5018TIP3    H136545   1.789   5.002  17.324  1.0426  0.9603 -1.0105
 5018TIP3    H236546   1.650   4.946  17.305  2.0918 -2.6536  0.9565
 5019TIP3   OH236547   4.411   3.095   1.536 -0.5237  0.2285  0.0664
 5019TIP3    H136548   4.387   3.151   1.610 -0.1163  0.7109 -0.1638
 5019TIP3    H236549   4.361   3.014   1.550 -1.2569  0.7115  0.3054
 5020TIP3   OH236550   5.412   3.089  13.339  0.1012 -0.2154 -0.2231
 5020TIP3    H136551   5.473   3.150  13.379  0.4642 -0.1969 -0.7864
 5020TIP3    H236552   5.367   3.048  13.412 -0.0743  0.6474  0.1748
 5021TIP3   OH236553   1.167   4.447   6.032 -0.0019  0.3309  0.1113
 5021TIP3    H136554   1.110   4.444   6.109  0.5063  2.0079  0.5991
 5021TIP3    H236555   1.249   4.408   6.062 -0.3166 -0.5031 -0.0825
 5022TIP3   OH236556   3.456   3.542   1.118  0.0896 -0.4641 -0.2155
 5022TIP3    H136557   3.451   3.539   1.213  2.4828  0.8775  0.0397
 5022TIP3    H236558   3.533   3.490   1.096  0.5570  0.5955 -1.2259
 5023TIP3   OH236559   4.014   4.184  14.935  0.5865 -0.3570 -0.1690
 5023TIP3    H136560   3.967   4.120  14.988 -1.4550  0.8126 -0.4543
 5023TIP3    H236561   4.061   4.239  14.999  0.4254 -0.6808  0.2267
 5024TIP3   OH236562   5.874   1.701   0.616 -0.0577  0.3264  0.2082
 5024TIP3    H136563   5.799   1.705   0.675  0.3844 -2.7356  1.1521
 5024TIP3    H236564   5.836   1.716   0.529 -1.3652  1.0696  0.8655
 5025TIP3   OH236565   4.910   3.108  12.355 -0.4968  0.0962  0.1894
 5025TIP3    H136566   4.908   3.106  12.259 -0.1468 -0.8927  0.1987
 5025TIP3    H236567   5.003   3.103  12.377 -0.5816  0.2262  0.5890
 5026TIP3   OH236568   2.568   6.250   3.562 -0.1190 -0.1989  0.3920
 5026TIP3    H136569   2.505   6.320   3.576  0.4025  0.2474  0.5446
 5026TIP3    H236570   2.654   6.292   3.576  0.2151 -0.7491  0.0116
 5027TIP3   OH236571   0.356   6.755  11.396  0.0554 -0.0792 -0.3206
 5027TIP3    H136572   0.346   6.678  11.451  0.9475 -0.0063 -0.0371
 5027TIP3    H236573   0.405   6.817  11.451 -0.7561  0.7337 -0.4968
 5028TIP3   OH236574   1.450   4.996  13.554 -0.3296  0.1688  0.5498
 5028TIP3    H136575   1.445   5.061  13.484 -0.9513 -0.2537  0.1928
 5028TIP3    H236576   1.494   4.921  13.515 -0.8364 -0.1340  0.5509
 5029TIP3   OH236577   0.925   5.361   1.593 -0.3788  0.3246  0.4442
 5029TIP3    H136578   0.968   5.377   1.676  2.6905 -4.4860  0.1489
 5029TIP3    H236579   0.958   5.429   1.535  2.7680 -0.0387  1.6225
 5030TIP3   OH236580   2.161   3.499  11.590 -0.2032  0.2768 -0.0544
 5030TIP3    H136581   2.127   3.588  11.584  0.2118  0.4464  0.0906
 5030TIP3    H236582   2.092   3.449  11.634 -1.0193  0.2155 -1.3446
 5031TIP3   OH236583   2.857   0.747   0.216 -0.0094  0.1970  0.4950
 5031TIP3    H136584   2.902   0.668   0.184  0.0083  0.0913  0.7749
 5031TIP3    H236585   2.817   0.785   0.138  1.7313  1.0669 -0.0237
 5032TIP3   OH236586   6.608   0.710  11.895  0.3658 -0.1661  0.9262
 5032TIP3    H136587   6.659   0.647  11.844  0.8527  0.7449  0.2545
 5032TIP3    H236588   6.596   0.784  11.835 -2.7024 -0.7578  0.6475
 5033TIP3   OH236589   6.250   3.380  14.211  0.2917 -0.0043 -0.0983
 5033TIP3    H136590   6.327   3.371  14.267 -0.3151  0.4883  0.8417
 5033TIP3    H236591   6.195   3.304  14.233 -0.5685  0.9020  1.0011
 5034TIP3   OH236592   5.110   3.625   4.522  0.1167 -0.2938 -0.4139
 5034TIP3    H136593   5.168   3.647   4.450 -0.8857 -0.7101 -1.3935
 5034TIP3    H236594   5.063   3.547   4.491 -0.9168  0.0049  0.3538
 5035TIP3   OH236595   0.468   0.127  11.524 -0.1460 -0.1484  0.0044
 5035TIP3    H136596   0.516   0.162  11.599 -0.1131  0.0989 -0.1314
 5035TIP3    H236597   0.466   0.199  11.461 -0.0615 -0.3984 -0.2843
 5036TIP3   OH236598   0.716   0.308  16.392 -0.2219  0.3615 -0.2361
 5036TIP3    H136599   0.694   0.365  16.318 -1.4198 -0.6738 -0.7265
 5036TIP3    H236600   0.631   0.286  16.431 -0.0605 -2.6467 -1.2740
 5037TIP3   OH236601   3.857   0.452  14.227 -0.2056 -0.6054 -0.0095
 5037TIP3    H136602   3.913   0.418  14.297  0.3758 -1.4725 -0.8708
 5037TIP3    H236603   3.769   0.420  14.249 -0.0691 -0.6997  0.4239
 5038TIP3   OH236604   0.089   0.825   1.860 -0.2706  0.2404 -0.0142
 5038TIP3    H136605   0.046   0.904   1.827  0.6770  0.1108 -1.6771
 5038TIP3    H236606   0.019   0.761   1.868 -0.8822  0.9389  0.3645
 5039TIP3   OH236607   6.583   3.431   3.972  0.3068  0.0915 -0.3628
 5039TIP3    H136608   6.648   3.499   3.988  0.7692 -0.0654 -1.4782
 5039TIP3    H236609   6.624   3.350   4.001  0.3489  0.0788 -0.4593
 5040TIP3   OH236610   4.098   3.654   3.338  0.9883 -0.0252  0.3782
 5040TIP3    H136611   4.079   3.644   3.245  1.5314 -0.0211  0.2650
 5040TIP3    H236612   4.021   3.618   3.382  0.3173  0.8167 -0.0738
 5041TIP3   OH236613   0.214   3.920   2.108  0.0653 -0.1369 -0.3801
 5041TIP3    H136614   0.162   3.999   2.119 -0.8800 -0.9646  1.7602
 5041TIP3    H236615   0.187   3.884   2.024 -1.6715  0.2926 -0.0486
 5042TIP3   OH236616   4.308   6.374  11.540  0.3689 -0.1414  0.6666
 5042TIP3    H136617   4.355   6.303  11.496  2.5146  1.0685  0.8772
 5042TIP3    H236618   4.374   6.416  11.595 -0.2827  3.2173 -0.8774
 5043TIP3   OH236619   6.212   0.285  12.461 -0.0116  0.0456  0.0120
 5043TIP3    H136620   6.168   0.364  12.492 -1.2509 -0.8303  0.5861
 5043TIP3    H236621   6.234   0.237  12.541 -1.4990 -1.3313 -0.3531
 5044TIP3   OH236622   6.013   0.557  16.985 -0.3671 -0.1652  0.0820
 5044TIP3    H136623   6.099   0.534  16.952 -0.1192  1.0228 -0.1421
 5044TIP3    H236624   6.020   0.546  17.080  0.1916  0.4149  0.1104
 5045TIP3   OH236625   2.219   5.931  16.699  0.2562  0.2496 -0.2975
 5045TIP3    H136626   2.181   6.014  16.729  0.2120  0.6528 -1.4138
 5045TIP3    H236627   2.168   5.864  16.745  0.6345  0.8304  1.0146
 5046TIP3   OH236628   4.756   5.706   5.105 -0.2134 -0.7950  0.3895
 5046TIP3    H136629   4.745   5.751   5.189 -0.5481 -0.8812  0.3900
 5046TIP3    H236630   4.807   5.767   5.052 -1.2232 -0.1328  0.1633
 5047TIP3   OH236631   6.059   6.424  15.690 -0.1576  0.4412  0.4213
 5047TIP3    H136632   6.043   6.470  15.607  0.3954 -0.4568 -0.2053
 5047TIP3    H236633   6.150   6.445  15.711 -0.2252  0.4722  0.6764
 5048TIP3   OH236634   6.615   2.814  12.372 -0.0732 -0.6465 -0.0435
 5048TIP3    H136635   6.689   2.874  12.386  0.5589 -1.2532 -0.7292
 5048TIP3    H236636   6.549   2.843  12.435  1.0114 -0.5306  1.0824
 5049TIP3   OH236637   3.377   2.360  16.004  0.0246  0.1601  0.1490
 5049TIP3    H136638   3.375   2.426  15.935  0.0013  1.3136  1.2333
 5049TIP3    H236639   3.316   2.392  16.070 -2.0079 -2.2329 -0.3988
 5050TIP3   OH236640   5.812   0.796   0.154  0.0787  0.7200 -0.3680
 5050TIP3    H136641   5.777   0.789   0.243  0.7067  1.6129 -0.0390
 5050TIP3    H236642   5.807   0.889   0.134 -0.7713  0.4394 -1.5741
 5051TIP3   OH236643   6.777   0.782  15.257  0.0584 -0.3897  0.3729
 5051TIP3    H136644   6.719   0.748  15.325 -2.1016  1.0320 -0.6212
 5051TIP3    H236645   6.784   0.876  15.278  0.4262 -0.1920 -0.6120
 5052TIP3   OH236646   0.395   5.555  11.522 -0.5229 -0.5796 -0.5811
 5052TIP3    H136647   0.473   5.577  11.573 -1.7061  0.6383  0.8389
 5052TIP3    H236648   0.424   5.554  11.431  1.0789  0.1078 -0.1068
 5053TIP3   OH236649   0.420   6.549   6.817  0.2559  0.2611  0.6777
 5053TIP3    H136650   0.487   6.593   6.871  1.0329 -0.1659  0.0870
 5053TIP3    H236651   0.337   6.582   6.850  0.6271 -0.8182  2.9232
 5054TIP3   OH236652   3.490   1.556   4.805 -0.4700 -0.0243  0.0617
 5054TIP3    H136653   3.562   1.584   4.750 -1.2007  0.1148 -0.8518
 5054TIP3    H236654   3.458   1.636   4.846  0.4196 -0.1990  1.1514
 5055TIP3   OH236655   3.493   6.378   4.767  0.1158 -0.2535 -0.0441
 5055TIP3    H136656   3.489   6.297   4.818 -2.3628  0.2164  0.6333
 5055TIP3    H236657   3.472   6.447   4.830  3.0479  1.1349 -0.3905
 5056TIP3   OH236658   0.437   1.842   2.226 -0.1079 -0.3319 -0.1227
 5056TIP3    H136659   0.402   1.884   2.148 -2.0321 -0.1293  0.7972
 5056TIP3    H236660   0.401   1.753   2.223 -0.5893 -0.1742  0.7627
 5057TIP3   OH236661   4.102   5.992   2.513  0.1720 -0.2399 -0.1752
 5057TIP3    H136662   4.015   6.024   2.491  0.5278 -0.1625 -1.5378
 5057TIP3    H236663   4.087   5.923   2.577 -0.8874 -0.2743 -0.4464
 5058TIP3   OH236664   2.129   0.627  16.956 -0.0165 -0.1525  0.6155
 5058TIP3    H136665   2.204   0.667  17.001  0.2025  0.4110 -0.2391
 5058TIP3    H236666   2.053   0.652  17.010 -0.0506  2.4565 -0.4977
 5059TIP3   OH236667   3.527   4.679   4.014 -0.7095 -0.0709 -0.2993
 5059TIP3    H136668   3.481   4.719   4.089  0.6298  0.5108  0.2394
 5059TIP3    H236669   3.472   4.700   3.939  0.1463  3.3344 -0.1355
 5060TIP3   OH236670   3.093   6.285   2.397 -0.2719 -0.2997 -0.0266
 5060TIP3    H136671   3.013   6.310   2.350 -1.3420 -0.8946  1.4274
 5060TIP3    H236672   3.076   6.308   2.488  0.5361 -2.0225  0.5956
 5061TIP3   OH236673   5.685   0.322  14.835  0.1565  0.4942 -0.3255
 5061TIP3    H136674   5.595   0.318  14.867 -0.0174  0.2408 -0.8407
 5061TIP3    H236675   5.701   0.415  14.819  0.2600  0.6338  0.5181
 5062TIP3   OH236676   6.608   1.442   3.746  0.0458  0.3579  0.0616
 5062TIP3    H136677   6.627   1.352   3.722  0.8843  0.4397  0.3979
 5062TIP3    H236678   6.642   1.494   3.673  0.4895  0.4636  0.3440
 5063TIP3   OH236679   6.726   1.225   3.086  0.7287  0.7417 -0.2410
 5063TIP3    H136680   6.724   1.176   3.168 -1.3078 -1.4438 -1.4556
 5063TIP3    H236681   6.811   1.204   3.047 -0.3189 -2.7079 -1.0649
 5064TIP3   OH236682   3.975   4.542  15.242 -0.0402  0.2874 -0.2770
 5064TIP3    H136683   3.964   4.634  15.265  1.4975  0.3178  0.4899
 5064TIP3    H236684   3.941   4.494  15.318  1.4660  0.3117  0.4600
 5065TIP3   OH236685   2.096   4.018  13.655 -0.2139  0.6771 -0.4662
 5065TIP3    H136686   2.124   3.940  13.607  1.8684  0.3895  1.0969
 5065TIP3    H236687   2.102   4.089  13.591  0.3025 -0.0537 -1.2505
 5066TIP3   OH236688   4.863   4.759  14.877  0.1176 -0.0714 -0.1849
 5066TIP3    H136689   4.802   4.821  14.836 -0.6865 -1.2747 -0.9111
 5066TIP3    H236690   4.870   4.688  14.813  0.2970 -1.1471  0.9927
 5067TIP3   OH236691   2.816   4.043   5.969  0.2529  0.1590  0.3887
 5067TIP3    H136692   2.753   4.111   5.992  1.9665  1.3983  1.6796
 5067TIP3    H236693   2.768   3.961   5.982 -1.7968  1.0489 -1.0303
 5068TIP3   OH236694   4.868   4.405  15.875 -0.7464 -0.4057  0.2393
 5068TIP3    H136695   4.872   4.500  15.887 -2.2516 -0.2152 -0.4861
 5068TIP3    H236696   4.792   4.378  15.928 -0.7632 -1.0924 -0.1192
 5069TIP3   OH236697   2.900   5.690  16.225  0.0073  0.1666  0.2462
 5069TIP3    H136698   2.975   5.699  16.284  0.8485  0.0200 -0.7660
 5069TIP3    H236699   2.880   5.596  16.226  0.2373  0.1154  0.0372
 5070TIP3   OH236700   6.069   0.524   5.325 -0.0962 -0.3792 -0.3539
 5070TIP3    H136701   6.033   0.613   5.332 -0.0091 -0.3617 -0.0945
 5070TIP3    H236702   6.002   0.474   5.279 -0.9856 -0.6293  1.1391
 5071TIP3   OH236703   5.047   3.085  16.148  0.2844  0.0253 -0.6853
 5071TIP3    H136704   5.055   3.088  16.243  1.3463 -0.6215 -0.7373
 5071TIP3    H236705   5.066   2.994  16.125 -0.0000  0.1673 -1.5081
 5072TIP3   OH236706   4.776   2.338  10.478  0.7274 -0.1193 -0.0674
 5072TIP3    H136707   4.852   2.387  10.512  0.1911 -0.4990  1.8275
 5072TIP3    H236708   4.807   2.248  10.470  0.5867 -0.2135  0.3975
 5073TIP3   OH236709   0.098   2.284   3.984 -0.4704 -0.3771  0.1791
 5073TIP3    H136710   0.059   2.343   3.920  1.6392  2.5947  1.4261
 5073TIP3    H236711   0.072   2.321   4.069  0.5699 -1.5179  1.0238
 5074TIP3   OH236712   2.114   1.827   3.405  0.2733 -0.3945  0.4658
 5074TIP3    H136713   2.021   1.839   3.385  0.8833 -0.0973 -2.7575
 5074TIP3    H236714   2.128   1.733   3.399  0.4525 -0.3065 -0.6472
 5075TIP3   OH236715   4.764   4.453   4.932  0.3139 -0.5186  0.3194
 5075TIP3    H136716   4.693   4.487   4.985 -0.2121  0.2369 -0.8195
 5075TIP3    H236717   4.841   4.504   4.958  0.1379 -0.4013  0.6076
 5076TIP3   OH236718   4.047   1.956  13.200  0.0469  0.6331  0.0001
 5076TIP3    H136719   4.108   1.967  13.127  0.7312  1.3447  0.6515
 5076TIP3    H236720   4.069   2.027  13.260 -0.2049 -0.1986  1.1048
 5077TIP3   OH236721   3.881   1.096  15.923  0.0380 -0.4501  0.3902
 5077TIP3    H136722   3.823   1.063  15.991 -0.5254 -0.6343 -0.1764
 5077TIP3    H236723   3.953   1.137  15.972 -0.7638  0.1548  1.0976
 5078TIP3   OH236724   3.825   3.915  11.991 -0.2385  0.0380 -0.0133
 5078TIP3    H136725   3.913   3.947  12.011 -0.9920  0.9583  2.1753
 5078TIP3    H236726   3.818   3.921  11.896  3.0341 -2.7709 -0.6508
 5079TIP3   OH236727   5.037   6.558  14.412  0.0692  0.3386 -0.1824
 5079TIP3    H136728   5.004   6.491  14.472 -3.5811  0.6870 -1.5732
 5079TIP3    H236729   4.991   6.638  14.437  0.0690  0.9793 -2.0629
 5080TIP3   OH236730   2.769   1.982  15.313 -1.0061 -0.1047 -0.0476
 5080TIP3    H136731   2.800   1.947  15.397 -0.3346  0.2056 -0.1588
 5080TIP3    H236732   2.806   2.070  15.309  1.2762 -1.0511 -1.8730
 5081TIP3   OH236733   0.827   1.460  16.501  0.1820 -0.5307 -0.5688
 5081TIP3    H136734   0.772   1.388  16.531 -0.8905 -0.0245 -1.2712
 5081TIP3    H236735   0.900   1.463  16.564 -1.2524 -0.3839  1.1477
 5082TIP3   OH236736   2.213   1.642  15.982  0.9126 -0.1724 -0.6180
 5082TIP3    H136737   2.212   1.603  16.070 -0.6460  1.1878  0.0176
 5082TIP3    H236738   2.261   1.724  15.993  0.4580  0.1453 -0.9704
 5083TIP3   OH236739   5.879   4.369   5.817 -0.0073 -0.5635  0.1566
 5083TIP3    H136740   5.827   4.353   5.896 -1.8960  0.3503 -0.8283
 5083TIP3    H236741   5.868   4.289   5.765 -1.0081 -0.1432 -0.3171
 5084TIP3   OH236742   5.081   3.994  16.205 -0.1741 -0.1135  0.4575
 5084TIP3    H136743   5.111   4.030  16.289  1.7053 -0.8520  0.1496
 5084TIP3    H236744   5.083   4.068  16.145  0.2789  0.0263  0.6420
 5085TIP3   OH236745   6.530   4.411   2.730  0.4823 -0.5117  0.2432
 5085TIP3    H136746   6.612   4.365   2.711  0.9249  0.1978  0.3722
 5085TIP3    H236747   6.491   4.363   2.803  2.5816  1.1966  2.6639
 5086TIP3   OH236748   5.517   4.289   1.808 -0.0932 -0.0401 -0.0373
 5086TIP3    H136749   5.440   4.236   1.832 -0.4163  0.7772  0.7740
 5086TIP3    H236750   5.494   4.327   1.724  0.5857 -2.0189 -1.2038
 5087TIP3   OH236751   5.399   3.390  16.166  0.0054 -0.3501  0.2680
 5087TIP3    H136752   5.460   3.320  16.188 -0.3390  0.1420  3.1548
 5087TIP3    H236753   5.455   3.463  16.139  0.8635  0.2696  3.3822
 5088TIP3   OH236754   4.362   4.498  12.761 -0.2859 -0.6194  0.0664
 5088TIP3    H136755   4.441   4.508  12.815  0.3196 -0.8335 -0.7428
 5088TIP3    H236756   4.290   4.493  12.823  0.5804 -2.9811  1.0146
 5089TIP3   OH236757   1.335   3.135  11.947  0.6622 -0.3037 -0.2961
 5089TIP3    H136758   1.339   3.053  11.899 -0.4121 -0.1580 -0.6529
 5089TIP3    H236759   1.242   3.148  11.965  0.8549  0.6657  0.0525
 5090TIP3   OH236760   2.712   4.320   4.554  0.3156 -0.0944 -0.1440
 5090TIP3    H136761   2.751   4.394   4.601 -1.0105  1.5855 -1.5338
 5090TIP3    H236762   2.785   4.259   4.540  1.0370 -0.0458  2.7951
 5091TIP3   OH236763   5.140   3.400  14.294  0.0978 -0.2348  0.2200
 5091TIP3    H136764   5.195   3.475  14.315 -1.0629  0.1316  2.1160
 5091TIP3    H236765   5.086   3.430  14.221  0.0597  0.5799  0.5689
 5092TIP3   OH236766   4.728   2.917  14.770  0.0555 -0.1267 -0.3893
 5092TIP3    H136767   4.735   2.922  14.674 -0.0540 -0.1218 -0.3974
 5092TIP3    H236768   4.671   2.842  14.786  1.8954 -1.5847 -0.2598
 5093TIP3   OH236769   3.509   6.078   5.652  0.8059  0.0163 -0.0904
 5093TIP3    H136770   3.544   5.992   5.628  0.0171 -0.6357  0.9553
 5093TIP3    H236771   3.421   6.059   5.685 -0.1032  1.4507 -1.5349
 5094TIP3   OH236772   1.255   6.088   4.898  0.2014 -0.1430  0.3828
 5094TIP3    H136773   1.295   6.126   4.976  0.1760  0.9911 -0.1335
 5094TIP3    H236774   1.171   6.053   4.928  0.4159 -0.1721  0.9591
 5095TIP3   OH236775   1.272   2.729   0.105 -0.8077 -0.2902 -0.4218
 5095TIP3    H136776   1.208   2.668   0.142 -1.2537  0.5960  0.2974
 5095TIP3    H236777   1.240   2.816   0.130 -0.4680  0.2783 -1.8858
 5096TIP3   OH236778   1.117   3.379  13.623 -0.5289 -0.1100  0.0842
 5096TIP3    H136779   1.211   3.372  13.643 -0.2611 -1.7408 -1.5140
 5096TIP3    H236780   1.075   3.324  13.689 -0.2242 -0.5997 -0.1293
 5097TIP3   OH236781   1.310   4.230   6.754  0.0681  0.1873  0.5711
 5097TIP3    H136782   1.248   4.297   6.781  0.8002  0.1813  2.3748
 5097TIP3    H236783   1.260   4.148   6.759  0.1442  0.1970  1.8879
 5098TIP3   OH236784   1.745   0.086  15.386  0.3622 -0.1594 -0.0723
 5098TIP3    H136785   1.790   0.003  15.375 -0.9783 -0.8724 -0.4200
 5098TIP3    H236786   1.652   0.064  15.383 -0.0341  1.4123 -0.6555
 5099TIP3   OH236787   2.454   1.206   5.039  0.3895  0.1496  0.1924
 5099TIP3    H136788   2.372   1.224   4.994  1.0121 -1.7085 -1.8722
 5099TIP3    H236789   2.499   1.290   5.042 -2.1888  1.5923  2.9004
 5100TIP3   OH236790   6.814   2.068  14.661 -0.0497 -0.1828 -0.6927
 5100TIP3    H136791   6.739   2.124  14.683 -0.2543 -1.2840  1.6714
 5100TIP3    H236792   6.873   2.078  14.735  1.2798 -0.8263 -1.6421
 5101TIP3   OH236793   1.086   0.034  11.467 -0.1891 -0.1141 -0.2279
 5101TIP3    H136794   1.058   0.052  11.377  0.9842  0.1199 -0.5590
 5101TIP3    H236795   1.061   0.112  11.515  0.7797  0.5265 -0.7316
 5102TIP3   OH236796   4.507   5.153   0.454 -0.1588  0.6169 -0.8813
 5102TIP3    H136797   4.585   5.179   0.502  0.4271  0.5165 -1.7558
 5102TIP3    H236798   4.434   5.183   0.508  0.4369 -0.7333  0.7724
 5103TIP3   OH236799   6.451   6.787  13.825  0.2759  0.2951 -0.8880
 5103TIP3    H136800   6.541   6.760  13.807  1.2723  1.0471  2.3556
 5103TIP3    H236801   6.451   6.882  13.817  0.4555  0.5385  1.4429
 5104TIP3   OH236802   4.687   4.686   4.648 -0.2258  0.3489 -0.0463
 5104TIP3    H136803   4.782   4.683   4.639 -0.1637 -1.4827  0.6826
 5104TIP3    H236804   4.655   4.708   4.560  0.7899 -2.8218 -1.3543
 5105TIP3   OH236805   5.661   5.055  13.017 -0.2396  0.1317 -0.0524
 5105TIP3    H136806   5.568   5.076  13.024 -0.1658  0.0074  1.4978
 5105TIP3    H236807   5.664   4.976  12.964 -1.1290 -0.6575  1.0385
 5106TIP3   OH236808   5.659   3.752   3.640 -0.2908 -0.7177  0.4558
 5106TIP3    H136809   5.735   3.724   3.589  1.4933  1.3755  1.8090
 5106TIP3    H236810   5.694   3.814   3.704 -3.5707  3.0223 -0.9628
 5107TIP3   OH236811   2.983   3.476  12.958  0.0619  0.0211 -0.3993
 5107TIP3    H136812   3.046   3.419  12.914 -0.1807  0.2115 -1.0080
 5107TIP3    H236813   2.987   3.450  13.050 -0.8824 -1.7841 -0.8248
 5108TIP3   OH236814   3.028   2.762   3.503  0.1316 -0.2376  0.3090
 5108TIP3    H136815   2.964   2.772   3.574 -0.8150  0.9781 -0.6654
 5108TIP3    H236816   2.978   2.729   3.429  0.3205  1.8689 -0.8298
 5109TIP3   OH236817   5.594   4.023  11.771 -0.1271  0.3080  0.1024
 5109TIP3    H136818   5.687   4.047  11.761 -0.2254  0.6872  0.0732
 5109TIP3    H236819   5.550   4.106  11.787 -0.6528  0.3218 -1.2205
 5110TIP3   OH236820   4.756   0.140   5.969  0.4196  0.6816 -0.4007
 5110TIP3    H136821   4.690   0.080   5.937  1.5878 -1.6519  1.2691
 5110TIP3    H236822   4.732   0.155   6.061  2.3424 -0.5596  0.3727
 5111TIP3   OH236823   0.482   4.904  12.203  0.5674  0.2534  0.6466
 5111TIP3    H136824   0.522   4.877  12.285  0.1116 -0.3957  0.6652
 5111TIP3    H236825   0.407   4.845  12.193  0.3415  0.6424  0.0068
 5112TIP3   OH236826   4.726   2.940   5.326  0.4133 -0.4430 -0.7447
 5112TIP3    H136827   4.642   2.907   5.359  0.2633  0.3626 -0.2817
 5112TIP3    H236828   4.763   2.989   5.400  2.5077 -2.8754 -0.0163
 5113TIP3   OH236829   2.232   5.984   1.326  0.1216  0.3040 -0.2049
 5113TIP3    H136830   2.282   6.065   1.319 -0.0146  0.3211 -1.1536
 5113TIP3    H236831   2.299   5.916   1.335  0.2167  0.5678  1.3129
 5114TIP3   OH236832   5.777   1.460  14.536 -0.3298 -0.3277 -0.7171
 5114TIP3    H136833   5.793   1.551  14.509  1.7993  0.3722  2.3847
 5114TIP3    H236834   5.718   1.467  14.610  0.7438 -1.3368  0.2730
 5115TIP3   OH236835   5.886   1.431  16.398 -0.3001 -0.5062 -0.0174
 5115TIP3    H136836   5.960   1.467  16.448 -1.3022  0.4735  0.8095
 5115TIP3    H236837   5.813   1.430  16.459 -1.5131  0.5195 -1.3674
 5116TIP3   OH236838   5.555   2.747  15.111  0.0454  0.3942 -0.3117
 5116TIP3    H136839   5.512   2.706  15.186  0.5470  0.5943  0.0905
 5116TIP3    H236840   5.630   2.793  15.148 -0.7464  2.0624 -0.6643
 5117TIP3   OH236841   6.626   1.009  16.796  0.0269  0.4418 -0.8483
 5117TIP3    H136842   6.688   1.016  16.724 -0.3491  1.0918 -1.1159
 5117TIP3    H236843   6.575   0.931  16.777  0.5660  0.0577 -0.7672
 5118TIP3   OH236844   5.471   0.478  11.495 -0.7885  0.3956 -0.7073
 5118TIP3    H136845   5.460   0.539  11.567 -1.1656 -0.4669 -0.0145
 5118TIP3    H236846   5.402   0.413  11.508  1.0054 -1.5038 -0.0518
 5119TIP3   OH236847   1.090   0.159   0.159  0.0745  0.0739  0.7742
 5119TIP3    H136848   1.039   0.237   0.138  0.7984  0.2418 -0.4416
 5119TIP3    H236849   1.162   0.160   0.097  1.3526 -0.3869  2.1774
 5120TIP3   OH236850   3.842   2.819   4.148 -0.1702  0.1807 -0.0988
 5120TIP3    H136851   3.841   2.914   4.143  1.2196  0.1311 -2.9468
 5120TIP3    H236852   3.912   2.799   4.211  2.0432  1.1037 -2.1212
 5121TIP3   OH236853   3.276   3.374  13.941 -0.1446 -0.4063 -0.0971
 5121TIP3    H136854   3.355   3.422  13.969  0.6472 -1.5621 -0.2675
 5121TIP3    H236855   3.264   3.307  14.009 -1.7266  0.5208  0.5823
 5122TIP3   OH236856   1.019   5.800  12.713  0.3146 -0.6379 -0.6629
 5122TIP3    H136857   1.034   5.768  12.624 -0.7536 -1.4954 -0.5548
 5122TIP3    H236858   0.933   5.842  12.709  0.6575  0.1184 -0.2338
 5123TIP3   OH236859   1.837   2.520   1.860 -0.3278 -0.0641 -0.0157
 5123TIP3    H136860   1.899   2.452   1.835 -0.4361  0.2817 -1.2694
 5123TIP3    H236861   1.768   2.474   1.908  0.2955 -0.6174  0.3602
 5124TIP3   OH236862   2.704   3.035  14.155 -0.4319 -0.3232 -0.7218
 5124TIP3    H136863   2.710   3.102  14.087  2.4348 -1.1317 -1.3767
 5124TIP3    H236864   2.776   3.054  14.215 -0.1834 -2.2082 -0.3556
 5125TIP3   OH236865   4.473   5.033   0.216 -0.1611  0.4735  0.3571
 5125TIP3    H136866   4.467   5.078   0.300  1.2262  0.4302  0.5007
 5125TIP3    H236867   4.404   5.072   0.162  0.3317  2.0348  0.8159
 5126TIP3   OH236868   0.537   4.433  16.414  0.2377 -0.3365  0.6823
 5126TIP3    H136869   0.511   4.344  16.439  1.8736 -0.6676  1.3054
 5126TIP3    H236870   0.493   4.489  16.478 -1.5634 -0.5609 -0.2652
 5127TIP3   OH236871   3.167   2.092  11.618  0.2130  0.3940 -0.5864
 5127TIP3    H136872   3.218   2.148  11.560  2.5866  0.1710  1.1401
 5127TIP3    H236873   3.139   2.149  11.689  1.0798 -0.1808  0.2446
 5128TIP3   OH236874   0.191   6.652   6.909  0.3350  0.0101  0.2796
 5128TIP3    H136875   0.176   6.733   6.860  0.9456 -0.0225  0.0262
 5128TIP3    H236876   0.164   6.672   6.998  2.5850  1.2282  0.7543
 5129TIP3   OH236877   2.744   1.743   0.386  0.1080 -0.3859 -0.1544
 5129TIP3    H136878   2.686   1.725   0.460 -1.0858  0.2805 -0.8867
 5129TIP3    H236879   2.728   1.835   0.365  1.0792 -0.3205 -0.6927
 5130TIP3   OH236880   3.173   1.482  15.662 -0.3001  0.7521  0.3415
 5130TIP3    H136881   3.264   1.453  15.673 -0.3205 -0.0495 -1.2525
 5130TIP3    H236882   3.179   1.577  15.658  0.4592  0.7135  0.3973
 5131TIP3   OH236883   1.747   1.651   2.057  0.3433 -0.3536  0.1324
 5131TIP3    H136884   1.724   1.599   2.135  1.5577 -1.6730 -0.3617
 5131TIP3    H236885   1.744   1.589   1.985  3.1438 -0.0944 -0.2906
 5132TIP3   OH236886   4.208   3.514   2.665 -0.3957 -0.1391  0.3268
 5132TIP3    H136887   4.153   3.457   2.611 -1.7829  1.1070  0.3463
 5132TIP3    H236888   4.191   3.602   2.631  0.5850  0.4166  1.2184
 5133TIP3   OH236889   6.547   1.937   3.839 -0.2202  0.0041 -0.1219
 5133TIP3    H136890   6.570   1.988   3.917 -2.4916  0.2353  0.4859
 5133TIP3    H236891   6.523   1.851   3.872 -0.0512 -0.2699 -0.6993
 5134TIP3   OH236892   1.859   2.129   3.990 -0.1791 -0.0298 -0.0880
 5134TIP3    H136893   1.807   2.196   3.945  0.6897  0.8561  0.1849
 5134TIP3    H236894   1.940   2.124   3.940  1.0337  1.3620  1.6294
 5135TIP3   OH236895   5.281   0.155  15.230  0.6909  0.6617 -0.3123
 5135TIP3    H136896   5.204   0.150  15.287  1.3138 -1.5669  0.4236
 5135TIP3    H236897   5.352   0.182  15.289  1.0091 -0.0588 -0.3509
 5136TIP3   OH236898   4.006   4.692  15.926  0.6129  0.2696  0.5041
 5136TIP3    H136899   4.070   4.697  15.996  0.2716  0.8665  0.7840
 5136TIP3    H236900   3.923   4.675  15.971  0.6704 -1.2987  0.0928
 5137TIP3   OH236901   1.266   6.564  15.371 -0.2876 -0.1912 -0.4574
 5137TIP3    H136902   1.205   6.575  15.444  0.7259 -0.0445  0.3920
 5137TIP3    H236903   1.210   6.562  15.293 -1.6229 -2.4758  0.4347
 5138TIP3   OH236904   3.071   5.944  16.935  0.0819 -0.0119  0.1630
 5138TIP3    H136905   3.009   5.983  16.997  1.1375  2.6045 -0.2907
 5138TIP3    H236906   3.020   5.928  16.856 -0.6128 -0.6109  0.7151
 5139TIP3   OH236907   6.388   2.628   6.494  0.1081  0.1647  0.6492
 5139TIP3    H136908   6.365   2.711   6.536 -1.3914 -0.5380  1.2935
 5139TIP3    H236909   6.443   2.583   6.558 -0.0696  0.1652  0.8031
 5140TIP3   OH236910   4.844   3.151   1.062  0.5192 -0.1727 -0.2966
 5140TIP3    H136911   4.919   3.171   1.117  1.0272  1.9967 -1.6286
 5140TIP3    H236912   4.826   3.233   1.016 -0.2793 -1.6510 -2.8332
 5141TIP3   OH236913   6.069   0.947  15.627  0.5135  0.5291  0.2928
 5141TIP3    H136914   5.999   0.977  15.569 -0.1202  0.3927  0.9657
 5141TIP3    H236915   6.110   1.028  15.658  0.5860  0.6145 -0.0320
 5142TIP3   OH236916   6.794   2.427   4.271 -0.0736 -0.0864 -0.3073
 5142TIP3    H136917   6.864   2.491   4.264 -0.2160  0.0757 -0.2496
 5142TIP3    H236918   6.833   2.353   4.317 -0.0348  0.1369  0.0199
 5143TIP3   OH236919   1.916   0.188   4.153 -0.6502  0.4646  0.0433
 5143TIP3    H136920   1.998   0.155   4.114 -2.0567 -0.2100 -2.5840
 5143TIP3    H236921   1.942   0.268   4.199  1.6608 -0.3722  0.3252
 5144TIP3   OH236922   3.378   4.409  15.253 -0.5200 -0.2289  0.3708
 5144TIP3    H136923   3.418   4.339  15.203  0.9926  0.9465 -0.1408
 5144TIP3    H236924   3.296   4.372  15.286  0.6313 -2.4772  0.8313
 5145TIP3   OH236925   3.964   2.322   5.426 -0.6585 -0.1376 -0.8687
 5145TIP3    H136926   3.991   2.253   5.365  0.7198 -0.3247 -0.0926
 5145TIP3    H236927   4.023   2.394   5.408  0.3587 -0.5018  0.7912
 5146TIP3   OH236928   6.784   5.545   3.658 -0.5763 -0.1169  0.4910
 5146TIP3    H136929   6.828   5.489   3.594 -3.5175 -0.0250 -1.8101
 5146TIP3    H236930   6.813   5.633   3.636  0.0830 -0.2563  0.7573
 5147TIP3   OH236931   2.041   5.897  13.775 -0.2864  0.6182 -0.0861
 5147TIP3    H136932   1.999   5.818  13.740  0.1421 -0.6226  2.0424
 5147TIP3    H236933   2.132   5.892  13.745  0.6681 -1.5878  2.7262
 5148TIP3   OH236934   1.345   1.513  12.665  0.4756  0.2652 -0.5169
 5148TIP3    H136935   1.309   1.491  12.750 -0.8958 -1.0619 -1.3991
 5148TIP3    H236936   1.331   1.435  12.612 -0.5014  1.7186 -2.5199
 5149TIP3   OH236937   4.904   0.951   4.013 -0.3042 -0.5785  0.6011
 5149TIP3    H136938   4.900   1.028   3.957 -1.7567 -0.7120  0.4845
 5149TIP3    H236939   4.851   0.885   3.968  1.2783 -1.8281  0.4654
 5150TIP3   OH236940   3.819   4.415  10.775  0.5856 -0.0097  0.0250
 5150TIP3    H136941   3.760   4.466  10.830  0.1893 -0.0075 -0.3922
 5150TIP3    H236942   3.760   4.362  10.721  0.9465  0.4025 -0.7841
 5151TIP3   OH236943   0.276   5.629   2.527  0.0777  0.6701 -0.2738
 5151TIP3    H136944   0.292   5.536   2.509 -1.0828  0.7322 -1.7268
 5151TIP3    H236945   0.330   5.675   2.463 -1.4343  0.9389 -1.3923
 5152TIP3   OH236946   4.149   4.130   6.063 -0.3601 -0.0601 -0.7724
 5152TIP3    H136947   4.085   4.062   6.043 -0.6690 -0.1490  0.4275
 5152TIP3    H236948   4.099   4.212   6.062 -0.6671 -0.2044  0.8571
 5153TIP3   OH236949   1.808   1.638   4.964  0.1141  0.0368  0.0702
 5153TIP3    H136950   1.802   1.560   5.019  1.9722 -0.9801 -1.0734
 5153TIP3    H236951   1.798   1.604   4.875  0.5626  1.1645 -0.4194
 5154TIP3   OH236952   2.736   0.867   1.021  1.3559  0.4370  0.0898
 5154TIP3    H136953   2.783   0.859   1.104  2.5507 -1.1413 -0.6807
 5154TIP3    H236954   2.801   0.841   0.955  0.4727  1.7666 -1.3535
 5155TIP3   OH236955   3.778   0.963   0.033  0.6728  0.0178 -0.6250
 5155TIP3    H136956   3.793   0.963   0.127  0.4931 -1.3219 -0.5755
 5155TIP3    H236957   3.711   0.896   0.019  1.5802 -0.6789 -1.8297
 5156TIP3   OH236958   3.830   0.973   2.467 -0.8690  0.2612  0.4914
 5156TIP3    H136959   3.913   0.995   2.509  0.1827 -1.6573 -0.4298
 5156TIP3    H236960   3.770   0.953   2.540 -0.8424  2.5385  1.1917
 5157TIP3   OH236961   2.102   3.011  13.970 -0.3869  0.0112  0.2727
 5157TIP3    H136962   2.063   3.065  13.901 -0.4284 -0.6004 -0.1888
 5157TIP3    H236963   2.034   3.006  14.037 -0.0129  1.3696  0.7843
 5158TIP3   OH236964   1.386   2.820   5.388 -0.0277 -0.1679 -0.6941
 5158TIP3    H136965   1.448   2.891   5.406  0.1070 -1.0489  3.5269
 5158TIP3    H236966   1.301   2.863   5.383  0.4902  0.7070 -3.2898
 5159TIP3   OH236967   2.014   6.801  11.925 -0.1463 -0.4730 -0.1217
 5159TIP3    H136968   2.000   6.749  12.004  0.9104  0.3251  0.6192
 5159TIP3    H236969   2.061   6.878  11.956  1.8323 -0.9472 -1.7871
 5160TIP3   OH236970   4.494   0.598  17.283 -0.4253  0.2818 -0.1414
 5160TIP3    H136971   4.559   0.666  17.266 -0.7712  0.3860 -1.1108
 5160TIP3    H236972   4.412   0.632  17.246 -1.3733  0.7236  2.1945
 5161TIP3   OH236973   0.468   0.775   4.630 -0.2195  0.0177  0.2162
 5161TIP3    H136974   0.520   0.849   4.661 -2.6290  2.1809 -0.5083
 5161TIP3    H236975   0.510   0.748   4.549  0.2887  1.0976  0.1063
 5162TIP3   OH236976   0.836   2.361  13.521  0.4747 -0.0021 -0.4447
 5162TIP3    H136977   0.848   2.350  13.615 -1.4383  3.0773  0.2745
 5162TIP3    H236978   0.870   2.448  13.502  0.3193 -0.3456 -2.5204
 5163TIP3   OH236979   2.516   3.655   3.433 -0.3716  0.0885 -0.5856
 5163TIP3    H136980   2.533   3.628   3.342 -2.0082  0.8064 -1.1389
 5163TIP3    H236981   2.487   3.745   3.426 -2.0559 -0.3392  0.4713
 5164TIP3   OH236982   4.640   5.125  14.343 -0.1258  0.0301  0.2500
 5164TIP3    H136983   4.671   5.127  14.433  1.4587  1.7799 -0.2472
 5164TIP3    H236984   4.679   5.046  14.306  0.4537  0.0895  0.7194
 5165TIP3   OH236985   5.100   5.632  17.197 -0.7610 -0.1961 -0.2312
 5165TIP3    H136986   5.014   5.620  17.157 -0.4836 -0.5445 -0.7242
 5165TIP3    H236987   5.154   5.669  17.128 -1.0059  1.8886  0.6277
 5166TIP3   OH236988   4.139   2.745   3.301  0.3228 -0.1437  0.1186
 5166TIP3    H136989   4.185   2.822   3.333 -0.3325  0.7467 -1.0079
 5166TIP3    H236990   4.053   2.777   3.275 -0.2590 -1.4162  0.3819
 5167TIP3   OH236991   6.753   5.720   2.188  0.4049  0.6652 -0.2948
 5167TIP3    H136992   6.694   5.793   2.206  1.2881  1.7794 -1.5999
 5167TIP3    H236993   6.837   5.763   2.166  2.2383 -0.8510  3.0060
 5168TIP3   OH236994   0.273   5.311   2.501  0.0531  0.3153  0.1180
 5168TIP3    H136995   0.315   5.297   2.586 -0.2277  2.0181  0.5761
 5168TIP3    H236996   0.180   5.316   2.521 -0.3933 -2.4299 -0.7648
 5169TIP3   OH236997   4.175   4.435  14.234 -0.0196  0.0331  0.2886
 5169TIP3    H136998   4.266   4.449  14.209  0.0104 -1.2404 -0.4256
 5169TIP3    H236999   4.180   4.408  14.326  0.0918  2.2210  0.9806
 5170TIP3   OH237000   6.265   2.506   6.268 -0.2199  0.0098 -1.2421
 5170TIP3    H137001   6.207   2.444   6.312  1.5573 -1.1183 -0.3501
 5170TIP3    H237002   6.293   2.566   6.336 -0.2560  0.4839 -1.6391
 5171TIP3   OH237003   5.570   0.527   3.145  0.9859 -0.7070  0.0213
 5171TIP3    H137004   5.619   0.463   3.196 -1.0700 -1.1903  1.5237
 5171TIP3    H237005   5.528   0.476   3.076  1.5119 -0.5094 -0.4524
 5172TIP3   OH237006   1.652   2.383  14.472 -0.2105  0.1555  0.6075
 5172TIP3    H137007   1.686   2.339  14.550  0.8424 -0.8886 -0.3873
 5172TIP3    H237008   1.635   2.312  14.410  2.1928  1.0725 -1.3166
 5173TIP3   OH237009   3.785   2.324  13.550 -0.0678 -0.4451 -0.3807
 5173TIP3    H137010   3.830   2.364  13.625  3.0067  0.6109 -2.5651
 5173TIP3    H237011   3.757   2.399  13.497 -1.2760 -1.1762 -0.7932
 5174TIP3   OH237012   0.872   3.441  14.086 -0.4918  0.0767 -0.0694
 5174TIP3    H137013   0.930   3.384  14.037 -0.0892  0.0032  0.4782
 5174TIP3    H237014   0.827   3.493  14.020 -1.1329 -1.1199 -0.6029
 5175TIP3   OH237015   2.777   4.470   5.411 -0.1552 -0.1422 -0.4023
 5175TIP3    H137016   2.730   4.522   5.346 -0.7236 -1.6400 -1.2236
 5175TIP3    H237017   2.726   4.389   5.419 -0.9424  0.4993  2.9497
 5176TIP3   OH237018   5.293   4.624   3.319  0.1350 -0.9552  0.5954
 5176TIP3    H137019   5.308   4.685   3.391  1.9453  0.3775 -0.8027
 5176TIP3    H237020   5.204   4.644   3.289  0.3185  0.3008  0.8366
 5177TIP3   OH237021   5.030   3.909   2.789 -0.6436 -0.1500  0.5046
 5177TIP3    H137022   5.059   3.850   2.720  0.0577 -0.1937  0.8287
 5177TIP3    H237023   4.980   3.853   2.849 -0.4815 -0.2923  0.5057
 5178TIP3   OH237024   1.320   2.664  15.158 -0.7637  0.1728  0.8321
 5178TIP3    H137025   1.335   2.662  15.253 -0.6278 -0.0511  0.8092
 5178TIP3    H237026   1.408   2.671  15.121 -0.8308  0.4376  0.7277
 5179TIP3   OH237027   0.423   0.583   3.525 -0.0432  0.1503  0.4919
 5179TIP3    H137028   0.353   0.644   3.547 -1.0940 -1.6178  2.4038
 5179TIP3    H237029   0.408   0.559   3.434 -1.2986  0.5860  0.5750
 5180TIP3   OH237030   0.582   5.692  16.217  0.2999 -0.5277  0.3377
 5180TIP3    H137031   0.650   5.630  16.245  0.7877  0.0886  0.5178
 5180TIP3    H237032   0.615   5.727  16.134 -0.3681 -1.1198 -0.1893
 5181TIP3   OH237033   3.736   3.352   2.060  0.3598  0.0500  0.2955
 5181TIP3    H137034   3.650   3.327   2.026  0.2151 -0.4345  0.9780
 5181TIP3    H237035   3.780   3.396   1.988  0.4603 -1.8147 -0.8500
 5182TIP3   OH237036   1.916   0.206   1.626  0.1886  0.0139 -0.0276
 5182TIP3    H137037   1.977   0.137   1.654  0.1466 -0.2182 -0.4969
 5182TIP3    H237038   1.896   0.254   1.706  1.1146  0.1896  0.1048
 5183TIP3   OH237039   1.420   5.485  16.346 -0.4456  0.4546  0.2812
 5183TIP3    H137040   1.392   5.407  16.394  0.9104 -0.0751  0.2475
 5183TIP3    H237041   1.493   5.455  16.292  0.4476  1.8578  0.6549
 5184TIP3   OH237042   6.560   5.979  13.022 -0.0426 -0.2141 -0.0270
 5184TIP3    H137043   6.563   6.016  13.110 -3.2575 -1.3615  0.7083
 5184TIP3    H237044   6.533   5.888  13.035 -0.0696 -0.5742 -2.1955
 5185TIP3   OH237045   6.020   0.018   6.555 -0.0628  0.8649 -0.0640
 5185TIP3    H137046   5.970   0.076   6.613  0.6889  1.1693  0.2870
 5185TIP3    H237047   6.111   0.030   6.582  0.1285 -0.3349 -0.1155
 5186TIP3   OH237048   2.628   2.590  11.964 -0.2530 -0.0861 -0.5485
 5186TIP3    H137049   2.639   2.496  11.949 -1.3998 -0.3652  0.2396
 5186TIP3    H237050   2.535   2.606  11.950 -0.2202  0.7721  0.1345
 5187TIP3   OH237051   3.616   1.303   1.879 -0.2123 -0.5360  0.2382
 5187TIP3    H137052   3.542   1.302   1.941 -0.3826  2.6023  0.2363
 5187TIP3    H237053   3.598   1.229   1.820 -3.6967  0.3830 -0.0985
 5188TIP3   OH237054   1.035   6.653   6.299  0.5293 -0.2961  0.1961
 5188TIP3    H137055   1.027   6.700   6.382 -1.3785  1.2165 -0.7577
 5188TIP3    H237056   1.043   6.723   6.233  0.6924 -1.4195 -1.0147
 5189TIP3   OH237057   4.970   6.073   1.055 -0.1228  0.0469 -0.4448
 5189TIP3    H137058   4.998   6.099   1.143  2.0030  1.2735 -1.3920
 5189TIP3    H237059   4.956   5.979   1.060 -0.3804  0.1525  1.2750
 5190TIP3   OH237060   5.906   4.420   3.808  0.3032  0.1241  0.2054
 5190TIP3    H137061   5.933   4.511   3.810  0.3474  0.1074  1.5249
 5190TIP3    H237062   5.819   4.422   3.768  0.5186  0.6752 -0.2500
 5191TIP3   OH237063   1.308   2.474  14.894 -0.4994 -0.2574 -0.1498
 5191TIP3    H137064   1.247   2.545  14.916 -0.9896 -0.5680 -0.4800
 5191TIP3    H237065   1.307   2.417  14.971 -0.0072  0.1594  0.1667
 5192TIP3   OH237066   1.108   4.329   0.792 -0.1526 -0.1650 -0.3014
 5192TIP3    H137067   1.073   4.241   0.781 -0.9847  0.0592  0.3568
 5192TIP3    H237068   1.140   4.331   0.882 -1.1385  0.5183  0.0494
 5193TIP3   OH237069   4.409   1.590  14.487  0.1031 -0.2334  0.2604
 5193TIP3    H137070   4.461   1.509  14.483 -0.5583 -0.7362  1.3659
 5193TIP3    H237071   4.474   1.660  14.493  0.6623 -0.7636  0.4807
 5194TIP3   OH237072   4.796   3.073   3.325  0.3637 -0.0213  0.0060
 5194TIP3    H137073   4.881   3.107   3.352  0.6735 -1.8732  1.5600
 5194TIP3    H237074   4.774   3.007   3.391 -1.2065 -1.2415 -1.6248
 5195TIP3   OH237075   6.631   3.564  13.220 -0.1743  0.6576  0.4118
 5195TIP3    H137076   6.658   3.558  13.128 -0.4796 -1.0158  0.4177
 5195TIP3    H237077   6.713   3.576  13.268  0.0518  0.8506 -0.0116
 5196TIP3   OH237078   5.664   0.431  13.318 -0.5759 -0.6752  0.2491
 5196TIP3    H137079   5.584   0.442  13.267 -0.9322  1.3205  1.1632
 5196TIP3    H237080   5.672   0.336  13.328  0.1123 -1.3427 -4.3009
 5197TIP3   OH237081   4.293   6.795  16.874 -0.5691 -0.3635  0.1399
 5197TIP3    H137082   4.309   6.721  16.814 -2.2231 -0.4350 -0.2592
 5197TIP3    H237083   4.329   6.765  16.958  0.6075 -0.7884 -0.4821
 5198TIP3   OH237084   6.797   4.770   0.529  0.1216  0.3018  0.4122
 5198TIP3    H137085   6.759   4.753   0.616 -0.6069  1.7657  0.4039
 5198TIP3    H237086   6.727   4.812   0.480  0.5354 -0.5009 -0.9117
 5199TIP3   OH237087   4.196   4.197   0.608  0.8060 -0.0320 -0.2120
 5199TIP3    H137088   4.181   4.275   0.553  1.2065  0.4339  0.3274
 5199TIP3    H237089   4.285   4.169   0.585  0.1593 -1.2121 -1.4642
 5200TIP3   OH237090   5.489   4.887   2.165 -0.1199  0.1233 -0.1567
 5200TIP3    H137091   5.548   4.821   2.127 -0.5035 -2.2024  2.9216
 5200TIP3    H237092   5.548   4.949   2.208  0.1962 -0.7986  0.7892
 5201TIP3   OH237093   6.030   6.820   1.017 -0.5020  0.6434  0.3065
 5201TIP3    H137094   6.093   6.886   0.988 -0.8005  1.2931  1.0938
 5201TIP3    H237095   6.071   6.779   1.093 -1.2948  1.5511  1.2571
 5202TIP3   OH237096   0.167   4.647  15.866 -0.1535  0.1895 -0.1424
 5202TIP3    H137097   0.074   4.645  15.888 -0.1461  0.3861 -0.0905
 5202TIP3    H237098   0.208   4.696  15.937 -0.0819  0.5468 -0.4263
 5203TIP3   OH237099   6.059   6.354   0.521  0.0306  0.6439 -0.6195
 5203TIP3    H137100   6.112   6.367   0.443  0.4979 -0.3580 -0.4851
 5203TIP3    H237101   6.004   6.278   0.500 -0.0133  0.5224 -0.0727
 5204TIP3   OH237102   6.171   4.344  12.531  0.2820  0.1686  0.2371
 5204TIP3    H137103   6.250   4.394  12.548  0.0445 -0.0649  2.3017
 5204TIP3    H237104   6.102   4.391  12.577 -0.1944 -1.3183  1.1225
 5205TIP3   OH237105   1.093   0.190  15.067 -0.5827  0.2034 -0.2216
 5205TIP3    H137106   1.152   0.254  15.106  1.3776 -1.2669 -0.6436
 5205TIP3    H237107   1.047   0.151  15.142  1.0135 -0.5313  0.4201
 5206TIP3   OH237108   6.404   6.626  16.237 -0.2912  0.3222  0.3634
 5206TIP3    H137109   6.418   6.704  16.291 -2.0334  1.9075 -1.3014
 5206TIP3    H237110   6.432   6.653  16.149 -3.0280 -0.0542 -0.7267
 5207TIP3   OH237111   1.354   2.661  14.629 -0.5470  0.5319  0.1629
 5207TIP3    H137112   1.348   2.570  14.599  1.5214 -1.1679  4.0986
 5207TIP3    H237113   1.268   2.677  14.669 -0.8824  0.2632 -0.4331
 5208TIP3   OH237114   5.023   3.394   1.680  0.5018  0.3793 -0.0373
 5208TIP3    H137115   4.943   3.443   1.660 -1.0954 -2.4296 -0.9408
 5208TIP3    H237116   5.011   3.365   1.771  0.8471  0.5469  0.0632
 5209TIP3   OH237117   3.765   1.994   0.125 -0.5027 -0.3116  0.0337
 5209TIP3    H137118   3.773   1.903   0.097  1.9004 -0.7033  1.6868
 5209TIP3    H237119   3.785   2.045   0.046 -0.4855 -1.2381 -0.5724
 5210TIP3   OH237120   1.768   3.215  12.147  0.6392 -0.0333 -0.5299
 5210TIP3    H137121   1.851   3.167  12.157  0.3433 -0.8044 -1.5965
 5210TIP3    H237122   1.766   3.240  12.054 -0.2697  0.0846 -0.4822
 5211TIP3   OH237123   1.787   5.949   0.605  0.2484  0.7894  0.0881
 5211TIP3    H137124   1.692   5.962   0.596  0.1179  0.0615  0.3495
 5211TIP3    H237125   1.795   5.869   0.656  1.0095  0.9798  0.2738
 5212TIP3   OH237126   3.940   5.396   4.199 -0.2425  0.5571  0.5035
 5212TIP3    H137127   3.958   5.348   4.119  0.6579  1.2623  0.2599
 5212TIP3    H237128   3.949   5.331   4.269  0.5446  0.2756  0.1514
 5213TIP3   OH237129   2.856   0.465  17.137 -0.6353  0.6495 -0.0342
 5213TIP3    H137130   2.775   0.435  17.179 -0.3020 -0.4304 -0.1287
 5213TIP3    H237131   2.851   0.561  17.141 -1.5199  0.5886  0.7115
 5214TIP3   OH237132   6.398   5.900  13.357  0.1079 -0.0067 -0.3801
 5214TIP3    H137133   6.376   5.990  13.335  0.4687  0.2022  0.0815
 5214TIP3    H237134   6.342   5.879  13.431 -2.7264 -1.4607 -2.7541
 5215TIP3   OH237135   0.704   0.618   0.947 -0.3324 -0.3023  0.1207
 5215TIP3    H137136   0.679   0.684   0.882  1.3428  0.6609  0.3749
 5215TIP3    H237137   0.767   0.563   0.901 -0.5542 -0.7734  0.3802
 5216TIP3   OH237138   3.395   2.144   2.322 -0.2646 -0.1756 -0.1683
 5216TIP3    H137139   3.323   2.082   2.312  0.2827 -0.8391 -0.1256
 5216TIP3    H237140   3.453   2.124   2.248  0.2313 -0.1545  0.2087
 5217TIP3   OH237141   2.757   1.648   4.444  0.8066 -0.2481 -0.2709
 5217TIP3    H137142   2.749   1.738   4.411  1.5201  0.1835  0.6697
 5217TIP3    H237143   2.814   1.604   4.381 -0.0191 -0.2250 -1.0556
 5218TIP3   OH237144   2.309   1.710  17.248 -0.4993  0.5262  0.4782
 5218TIP3    H137145   2.397   1.682  17.273 -0.8235 -0.1983  0.8502
 5218TIP3    H237146   2.282   1.771  17.317 -1.2197 -1.1306  1.7569
 5219TIP3   OH237147   0.225   4.192  12.716 -0.0285 -0.2208 -0.0212
 5219TIP3    H137148   0.183   4.134  12.779 -2.1037  1.0165 -0.1600
 5219TIP3    H237149   0.170   4.187  12.638 -0.1280  1.6897 -0.1197
 5220TIP3   OH237150   4.807   1.857  14.261  0.1634 -0.2263  0.1718
 5220TIP3    H137151   4.742   1.790  14.282  0.1616 -0.1295  0.4868
 5220TIP3    H237152   4.798   1.871  14.167 -2.3587  1.8967  0.5885
 5221TIP3   OH237153   4.475   3.036  12.823 -0.0502  0.5738 -0.6233
 5221TIP3    H137154   4.430   3.059  12.742  1.6009  1.7841 -1.2417
 5221TIP3    H237155   4.545   2.977  12.796  1.1190  1.7418 -0.2502
 5222TIP3   OH237156   0.848   6.810  16.326  0.5043 -0.0189  0.0832
 5222TIP3    H137157   0.906   6.802  16.250 -0.8286  0.9322 -1.0906
 5222TIP3    H237158   0.851   6.723  16.367  1.0385 -0.6634 -1.2410
 5223TIP3   OH237159   4.568   5.832  14.485 -0.0825  0.2189 -0.6841
 5223TIP3    H137160   4.571   5.927  14.473  0.2608  0.2896 -0.0479
 5223TIP3    H237161   4.530   5.820  14.572  0.6158 -0.2025 -0.4295
 5224TIP3   OH237162   2.198   3.707  11.859 -0.4721 -0.4141  0.3497
 5224TIP3    H137163   2.245   3.660  11.791 -1.4306 -1.0628  0.1143
 5224TIP3    H237164   2.263   3.721  11.928  1.0199  1.8412 -1.3794
 5225TIP3   OH237165   2.810   0.232  14.355  0.6010  0.5970 -0.3201
 5225TIP3    H137166   2.792   0.154  14.408  1.3422  0.3681 -0.3895
 5225TIP3    H237167   2.739   0.293  14.377  1.7205  1.1528  2.2108
 5226TIP3   OH237168   3.553   2.596   3.410  0.0516 -0.0874 -0.4750
 5226TIP3    H137169   3.565   2.634   3.324 -0.8414  0.8078 -0.2271
 5226TIP3    H237170   3.630   2.623   3.460 -0.6081  1.5515 -0.2706
 5227TIP3   OH237171   3.136   0.724   3.510 -0.1547 -0.2440  0.3693
 5227TIP3    H137172   3.220   0.737   3.554  0.3538  0.7387 -0.8234
 5227TIP3    H237173   3.150   0.647   3.455 -0.8320 -1.5532  1.9563
 5228TIP3   OH237174   4.993   1.091   3.527  0.0319 -0.0329  0.7976
 5228TIP3    H137175   5.000   1.164   3.588  2.8482  0.7784 -0.3401
 5228TIP3    H237176   5.070   1.098   3.471  0.2311 -3.6551  0.3440
 5229TIP3   OH237177   5.503   1.484  13.907  0.2432  0.3178 -0.3205
 5229TIP3    H137178   5.493   1.438  13.823 -2.1486  3.6594 -2.1228
 5229TIP3    H237179   5.566   1.554  13.888  0.2947  0.6253  0.9444
 5230TIP3   OH237180   6.468   6.392   1.715 -0.1225 -0.3326 -0.7464
 5230TIP3    H137181   6.397   6.375   1.776 -1.4950  0.0679 -2.1752
 5230TIP3    H237182   6.546   6.400   1.770 -1.5516  1.6981  1.1638
 5231TIP3   OH237183   0.877   2.070   4.116 -0.4544  0.2499  0.2096
 5231TIP3    H137184   0.953   2.127   4.116 -0.8020  0.8180  2.3085
 5231TIP3    H237185   0.831   2.092   4.197 -2.2825 -0.8226 -0.4800
 5232TIP3   OH237186   0.427   1.633  16.291  0.5025 -0.4658  0.0095
 5232TIP3    H137187   0.342   1.642  16.248  0.7375  2.0256 -0.0274
 5232TIP3    H237188   0.489   1.619  16.220  0.1076 -3.3171  0.0866
 5233TIP3   OH237189   4.681   5.348   1.192  0.2086 -0.3932 -0.4048
 5233TIP3    H137190   4.738   5.294   1.247  3.1254 -0.1097 -2.8451
 5233TIP3    H237191   4.616   5.288   1.157  0.9750 -1.4745 -0.0018
 5234TIP3   OH237192   5.938   2.541   5.123  0.3102 -0.1407 -0.0965
 5234TIP3    H137193   5.953   2.629   5.157  1.1489 -0.5127  0.5452
 5234TIP3    H237194   5.863   2.508   5.173  1.2806 -0.5330  1.1581
 5235TIP3   OH237195   0.430   2.276   5.637  0.5038 -0.0556  0.3599
 5235TIP3    H137196   0.369   2.338   5.677  0.6906  0.3637  0.0027
 5235TIP3    H237197   0.421   2.196   5.689  2.0989  1.0338  2.4671
 5236TIP3   OH237198   1.099   0.831   5.357 -0.2436 -0.0995 -0.2754
 5236TIP3    H137199   1.178   0.873   5.325 -0.0086 -1.0048 -0.9198
 5236TIP3    H237200   1.130   0.761   5.415 -0.6280  0.6023  0.8194
 5237TIP3   OH237201   4.082   1.145   3.907  0.0060 -0.8405  0.2865
 5237TIP3    H137202   4.077   1.231   3.949 -0.1875 -1.1897  0.9860
 5237TIP3    H237203   4.066   1.163   3.814  1.0897  0.0255  0.2500
 5238TIP3   OH237204   2.769   1.603  15.552 -0.3215 -0.1094  0.6662
 5238TIP3    H137205   2.710   1.678  15.554 -0.0463  0.0926  1.5133
 5238TIP3    H237206   2.711   1.527  15.543 -0.6417  0.1641  0.4228
 5239TIP3   OH237207   3.007   0.318  13.723  0.4027 -0.4478 -0.3031
 5239TIP3    H137208   2.926   0.332  13.772  0.0556  1.0444 -1.2238
 5239TIP3    H237209   3.077   0.338  13.785  0.0513 -0.8255  0.2237
 5240TIP3   OH237210   0.911   2.659  17.219  0.1635 -0.2200  0.3786
 5240TIP3    H137211   0.964   2.603  17.276  0.0964  1.0063  1.6972
 5240TIP3    H237212   0.973   2.720  17.180 -0.1493  0.9524  1.6101
 5241TIP3   OH237213   0.544   6.799   1.585  0.3098 -0.5544 -0.5162
 5241TIP3    H137214   0.451   6.818   1.591  0.2726  0.0159 -2.3567
 5241TIP3    H237215   0.554   6.749   1.504  1.4596 -1.6916  0.2814
 5242TIP3   OH237216   3.905   3.996  15.261 -0.1382 -0.5642 -0.0416
 5242TIP3    H137217   3.864   4.077  15.290  1.4808  0.4265 -0.3538
 5242TIP3    H237218   3.887   3.933  15.331  2.0700  1.2357  2.3746
 5243TIP3   OH237219   1.933   1.066   0.617  0.4642  0.0883 -0.3759
 5243TIP3    H137220   1.990   1.130   0.660  0.3287  0.7392 -1.1512
 5243TIP3    H237221   1.944   1.083   0.523  0.3989 -0.9980 -0.5955
 5244TIP3   OH237222   3.933   2.946  14.207 -0.5129 -0.2209  0.1014
 5244TIP3    H137223   3.909   2.907  14.123  0.1194  1.4697 -0.9139
 5244TIP3    H237224   3.849   2.967  14.248 -0.8443  0.4405 -0.8673
 5245TIP3   OH237225   4.547   4.289  12.963 -0.4034 -0.4726 -0.1690
 5245TIP3    H137226   4.588   4.302  12.878 -0.2436 -1.4656 -0.2561
 5245TIP3    H237227   4.502   4.371  12.981 -0.1017 -0.1117 -1.0260
 5246TIP3   OH237228   1.691   5.809  13.821  0.5747  0.2445 -0.6304
 5246TIP3    H137229   1.656   5.723  13.798  2.4160 -0.3979 -1.1756
 5246TIP3    H237230   1.623   5.870  13.794 -0.6638 -1.0040 -0.4554
 5247TIP3   OH237231   4.165   3.759  15.390 -0.3948 -0.0780 -0.1862
 5247TIP3    H137232   4.179   3.840  15.440  1.2210  1.5645 -3.0038
 5247TIP3    H237233   4.090   3.717  15.432 -0.1404  1.9374  2.5384
 5248TIP3   OH237234   0.125   2.794  11.432 -0.2402 -0.1566 -0.4457
 5248TIP3    H137235   0.150   2.799  11.340 -0.2307 -0.6790 -0.4765
 5248TIP3    H237236   0.209   2.785  11.479 -0.2462  0.0862 -0.3871
 5249TIP3   OH237237   5.851   3.796   6.137 -0.2138 -0.3849  0.3524
 5249TIP3    H137238   5.903   3.783   6.216 -1.5301  1.7498  1.6692
 5249TIP3    H237239   5.910   3.774   6.066  2.3504  1.3688  1.7709
 5250TIP3   OH237240   3.224   2.985   4.799  0.0426 -0.0359  1.0569
 5250TIP3    H137241   3.226   2.917   4.867 -0.8100 -0.8008  0.3314
 5250TIP3    H237242   3.196   2.939   4.720  1.8147  0.6672 -0.0372
 5251TIP3   OH237243   6.783   6.389  14.998  0.1621  0.3561  0.0023
 5251TIP3    H137244   6.729   6.438  14.936  1.4456  2.1045  0.1703
 5251TIP3    H237245   6.813   6.455  15.061 -1.4829 -1.4034  2.8698
 5252TIP3   OH237246   0.379   1.696   4.542  0.5007 -0.5015 -0.5246
 5252TIP3    H137247   0.458   1.742   4.514 -0.1281  0.6900 -0.3843
 5252TIP3    H237248   0.319   1.765   4.571 -0.1970 -1.4570  0.3922
 5253TIP3   OH237249   3.727   1.021   3.898  0.0736  0.3351  0.0871
 5253TIP3    H137250   3.786   0.978   3.960 -1.5954 -1.4451  0.5479
 5253TIP3    H237251   3.718   1.110   3.931  0.4862 -0.1123  1.4754
 5254TIP3   OH237252   1.192   1.081  13.571  0.4990  0.3699 -0.1910
 5254TIP3    H137253   1.101   1.103  13.551 -0.2980  0.5096  3.0094
 5254TIP3    H237254   1.218   1.022  13.500 -1.5862  1.4088 -1.9634
 5255TIP3   OH237255   1.693   5.933   2.994 -0.6384  0.1208  0.6083
 5255TIP3    H137256   1.685   5.986   2.915  1.5713  0.9197  0.8612
 5255TIP3    H237257   1.691   5.843   2.962 -1.1892  0.4024 -0.1927
 5256TIP3   OH237258   0.395   4.381   1.665  0.0821  0.0973 -0.4628
 5256TIP3    H137259   0.399   4.430   1.582  0.3019  0.8354 -0.0294
 5256TIP3    H237260   0.470   4.322   1.661  0.7556  0.9163 -0.3208
 5257TIP3   OH237261   4.965   4.059   1.774 -0.1713  0.5591  0.4820
 5257TIP3    H137262   4.882   4.063   1.727  0.4498 -0.5861 -0.8010
 5257TIP3    H237263   4.998   4.149   1.774 -0.5052  0.7020 -0.7304
 5258TIP3   OH237264   3.686   5.741  13.717 -0.2133  0.3762  0.4016
 5258TIP3    H137265   3.767   5.707  13.679 -0.9874 -2.1229  0.8129
 5258TIP3    H237266   3.715   5.786  13.797  0.7959 -0.0939  0.3193
 5259TIP3   OH237267   0.305   4.258   3.268  0.0207  0.8415  0.3745
 5259TIP3    H137268   0.256   4.178   3.250 -0.8638  1.4498  0.0063
 5259TIP3    H237269   0.246   4.312   3.321  0.9175  0.9173  1.3310
 5260TIP3   OH237270   0.948   4.627  12.203  0.4857 -0.1166 -0.4912
 5260TIP3    H137271   0.997   4.626  12.121  0.5288 -1.7987 -0.4958
 5260TIP3    H237272   1.015   4.625  12.271  0.4608  1.8280 -0.3683
 5261TIP3   OH237273   5.234   3.225   0.565  0.3477 -0.2685  0.2319
 5261TIP3    H137274   5.299   3.168   0.606  1.0416 -0.4486 -1.0835
 5261TIP3    H237275   5.256   3.313   0.596  0.3942 -0.4869  0.8284
 5262TIP3   OH237276   2.090   3.235   0.306  0.1685  0.2333  0.1813
 5262TIP3    H137277   2.158   3.195   0.360  0.3614  0.9973  0.5249
 5262TIP3    H237278   2.125   3.233   0.217  1.6687  2.6197  0.6257
 5263TIP3   OH237279   2.349   2.636  15.902  0.0223 -0.8255 -0.4764
 5263TIP3    H137280   2.318   2.723  15.928  2.3341 -0.5041  1.5668
 5263TIP3    H237281   2.442   2.649  15.880  0.5655 -2.8448  0.3889
 5264TIP3   OH237282   5.080   1.664   2.589 -0.2676  0.3000 -0.3153
 5264TIP3    H137283   5.078   1.759   2.601 -0.9441  0.3442 -0.7153
 5264TIP3    H237284   5.001   1.645   2.538 -0.1789 -0.4860 -0.1706
 5265TIP3   OH237285   6.636   2.326  13.573 -0.0142  0.4516 -0.8420
 5265TIP3    H137286   6.670   2.347  13.660 -0.6278  0.5716 -0.6256
 5265TIP3    H237287   6.709   2.281  13.529  0.0688 -0.2458 -0.0251
 5266TIP3   OH237288   2.990   3.792  14.998 -0.1599 -0.2631  0.2843
 5266TIP3    H137289   3.050   3.810  14.925  0.5662  0.2614  0.9906
 5266TIP3    H237290   3.031   3.719  15.044 -0.9052 -0.9574 -0.1458
 5267TIP3   OH237291   3.910   0.110   5.537 -0.0020  0.0503  0.0024
 5267TIP3    H137292   3.845   0.053   5.495 -0.0568  0.0608  0.0730
 5267TIP3    H237293   3.859   0.185   5.568 -0.0597 -0.2470  0.6363
 5268TIP3   OH237294   4.818   0.651  16.365  0.1815  0.0541  0.0412
 5268TIP3    H137295   4.771   0.610  16.438 -0.2999  0.5489  0.0145
 5268TIP3    H237296   4.886   0.587  16.342  1.5686  0.6832  2.1232
 5269TIP3   OH237297   1.504   4.422  11.073 -0.6841 -0.5317  0.5885
 5269TIP3    H137298   1.479   4.487  11.007 -0.8861 -1.2575 -0.0673
 5269TIP3    H237299   1.507   4.339  11.025 -1.3455 -1.1621  1.5954
 5270TIP3   OH237300   4.767   4.532  11.569 -0.2589  0.5970 -0.2238
 5270TIP3    H137301   4.793   4.498  11.484  0.3728  2.1230 -0.6786
 5270TIP3    H237302   4.765   4.456  11.626 -0.5058 -0.4269 -1.5471
 5271TIP3   OH237303   5.631   3.697   4.855 -1.0254  0.8316 -0.5071
 5271TIP3    H137304   5.667   3.782   4.831 -1.4911  1.4527  0.9154
 5271TIP3    H237305   5.578   3.671   4.780  0.6626  0.8736 -1.7625
 5272TIP3   OH237306   4.222   0.216  13.051 -0.1272 -0.6919  0.2453
 5272TIP3    H137307   4.278   0.204  12.974 -0.7472  0.2652 -0.3810
 5272TIP3    H237308   4.188   0.128  13.069  2.5671 -1.5866  1.4993
 5273TIP3   OH237309   3.525   4.025  11.064  0.5237 -0.1145 -0.6887
 5273TIP3    H137310   3.440   3.984  11.047  1.1690 -1.3928 -0.8838
 5273TIP3    H237311   3.557   3.983  11.144  1.0902  0.1719 -0.7596
 5274TIP3   OH237312   4.897   6.390  14.972 -0.3565 -0.3095  0.2499
 5274TIP3    H137313   4.907   6.299  14.943 -1.6709  0.1666 -1.9640
 5274TIP3    H237314   4.978   6.432  14.945 -0.9632 -0.2093 -1.5658
 5275TIP3   OH237315   5.102   1.970  12.858  0.1905  0.2222  0.1493
 5275TIP3    H137316   5.018   1.939  12.893  0.4409  0.6192  1.1206
 5275TIP3    H237317   5.153   1.890  12.845 -0.1872  0.0085 -0.0528
 5276TIP3   OH237318   0.106   4.876  13.832  0.3266 -0.7655 -0.6162
 5276TIP3    H137319   0.067   4.819  13.898 -0.7262 -0.6214 -1.0869
 5276TIP3    H237320   0.039   4.882  13.763  1.2224 -0.5732 -1.4994
 5277TIP3   OH237321   1.297   4.120  12.208  0.1316 -0.3918  0.1744
 5277TIP3    H137322   1.234   4.048  12.205  0.0955 -0.4640  1.9643
 5277TIP3    H237323   1.382   4.080  12.193 -0.0876 -0.4992 -0.8321
 5278TIP3   OH237324   1.084   0.722  16.415  0.0824 -0.2209 -0.1960
 5278TIP3    H137325   1.076   0.808  16.456  1.1466 -0.3022  0.1986
 5278TIP3    H237326   1.058   0.661  16.483  1.6157 -0.3412  0.3137
 5279TIP3   OH237327   0.749   2.059   1.072 -0.5117  0.6037 -0.3525
 5279TIP3    H137328   0.770   2.009   1.151  2.7263 -1.1420 -2.1110
 5279TIP3    H237329   0.654   2.054   1.065 -0.7708 -0.4801  2.5633
 5280TIP3   OH237330   4.571   3.291  15.706 -0.3010  0.3532  0.2097
 5280TIP3    H137331   4.590   3.382  15.682 -0.3473  0.3499  0.1611
 5280TIP3    H237332   4.628   3.274  15.781  0.9135 -0.0810 -0.7669
 5281TIP3   OH237333   2.445   4.857  14.358  0.7869 -0.1122 -0.1891
 5281TIP3    H137334   2.481   4.911  14.428 -1.4939  0.6176  0.5253
 5281TIP3    H237335   2.393   4.918  14.305 -1.1277 -1.3893  0.1122
 5282TIP3   OH237336   3.175   1.830  11.488 -0.5429 -0.1509 -0.2743
 5282TIP3    H137337   3.237   1.798  11.555 -4.1122 -0.1851  3.4266
 5282TIP3    H237338   3.156   1.919  11.515 -0.1582  0.8228 -3.0016
 5283TIP3   OH237339   5.694   3.912  16.073  0.0484 -0.4781  0.0816
 5283TIP3    H137340   5.599   3.902  16.070  0.0142 -0.2530  0.3384
 5283TIP3    H237341   5.726   3.870  15.993 -0.4281  1.3415 -1.1374
 5284TIP3   OH237342   6.596   1.424   1.677 -0.2479 -0.4290  0.2428
 5284TIP3    H137343   6.565   1.513   1.657 -0.9959 -0.8510 -0.5991
 5284TIP3    H237344   6.562   1.406   1.764 -0.8477 -0.1963  0.0668
 5285TIP3   OH237345   3.799   5.430   5.627  0.4783  0.1279 -0.0924
 5285TIP3    H137346   3.715   5.390   5.647  0.2693  0.3639 -0.4986
 5285TIP3    H237347   3.841   5.370   5.566  0.7062 -0.1035  0.2833
 5286TIP3   OH237348   2.111   2.668   0.426  0.0973 -0.3280 -0.0059
 5286TIP3    H137349   2.173   2.669   0.499 -0.3680 -0.4658  0.4012
 5286TIP3    H237350   2.025   2.665   0.468 -0.1985  0.1494 -0.5590
 5287TIP3   OH237351   6.502   2.990   1.299 -0.7644 -0.5322 -0.0627
 5287TIP3    H137352   6.459   3.072   1.319  0.2884  0.0232  0.0049
 5287TIP3    H237353   6.539   3.003   1.211  1.2558 -0.1044  0.7962
 5288TIP3   OH237354   3.168   4.181   3.135 -0.2030  0.2871  0.7145
 5288TIP3    H137355   3.148   4.266   3.095 -0.3897 -0.0145  0.1586
 5288TIP3    H237356   3.083   4.137   3.142 -0.0796  0.0604  0.8101
 5289TIP3   OH237357   6.598   0.267  10.528 -0.4196  0.1230 -0.5513
 5289TIP3    H137358   6.569   0.257  10.619  2.6486  0.9787  0.6629
 5289TIP3    H237359   6.524   0.237  10.476 -2.9645  1.1607  2.1593
 5290TIP3   OH237360   0.933   2.529   5.382 -0.1369 -0.2395 -0.0946
 5290TIP3    H137361   0.946   2.594   5.313 -1.1144 -0.2757 -0.3248
 5290TIP3    H237362   0.967   2.571   5.461 -0.3527  0.3841 -0.3247
 5291TIP3   OH237363   1.867   1.205   4.071  0.5802 -0.0331 -0.6347
 5291TIP3    H137364   1.919   1.141   4.120 -1.0237  0.3616  1.7234
 5291TIP3    H237365   1.915   1.287   4.079  0.1601  0.1051  0.6508
 5292TIP3   OH237366   5.220   3.075   1.464 -0.1738  0.5922 -0.6677
 5292TIP3    H137367   5.136   3.117   1.486 -1.0133 -0.6715 -1.3667
 5292TIP3    H237368   5.234   3.010   1.533 -0.3641 -0.0033 -1.1821
 5293TIP3   OH237369   2.705   5.845   4.634  0.1438  0.0803 -0.7136
 5293TIP3    H137370   2.657   5.797   4.702 -0.0243  0.7472 -0.3464
 5293TIP3    H237371   2.638   5.868   4.569 -0.0356  0.9225 -0.2514
 5294TIP3   OH237372   2.079   3.342  10.629  0.3291 -0.6448 -0.0675
 5294TIP3    H137373   2.084   3.388  10.713  0.0358  1.4252 -1.1357
 5294TIP3    H237374   1.986   3.333  10.612  0.3816 -0.4989 -0.4513
 5295TIP3   OH237375   3.676   4.058  12.367 -0.1011 -0.4110 -0.0650
 5295TIP3    H137376   3.627   4.076  12.448 -0.8373  0.1150 -0.6154
 5295TIP3    H237377   3.758   4.106  12.377 -0.0921 -0.5234  0.4526
 5296TIP3   OH237378   0.449   0.495  12.755 -0.4586  0.1721 -0.0729
 5296TIP3    H137379   0.538   0.530  12.759 -1.1601  2.1872 -0.9593
 5296TIP3    H237380   0.414   0.508  12.843 -0.8432  2.1616 -0.4867
 5297TIP3   OH237381   5.694   4.514  11.869  0.2427 -0.0641 -0.1386
 5297TIP3    H137382   5.689   4.450  11.941  0.7714 -0.8212 -0.7526
 5297TIP3    H237383   5.731   4.592  11.909 -1.7917  0.3887  0.9670
 5298TIP3   OH237384   1.642   1.242   0.312  0.3714 -0.6792  0.1725
 5298TIP3    H137385   1.556   1.207   0.336  0.3459 -1.5302 -1.0781
 5298TIP3    H237386   1.653   1.217   0.220  2.0620 -0.7769  0.3779
 5299TIP3   OH237387   1.417   0.143   4.671  0.5757 -0.5488  0.0992
 5299TIP3    H137388   1.459   0.189   4.599 -0.5672 -1.7430 -1.3858
 5299TIP3    H237389   1.486   0.087   4.708  1.3075  0.4801  0.3342
 5300TIP3   OH237390   2.415   5.119   3.532 -0.4314 -0.3847 -0.0505
 5300TIP3    H137391   2.460   5.142   3.613  0.3961 -0.5458 -0.4573
 5300TIP3    H237392   2.481   5.075   3.479 -1.5781 -2.4232  0.1258
 5301TIP3   OH237393   1.878   6.244  13.201 -1.2496  0.6242 -0.0567
 5301TIP3    H137394   1.920   6.162  13.227 -0.7410  1.1291  0.8035
 5301TIP3    H237395   1.799   6.248  13.255 -0.7051  1.2018  0.7341
 5302TIP3   OH237396   0.672   2.282  16.601 -0.7057  0.6667  1.2572
 5302TIP3    H137397   0.661   2.264  16.694  1.7635  1.1107  1.7015
 5302TIP3    H237398   0.689   2.196  16.562 -2.3258  0.4010  1.0778
 5303TIP3   OH237399   3.249   4.308   0.984  0.3052  0.2589  0.1137
 5303TIP3    H137400   3.235   4.403   0.981  0.3036  0.2356 -0.7548
 5303TIP3    H237401   3.344   4.298   0.988  0.2764  0.3107  1.3194
 5304TIP3   OH237402   4.918   3.426  13.079 -0.4044 -0.4429  0.1835
 5304TIP3    H137403   4.989   3.490  13.092 -1.0710  0.5175 -0.7014
 5304TIP3    H237404   4.952   3.366  13.013 -0.9638  0.9898 -1.5031
 5305TIP3   OH237405   2.714   1.353   1.972  0.0286 -0.2502  0.1693
 5305TIP3    H137406   2.803   1.318   1.970  0.0118 -0.2621 -0.7006
 5305TIP3    H237407   2.726   1.448   1.967  0.0202 -0.1778  1.1743
 5306TIP3   OH237408   6.401   4.509  12.539  0.2489  0.2717 -0.1761
 5306TIP3    H137409   6.379   4.576  12.604 -0.2540  0.2107 -0.2760
 5306TIP3    H237410   6.496   4.503  12.541  0.1658 -1.6408  2.4797
 5307TIP3   OH237411   5.044   1.773   3.773 -0.0879 -0.3520  0.2983
 5307TIP3    H137412   5.054   1.765   3.868  0.5459 -0.1795  0.2551
 5307TIP3    H237413   5.068   1.864   3.754 -2.7822  0.4288  0.2687
 5308TIP3   OH237414   2.997   6.137   5.274 -0.3683 -0.2408 -0.3873
 5308TIP3    H137415   2.945   6.143   5.194 -1.0491 -1.1861 -0.0335
 5308TIP3    H237416   2.991   6.224   5.313 -1.0918 -0.1357 -0.7226
 5309TIP3   OH237417   3.821   0.221   0.351  0.3262  0.3109  0.0417
 5309TIP3    H137418   3.878   0.297   0.356  1.8622 -0.8777  2.6880
 5309TIP3    H237419   3.880   0.146   0.366 -1.4577 -1.2366 -0.3094
 5310TIP3   OH237420   5.915   4.898  14.523  0.1938  0.1371  0.0944
 5310TIP3    H137421   5.981   4.932  14.463 -1.0025  2.6291  0.0408
 5310TIP3    H237422   5.963   4.873  14.602  1.3581  0.4141 -0.5169
 5311TIP3   OH237423   0.783   0.929   0.807 -0.5240 -0.5516 -0.4212
 5311TIP3    H137424   0.726   0.929   0.884  0.3305 -1.4296  0.2435
 5311TIP3    H237425   0.743   0.991   0.747 -0.4781  1.1981  1.2705
 5312TIP3   OH237426   5.919   5.270   0.158 -0.0206  0.1877 -0.5603
 5312TIP3    H137427   5.936   5.205   0.227  0.4511  1.1204  0.2238
 5312TIP3    H237428   5.943   5.354   0.197  0.3415  0.7388 -1.8972
 5313TIP3   OH237429   2.257   6.760  13.472 -0.1504 -0.3573  0.0700
 5313TIP3    H137430   2.215   6.801  13.548 -0.2625 -1.2232  0.4877
 5313TIP3    H237431   2.349   6.752  13.497  0.3317  1.5747 -0.8618
 5314TIP3   OH237432   6.613   1.888  17.172  0.1779 -0.4326 -0.1264
 5314TIP3    H137433   6.624   1.818  17.108  0.1686  1.0190 -1.7769
 5314TIP3    H237434   6.700   1.900  17.210 -0.0217 -1.9839  0.9532
 5315TIP3   OH237435   0.986   4.418   1.753 -0.4398 -0.0036 -0.2420
 5315TIP3    H137436   0.943   4.464   1.681  1.2142  0.8928 -0.7254
 5315TIP3    H237437   0.988   4.482   1.825  0.0603 -0.0302 -0.2282
 5316TIP3   OH237438   5.893   2.182  15.345 -0.3432  0.3739  0.4491
 5316TIP3    H137439   5.883   2.105  15.289 -0.9466  0.4255  0.4717
 5316TIP3    H237440   5.850   2.157  15.427  0.9695  0.1171  1.0693
 5317TIP3   OH237441   1.024   3.254  14.635 -0.8248 -0.1513  0.7716
 5317TIP3    H137442   0.934   3.284  14.620 -0.6660  0.2270  0.5640
 5317TIP3    H237443   1.043   3.196  14.561 -0.7467  0.1157  0.5809
 5318TIP3   OH237444   1.055   2.621   2.610  0.4189  0.5470 -0.0017
 5318TIP3    H137445   1.124   2.671   2.565  0.8426  0.4081  0.4921
 5318TIP3    H237446   0.978   2.631   2.554  0.2901  2.3718  0.4279
 5319TIP3   OH237447   5.596   0.723  13.524 -0.2796  0.1010  0.2369
 5319TIP3    H137448   5.624   0.815  13.522 -0.3361  0.1087 -0.7814
 5319TIP3    H237449   5.677   0.674  13.536 -0.4219  0.3288  2.5907
 5320TIP3   OH237450   0.218   3.635  17.191 -0.0099  0.3393 -0.4701
 5320TIP3    H137451   0.233   3.615  17.283  2.2052  0.3058 -0.7968
 5320TIP3    H237452   0.259   3.720  17.177  1.3064 -0.4658 -1.7956
 5321TIP3   OH237453   2.161   0.786   4.172  0.5055 -0.1218  0.6845
 5321TIP3    H137454   2.250   0.761   4.150  0.1923 -1.1615  0.5234
 5321TIP3    H237455   2.150   0.758   4.264  0.4023  0.1396  0.7514
 5322TIP3   OH237456   5.337   4.111  16.895  0.0968 -0.7968 -0.0105
 5322TIP3    H137457   5.431   4.118  16.879  0.2608 -2.3153  0.1347
 5322TIP3    H237458   5.320   4.172  16.967  2.0070 -4.2017  3.7072
 5323TIP3   OH237459   2.115   2.030  11.927  0.0010 -0.2902 -0.2577
 5323TIP3    H137460   2.033   1.982  11.921  0.1484 -0.4997 -0.6571
 5323TIP3    H237461   2.092   2.121  11.906 -0.2030 -0.2625  0.0740
 5324TIP3   OH237462   1.299   5.884   1.321 -0.3048 -0.4166  0.2543
 5324TIP3    H137463   1.239   5.891   1.246  1.0186  2.0853 -0.6593
 5324TIP3    H237464   1.320   5.790   1.325 -1.3794 -0.7997 -1.7048
 5325TIP3   OH237465   3.464   1.511   1.094 -0.0977  0.0243 -0.0297
 5325TIP3    H137466   3.542   1.550   1.136 -1.2407  2.7579 -0.2428
 5325TIP3    H237467   3.455   1.559   1.012 -3.0596  1.2075  0.8699
 5326TIP3   OH237468   6.378   6.353   5.730 -0.6409  0.4303 -0.0256
 5326TIP3    H137469   6.357   6.353   5.824 -1.0757  2.0888 -0.1052
 5326TIP3    H237470   6.383   6.445   5.706 -0.9901  0.0326 -1.7426
 5327TIP3   OH237471   4.069   0.853  11.777  0.1353 -0.4078  0.4218
 5327TIP3    H137472   4.151   0.819  11.740  1.2200  1.4978  0.9662
 5327TIP3    H237473   4.007   0.780  11.768  1.1387 -1.0374 -2.4112
 5328TIP3   OH237474   0.854   0.237  10.961  0.1657 -0.0588  0.5038
 5328TIP3    H137475   0.850   0.163  10.901  0.3969  2.1287 -2.3917
 5328TIP3    H237476   0.932   0.285  10.936 -1.0481  2.2616  0.8562
 5329TIP3   OH237477   1.066   1.925   2.866 -0.6103 -0.1280 -0.1097
 5329TIP3    H137478   1.127   1.856   2.839 -1.3261 -0.6629 -0.4022
 5329TIP3    H237479   1.087   1.999   2.809  0.3719  0.0198  0.4128
 5330TIP3   OH237480   1.517   3.312  14.770 -0.4950  0.4694  0.1050
 5330TIP3    H137481   1.593   3.368  14.779 -1.1350  1.2976  0.4357
 5330TIP3    H237482   1.446   3.360  14.813 -1.0726 -0.5523  0.3290
 5331TIP3   OH237483   0.639   6.010   5.917 -0.4191  1.0503  0.2779
 5331TIP3    H137484   0.608   6.028   5.829 -0.5601 -0.2972  0.0219
 5331TIP3    H237485   0.560   5.988   5.966 -0.1885  0.3529  0.3481
 5332TIP3   OH237486   3.785   2.025   2.478  0.0588 -0.3281  1.0303
 5332TIP3    H137487   3.879   2.015   2.461 -0.0757  1.3058 -1.1285
 5332TIP3    H237488   3.744   1.953   2.431  0.1372  0.0308  0.4037
 5333TIP3   OH237489   4.365   6.233  11.128  0.0758  0.6228  0.1696
 5333TIP3    H137490   4.431   6.276  11.073 -0.1344  0.4404 -0.2309
 5333TIP3    H237491   4.284   6.281  11.111 -0.0833  0.2956 -0.0087
 5334TIP3   OH237492   1.705   5.858   6.157  0.2987  0.1284  0.2887
 5334TIP3    H137493   1.707   5.776   6.108  2.5432  1.0563 -1.2792
 5334TIP3    H237494   1.702   5.830   6.249 -0.0130 -1.6779 -0.2261
 5335TIP3   OH237495   2.642   6.385  16.460  0.6553 -0.3555 -0.5172
 5335TIP3    H137496   2.574   6.402  16.395 -1.2534 -0.6485  1.3210
 5335TIP3    H237497   2.610   6.310  16.510  1.3522  0.7130  1.6445
 5336TIP3   OH237498   1.381   6.633  14.048 -0.1016  0.1793 -0.0696
 5336TIP3    H137499   1.294   6.671  14.033  0.0878  0.3911 -0.6639
 5336TIP3    H237500   1.364   6.547  14.086 -0.5476  0.7082  0.9870
 5337TIP3   OH237501   1.631   0.289   5.741  0.3723  0.0150  0.2796
 5337TIP3    H137502   1.623   0.199   5.773  0.8430 -1.9202 -4.2727
 5337TIP3    H237503   1.717   0.317   5.770  0.9489 -1.7136  0.3530
 5338TIP3   OH237504   6.803   2.131  15.477  0.1175  0.5364  1.0967
 5338TIP3    H137505   6.892   2.103  15.502  0.0995  0.1812  0.7733
 5338TIP3    H237506   6.810   2.152  15.384 -0.3202 -0.2754  0.8718
 5339TIP3   OH237507   1.540   5.056  16.246 -0.1995  0.2359  0.4287
 5339TIP3    H137508   1.567   5.146  16.262  1.9534 -0.3368  0.3421
 5339TIP3    H237509   1.550   5.012  16.330  4.0221 -1.0673 -0.4998
 5340TIP3   OH237510   6.188   1.137  16.814 -0.1839  0.0298  0.2187
 5340TIP3    H137511   6.259   1.148  16.877 -1.4302 -1.2800  1.9378
 5340TIP3    H237512   6.109   1.160  16.862 -1.2639 -1.7546 -0.5975
 5341TIP3   OH237513   5.048   4.344   3.044  0.4018 -0.0277  0.2788
 5341TIP3    H137514   5.092   4.276   2.993  0.8625 -0.4326  1.1893
 5341TIP3    H237515   4.958   4.346   3.010  0.5740 -0.6064 -0.2239
 5342TIP3   OH237516   5.698   2.682   1.524 -0.4298 -0.4528 -0.1457
 5342TIP3    H137517   5.669   2.765   1.562 -1.4412 -0.7341 -0.2591
 5342TIP3    H237518   5.730   2.705   1.437 -1.6796 -0.2975 -0.5844
 5343TIP3   OH237519   0.608   4.153   4.974  0.4685  0.3826  0.5742
 5343TIP3    H137520   0.637   4.127   4.887 -0.3757  0.1394  0.3527
 5343TIP3    H237521   0.571   4.241   4.962  0.6872  0.5029  0.7626
 5344TIP3   OH237522   6.713   4.596   5.480 -0.3931 -0.5461  0.1666
 5344TIP3    H137523   6.708   4.688   5.503  0.6846 -0.6538  0.8796
 5344TIP3    H237524   6.622   4.569   5.468 -0.7802  0.3220  1.0869
 5345TIP3   OH237525   4.595   5.156  15.611  0.5820 -0.2568  0.5338
 5345TIP3    H137526   4.637   5.081  15.568  0.9131 -0.5998  1.4257
 5345TIP3    H237527   4.641   5.164  15.695  1.7566  2.0244 -0.2325
 5346TIP3   OH237528   1.287   6.598  12.014  0.9375  0.3321  0.1322
 5346TIP3    H137529   1.352   6.567  12.077 -0.8149  1.5014  2.6922
 5346TIP3    H237530   1.215   6.630  12.068 -1.3594  0.0373 -2.5415
 5347TIP3   OH237531   5.040   5.826   5.486  0.0321 -0.0190  0.0705
 5347TIP3    H137532   4.998   5.839   5.401 -1.0757  2.6594  0.9519
 5347TIP3    H237533   4.971   5.790   5.542  0.1661  0.1820  0.3684
 5348TIP3   OH237534   5.348   0.101   0.493 -0.1967  0.3495 -0.1260
 5348TIP3    H137535   5.319   0.108   0.584 -0.5580 -1.1507 -0.0954
 5348TIP3    H237536   5.407   0.026   0.492  0.2470  0.6908 -1.0329
 5349TIP3   OH237537   1.247   6.026  16.942  0.2856  0.5158  0.1052
 5349TIP3    H137538   1.193   5.977  17.004  0.3716  0.1635 -0.0987
 5349TIP3    H237539   1.337   6.010  16.971  0.3483  0.0073 -0.3598
 5350TIP3   OH237540   3.231   3.007   4.481  0.5634  0.2056 -0.0122
 5350TIP3    H137541   3.213   3.001   4.388  0.3832  0.4084  0.0094
 5350TIP3    H237542   3.255   3.098   4.496  0.6384  0.1635  0.1314
 5351TIP3   OH237543   5.660   2.587  13.580  0.3254 -0.4460 -0.7852
 5351TIP3    H137544   5.641   2.643  13.505  1.0365  0.2555 -0.4563
 5351TIP3    H237545   5.620   2.632  13.655 -1.2592 -1.6463 -0.8659
 5352TIP3   OH237546   2.899   0.036  10.654  0.0323 -0.2052  0.1608
 5352TIP3    H137547   2.957   0.088  10.599  0.7604 -1.4585 -0.2967
 5352TIP3    H237548   2.811   0.058  10.623  0.4223 -1.1016 -1.7800
 5353TIP3   OH237549   4.519   4.398   3.884 -0.2146 -0.0348 -0.5061
 5353TIP3    H137550   4.479   4.338   3.947  0.8295  0.2852  0.4869
 5353TIP3    H237551   4.579   4.451   3.936 -0.0857  0.9393 -1.6051
 5354TIP3   OH237552   6.245   0.224   2.554  0.2599  0.5038  0.1185
 5354TIP3    H137553   6.333   0.256   2.536 -0.5753  2.3292 -1.0632
 5354TIP3    H237554   6.204   0.294   2.604 -0.1983 -0.8209  1.6743
 5355TIP3   OH237555   6.398   1.990   2.765  0.1183 -0.2241  0.1698
 5355TIP3    H137556   6.480   2.039   2.757  0.0026 -0.1284 -0.5258
 5355TIP3    H237557   6.425   1.900   2.780  0.3705 -0.3356 -0.8900
 5356TIP3   OH237558   5.402   2.188   3.413 -0.1832  0.1529 -0.2459
 5356TIP3    H137559   5.401   2.093   3.411  1.5025  0.1004  0.3288
 5356TIP3    H237560   5.443   2.211   3.496  2.1525  1.3132 -1.6107
 5357TIP3   OH237561   6.552   1.123  16.544  0.5323 -0.6243 -0.1993
 5357TIP3    H137562   6.539   1.028  16.543 -1.8437 -0.3579 -0.5668
 5357TIP3    H237563   6.644   1.134  16.521  0.2104 -2.7604 -3.1946
 5358TIP3   OH237564   1.191   2.667  12.346 -0.0303  0.6898  0.7563
 5358TIP3    H137565   1.239   2.749  12.356 -0.7612  1.2704 -0.3971
 5358TIP3    H237566   1.207   2.639  12.256 -0.1960 -0.1802  0.9798
 5359TIP3   OH237567   6.582   3.970  16.566 -0.0784 -0.5074  0.1758
 5359TIP3    H137568   6.526   3.937  16.635  0.4877 -0.9768  0.4213
 5359TIP3    H237569   6.647   3.901  16.552  1.8686  0.9458  1.5230
 5360TIP3   OH237570   3.241   5.170  17.109 -0.5361 -0.2137  0.1946
 5360TIP3    H137571   3.254   5.079  17.082 -1.1845 -0.3164  0.2327
 5360TIP3    H237572   3.330   5.201  17.127 -0.2164 -0.5390 -0.7516
 5361TIP3   OH237573   3.486   2.708   1.892 -0.3307 -0.2116  0.3716
 5361TIP3    H137574   3.538   2.783   1.865  1.1399 -2.3455 -3.4121
 5361TIP3    H237575   3.532   2.673   1.968 -0.6135  2.0837  1.7296
 5362TIP3   OH237576   1.310   2.655   2.851 -0.2686  0.0365  0.5807
 5362TIP3    H137577   1.358   2.716   2.796  1.2782 -1.4475  0.2080
 5362TIP3    H237578   1.240   2.621   2.794  1.0605 -1.1723 -0.4008
 5363TIP3   OH237579   6.690   4.410   1.865  0.3008 -0.4436  0.1407
 5363TIP3    H137580   6.682   4.499   1.831 -0.8514 -0.9042 -0.8476
 5363TIP3    H237581   6.605   4.391   1.904  0.5996 -1.0434  0.5150
 5364TIP3   OH237582   4.857   0.777   0.926 -0.4395  0.8069  0.4595
 5364TIP3    H137583   4.846   0.871   0.941 -0.0240  0.6688  1.7986
 5364TIP3    H237584   4.821   0.736   1.005 -0.7355 -0.1631 -0.1667
 5365TIP3   OH237585   2.324   0.685   5.231  0.1734 -0.0847 -0.1078
 5365TIP3    H137586   2.394   0.698   5.296  0.5235  0.2392 -0.5495
 5365TIP3    H237587   2.284   0.601   5.256  0.7357 -0.2885  0.1313
 5366TIP3   OH237588   4.899   4.910  12.611 -0.4649 -0.5467  0.5842
 5366TIP3    H137589   4.815   4.894  12.654 -0.5882 -0.1531  0.4926
 5366TIP3    H237590   4.875   4.942  12.524 -0.2396  1.0549  1.0794
 5367TIP3   OH237591   6.451   2.687  14.854  0.4123 -0.3235 -0.0808
 5367TIP3    H137592   6.425   2.607  14.900  0.0748 -0.9146 -1.2778
 5367TIP3    H237593   6.532   2.664  14.809 -0.0698 -0.2206 -1.0210
 5368TIP3   OH237594   3.744   2.468   4.420 -0.0114 -0.7566  0.2850
 5368TIP3    H137595   3.716   2.522   4.347 -1.5624 -2.6761 -0.6546
 5368TIP3    H237596   3.777   2.388   4.379 -0.5644 -1.7175  1.6441
 5369TIP3   OH237597   0.070   0.321   1.314 -0.4434 -0.5873  0.0104
 5369TIP3    H137598   0.163   0.343   1.313 -0.7902  1.4495  2.4116
 5369TIP3    H237599   0.067   0.230   1.344  0.7652 -1.2330 -1.6600
 5370TIP3   OH237600   5.791   3.344  17.135 -0.0584 -0.2722  0.6058
 5370TIP3    H137601   5.738   3.369  17.210 -0.1331 -1.7428  1.0798
 5370TIP3    H237602   5.795   3.248  17.139  0.9338 -0.3128 -0.5820
 5371TIP3   OH237603   4.519   4.107   2.158  0.2908  0.2881  0.1937
 5371TIP3    H137604   4.486   4.194   2.182  0.3062  0.5794 -0.7914
 5371TIP3    H237605   4.539   4.115   2.064  2.8035  0.0325  0.6413
 5372TIP3   OH237606   6.275   3.058  15.581  0.1262  0.0142  0.6092
 5372TIP3    H137607   6.240   3.092  15.499 -0.6163  1.3132  1.4510
 5372TIP3    H237608   6.246   2.967  15.583 -1.3207  0.4462  0.2364
 5373TIP3   OH237609   1.460   3.569   3.984  0.0918  0.1093  0.1237
 5373TIP3    H137610   1.390   3.592   3.923  0.3605 -0.8864 -0.5890
 5373TIP3    H237611   1.483   3.651   4.027  0.3829  0.9772 -1.6217
 5374TIP3   OH237612   1.800   2.161   3.186 -0.5232  0.0190 -0.1055
 5374TIP3    H137613   1.774   2.196   3.272 -1.1982 -0.1935 -0.2171
 5374TIP3    H237614   1.891   2.188   3.176  0.4427 -2.1682  1.8289
 5375TIP3   OH237615   0.209   0.929   0.978 -0.7612  0.0937 -0.3809
 5375TIP3    H137616   0.244   0.842   0.996 -1.6567 -0.2232 -0.0995
 5375TIP3    H237617   0.126   0.932   1.027 -0.0684  1.6106  0.7902
 5376TIP3   OH237618   0.759   1.885  14.227 -0.1899 -0.1792 -0.2753
 5376TIP3    H137619   0.687   1.822  14.223 -0.6122  0.2125  0.7186
 5376TIP3    H237620   0.821   1.848  14.289 -1.2235  1.1023  1.6366
 5377TIP3   OH237621   3.134   1.144   0.613 -0.0469  0.0058 -0.3290
 5377TIP3    H137622   3.187   1.223   0.626  1.8631 -1.4923  1.9212
 5377TIP3    H237623   3.095   1.126   0.698 -0.9875 -1.1245 -0.9583
 5378TIP3   OH237624   4.405   3.933   4.472 -0.3003 -0.3282 -0.3251
 5378TIP3    H137625   4.376   3.865   4.534  2.0378 -0.4006  0.7841
 5378TIP3    H237626   4.469   3.984   4.521 -0.2765  1.2414 -1.9099
 5379TIP3   OH237627   0.259   4.720  15.166  0.1939 -0.8643  0.2065
 5379TIP3    H137628   0.250   4.743  15.074 -0.4487 -1.3127  0.1446
 5379TIP3    H237629   0.353   4.724  15.184  0.2068  0.5519 -0.1110
 5380TIP3   OH237630   4.469   2.723   5.178  0.2753 -0.1481 -0.3456
 5380TIP3    H137631   4.529   2.709   5.251  0.3679 -0.0734 -0.4070
 5380TIP3    H237632   4.508   2.675   5.105 -0.1506 -0.7608 -0.1800
 5381TIP3   OH237633   6.102   1.405   5.822  0.2959 -0.1223 -0.1686
 5381TIP3    H137634   6.125   1.315   5.847  3.1384  0.8215  1.0545
 5381TIP3    H237635   6.087   1.400   5.728 -1.5815 -2.1701  0.1545
 5382TIP3   OH237636   2.683   0.681   2.245  0.1152 -0.1799  0.2193
 5382TIP3    H137637   2.593   0.701   2.221 -0.0583 -0.3775  0.6925
 5382TIP3    H237638   2.705   0.604   2.194  0.4771  0.6455 -0.9184
 5383TIP3   OH237639   5.410   4.110  14.742 -1.1714 -0.3013 -0.5117
 5383TIP3    H137640   5.353   4.183  14.716 -2.3964 -1.7886 -2.3014
 5383TIP3    H237641   5.353   4.052  14.793 -0.4371 -0.4011  0.2079
 5384TIP3   OH237642   2.168   3.582   3.972  0.0274 -0.0252  0.0020
 5384TIP3    H137643   2.089   3.582   3.919 -0.9915  1.4257  1.4136
 5384TIP3    H237644   2.167   3.497   4.016 -0.3132 -0.3423 -0.6169
 5385TIP3   OH237645   4.966   6.753   4.206  0.2574  0.1817 -0.6730
 5385TIP3    H137646   4.999   6.838   4.177 -0.0143  0.5389  0.0209
 5385TIP3    H237647   5.045   6.699   4.214  0.3750  0.1912 -1.6475
 5386TIP3   OH237648   2.857   5.649   0.868  0.2340 -0.2646 -0.2546
 5386TIP3    H137649   2.951   5.651   0.882  0.2196  0.7610 -0.2275
 5386TIP3    H237650   2.825   5.729   0.909 -0.7357 -0.9331  0.3365
 5387TIP3   OH237651   3.455   6.593  16.052 -0.0236  0.2418 -0.0727
 5387TIP3    H137652   3.438   6.587  15.958  0.6906 -1.9709 -0.1071
 5387TIP3    H237653   3.385   6.649  16.085 -1.6076 -0.7400 -1.6002
 5388TIP3   OH237654   3.378   3.687   4.551 -0.2682 -0.2496  0.5416
 5388TIP3    H137655   3.291   3.724   4.534 -0.2128  0.9061  2.4717
 5388TIP3    H237656   3.369   3.645   4.637  0.7267 -1.4055  0.1080
 5389TIP3   OH237657   6.025   3.885   5.121  0.4237  0.0411 -0.1793
 5389TIP3    H137658   6.003   3.794   5.145 -0.2924  0.8956  2.8413
 5389TIP3    H237659   6.115   3.896   5.150  0.3524  0.4311 -0.1128
 5390TIP3   OH237660   3.091   5.217  16.558 -0.1432 -0.6683  0.3349
 5390TIP3    H137661   3.162   5.275  16.532 -0.4066  0.0455  1.1344
 5390TIP3    H237662   3.011   5.263  16.531 -0.3236 -1.2732 -0.1893
 5391TIP3   OH237663   4.662   6.379  14.813 -0.1399 -1.0219 -0.5083
 5391TIP3    H137664   4.731   6.385  14.878 -0.4536 -1.9505 -0.0760
 5391TIP3    H237665   4.609   6.457  14.827  1.2161  0.1140 -1.3426
 5392TIP3   OH237666   1.175   2.137   5.267 -0.2431 -0.0222  0.3587
 5392TIP3    H137667   1.183   2.166   5.358  1.3522  0.3819  0.1107
 5392TIP3    H237668   1.262   2.105   5.244  0.2420  2.5617 -1.9103
 5393TIP3   OH237669   4.495   3.805  17.139 -0.0215  0.0633 -0.3056
 5393TIP3    H137670   4.533   3.737  17.194 -2.8356 -0.9584  0.5442
 5393TIP3    H237671   4.550   3.806  17.061  2.6000 -0.1889  1.4032
 5394TIP3   OH237672   3.644   1.292  15.106 -0.0466 -0.3354 -0.0636
 5394TIP3    H137673   3.596   1.373  15.087  0.3465 -0.0519  0.1531
 5394TIP3    H237674   3.578   1.223  15.096 -0.8187  0.1404  1.4380
 5395TIP3   OH237675   0.811   3.916  12.664 -0.5453  0.0031 -0.4259
 5395TIP3    H137676   0.823   3.997  12.615 -3.1289  0.7333 -0.0180
 5395TIP3    H237677   0.748   3.939  12.732 -0.8012 -2.1867  0.1399
 5396TIP3   OH237678   2.615   0.555   1.695  0.1527  0.4551 -0.0601
 5396TIP3    H137679   2.650   0.625   1.640  1.4030  0.3600  0.5757
 5396TIP3    H237680   2.688   0.493   1.704 -1.0956 -1.2758 -1.1338
 5397TIP3   OH237681   1.736   3.470  17.140  0.7153  0.4286  0.2471
 5397TIP3    H137682   1.659   3.435  17.185  0.8413  1.2190  1.1147
 5397TIP3    H237683   1.810   3.423  17.178  0.6797 -0.3701 -0.6254
 5398TIP3   OH237684   0.273   2.672  15.996  0.0759 -0.0242  0.3270
 5398TIP3    H137685   0.362   2.706  15.988 -0.7331  1.9023 -1.7018
 5398TIP3    H237686   0.274   2.588  15.951  0.5991  0.6824 -1.0498
 5399TIP3   OH237687   6.254   5.726  13.206 -0.1767 -0.3726 -0.2839
 5399TIP3    H137688   6.233   5.731  13.113  0.7626 -0.0673 -0.4931
 5399TIP3    H237689   6.315   5.798  13.221 -0.8501  0.0031  0.7245
 5400TIP3   OH237690   0.934   3.052   1.687  0.0436 -0.0288  0.0463
 5400TIP3    H137691   1.008   3.113   1.686  0.3101 -0.2575  1.7630
 5400TIP3    H237692   0.870   3.091   1.628  0.8089  1.1410 -0.0448
 5401TIP3   OH237693   5.457   2.798   5.317  0.0704  0.3573 -0.5474
 5401TIP3    H137694   5.491   2.789   5.228  0.5500  1.6424 -0.5230
 5401TIP3    H237695   5.369   2.836   5.306 -1.9059 -3.6653 -0.6553
 5402TIP3   OH237696   0.348   6.459  11.772 -0.1077 -0.6480  0.3829
 5402TIP3    H137697   0.349   6.540  11.822  2.3301 -0.5295  0.2535
 5402TIP3    H237698   0.388   6.394  11.830 -0.6715 -1.4179 -0.0649
 5403TIP3   OH237699   5.876   6.233  16.475 -0.3865  0.2590 -0.0626
 5403TIP3    H137700   5.930   6.155  16.467 -0.0328  0.2184  2.1402
 5403TIP3    H237701   5.930   6.303  16.438 -0.5983 -0.4383 -1.7955
 5404TIP3   OH237702   4.691   3.555   1.082  0.0334 -0.1978 -0.0110
 5404TIP3    H137703   4.666   3.465   1.103  0.4269 -0.1740  0.5834
 5404TIP3    H237704   4.781   3.563   1.114 -0.0045  0.4115 -0.0458
 5405TIP3   OH237705   5.777   0.013   1.105 -0.1920 -0.4785 -0.4528
 5405TIP3    H137706   5.783   0.044   1.195  0.2511 -1.8056 -0.0100
 5405TIP3    H237707   5.866   0.023   1.070 -0.6078  1.1353 -1.1466
 5406TIP3   OH237708   4.584   1.132  15.967 -0.1225  0.2651  0.1896
 5406TIP3    H137709   4.514   1.171  16.018  0.9303 -0.3425  2.2042
 5406TIP3    H237710   4.654   1.197  15.969 -0.8653  1.2695 -2.5851
 5407TIP3   OH237711   2.962   1.660  11.887 -0.8621  0.0234 -0.0010
 5407TIP3    H137712   2.894   1.597  11.863 -2.1906  1.1301  0.6388
 5407TIP3    H237713   2.931   1.697  11.970  0.7799  0.2417  0.5542
 5408TIP3   OH237714   5.274   0.004  12.729 -1.1653 -0.1232 -0.4376
 5408TIP3    H137715   5.230   0.071  12.782 -0.2098 -1.3747  2.0918
 5408TIP3    H237716   5.263   0.035  12.638 -0.3542  3.7142  0.5711
 5409TIP3   OH237717   2.843   6.470   3.461  0.0289 -0.3903 -0.2180
 5409TIP3    H137718   2.832   6.539   3.396  1.2653  0.4320  0.3981
 5409TIP3    H237719   2.867   6.392   3.411  2.1610  0.5189 -0.7284
 5410TIP3   OH237720   2.760   5.970   3.965 -0.6260 -0.0523 -0.0146
 5410TIP3    H137721   2.727   5.895   3.916 -0.2046 -1.0944  1.2607
 5410TIP3    H237722   2.790   6.031   3.897 -2.3528 -0.3506 -1.1092
 5411TIP3   OH237723   2.637   3.403  11.965  0.5026 -0.0909  0.2216
 5411TIP3    H137724   2.560   3.455  11.938  0.0473  0.1326  1.8381
 5411TIP3    H237725   2.712   3.455  11.937  0.0515  0.3367 -0.2091
 5412TIP3   OH237726   5.458   5.799   2.661 -0.2857 -0.2554  0.0167
 5412TIP3    H137727   5.426   5.816   2.572  0.9330 -0.6618 -0.5092
 5412TIP3    H237728   5.518   5.725   2.652 -2.8842 -2.7867  1.7580
 5413TIP3   OH237729   1.500   4.097  14.544 -0.0712  0.3784 -0.0506
 5413TIP3    H137730   1.552   4.091  14.464  0.3351 -0.4506  0.2660
 5413TIP3    H237731   1.431   4.032  14.532  0.7343 -0.6727  0.7940
 5414TIP3   OH237732   3.835   4.133   1.053 -0.6276 -0.2068 -0.8239
 5414TIP3    H137733   3.744   4.160   1.043 -1.1074 -1.8425 -1.2644
 5414TIP3    H237734   3.880   4.174   0.979 -1.2523 -0.3400 -1.2880
 5415TIP3   OH237735   3.517   5.127   0.913 -0.3892  0.1735  0.6600
 5415TIP3    H137736   3.490   5.156   0.826  0.0529  0.6227  0.6731
 5415TIP3    H237737   3.602   5.085   0.899 -0.1766  0.5183  0.9236
 5416TIP3   OH237738   4.845   2.968  13.593  0.1180  0.4138  0.2169
 5416TIP3    H137739   4.913   2.924  13.645 -1.4231 -2.5554 -0.1065
 5416TIP3    H237740   4.823   2.906  13.524 -2.8645  1.2831  0.2621
 5417TIP3   OH237741   0.250   3.988  15.725  0.3642 -0.7836  0.1411
 5417TIP3    H137742   0.167   3.987  15.677  0.2683 -0.5061  0.2983
 5417TIP3    H237743   0.316   3.968  15.659  0.2291 -0.4406 -0.0982
 5418TIP3   OH237744   2.139   4.780  15.792  0.0226  0.2045 -0.4705
 5418TIP3    H137745   2.121   4.743  15.879  1.8581  1.4849  0.5284
 5418TIP3    H237746   2.053   4.798  15.755 -0.8064  0.0762  1.2872
 5419TIP3   OH237747   5.693   6.407  16.593 -0.3942 -0.2913  0.2424
 5419TIP3    H137748   5.690   6.493  16.549  0.4857  0.6678  1.9434
 5419TIP3    H237749   5.739   6.350  16.531 -1.1606  0.3841 -1.0036
 5420TIP3   OH237750   5.911   4.913  16.658 -0.4722  0.0038  0.0681
 5420TIP3    H137751   5.958   4.921  16.575  0.5936 -0.5056  0.6057
 5420TIP3    H237752   5.937   4.991  16.708 -1.1138  0.3111 -0.0736
 5421TIP3   OH237753   6.193   3.833  11.467 -0.0467  0.3539  0.1368
 5421TIP3    H137754   6.135   3.843  11.392 -0.4162  0.3228  0.4149
 5421TIP3    H237755   6.171   3.748  11.504  3.2480 -1.8357 -2.3418
 5422TIP3   OH237756   5.080   5.884  13.581  0.7022 -0.6141  0.1215
 5422TIP3    H137757   5.059   5.931  13.662 -0.1682 -1.5692  0.4713
 5422TIP3    H237758   5.013   5.816  13.575  1.4856 -1.3269 -0.7723
 5423TIP3   OH237759   2.799   5.907   5.569  0.2016  0.1813  0.4503
 5423TIP3    H137760   2.789   5.981   5.628 -0.3339 -1.1830  2.1565
 5423TIP3    H237761   2.709   5.883   5.546  0.1804 -1.4789  2.0028
 5424TIP3   OH237762   3.727   1.275   4.663  0.0250 -0.2582 -0.6668
 5424TIP3    H137763   3.816   1.267   4.696 -0.5727 -0.9545  0.8838
 5424TIP3    H237764   3.732   1.342   4.595  1.9807 -1.2995 -1.6307
 5425TIP3   OH237765   2.325   1.486   2.599  0.4572  0.3700 -0.6617
 5425TIP3    H137766   2.298   1.476   2.508  2.9527  0.2466 -1.4713
 5425TIP3    H237767   2.297   1.575   2.623  0.9278  0.8976 -2.0010
 5426TIP3   OH237768   5.602   4.306   4.465  0.0317 -0.1011 -0.5585
 5426TIP3    H137769   5.560   4.225   4.437  1.1088 -0.5112 -1.0461
 5426TIP3    H237770   5.571   4.321   4.554  2.1245 -2.6974  0.7262
 5427TIP3   OH237771   1.133   6.687  13.225 -0.0139  0.0630  0.2633
 5427TIP3    H137772   1.163   6.625  13.291  0.1293 -1.4947 -1.1810
 5427TIP3    H237773   1.107   6.632  13.151 -1.0690  1.6856 -0.6303
 5428TIP3   OH237774   6.451   2.113   2.469 -0.0959  0.5031 -0.4799
 5428TIP3    H137775   6.441   2.023   2.436 -0.1442  0.7612 -1.1860
 5428TIP3    H237776   6.364   2.136   2.501 -0.3698  0.6886 -1.3244
 5429TIP3   OH237777   1.992   0.540  13.532 -0.0358  0.1018  0.1327
 5429TIP3    H137778   1.967   0.567  13.444  1.8422 -0.6848 -0.7004
 5429TIP3    H237779   1.969   0.447  13.535 -0.1703  0.1462  0.5093
 5430TIP3   OH237780   0.229   5.398  14.325  0.5473 -0.4059  0.2995
 5430TIP3    H137781   0.213   5.480  14.371  0.5977  1.0745 -2.1438
 5430TIP3    H237782   0.165   5.337  14.361 -1.3729  1.4953  0.2729
 5431TIP3   OH237783   5.935   3.802  14.282 -0.1887  0.1123 -0.6187
 5431TIP3    H137784   5.922   3.877  14.340 -2.8032 -2.6284  2.7728
 5431TIP3    H237785   5.990   3.742  14.332 -0.2131 -1.2680 -2.1580
 5432TIP3   OH237786   0.751   5.930   5.143 -0.1538  0.2484  0.3879
 5432TIP3    H137787   0.656   5.937   5.151 -0.0341  2.7240  0.3441
 5432TIP3    H237788   0.786   5.985   5.214  1.2795 -1.1820  0.8500
 5433TIP3   OH237789   2.194   3.114  11.233 -0.5510  0.2115 -0.0026
 5433TIP3    H137790   2.191   3.028  11.275  0.1133  0.7628  1.2532
 5433TIP3    H237791   2.104   3.147  11.240 -0.0413  1.2551  3.2415
 5434TIP3   OH237792   2.506   1.962   3.677  0.3843  0.4989 -0.3520
 5434TIP3    H137793   2.444   1.917   3.734  0.6445 -0.9229 -1.1692
 5434TIP3    H237794   2.537   1.895   3.616  1.2159  1.6487 -1.2392
 5435TIP3   OH237795   6.177   4.682   6.395 -0.4739 -0.0705 -0.8785
 5435TIP3    H137796   6.250   4.731   6.431 -0.4866 -0.5995 -0.1084
 5435TIP3    H237797   6.191   4.592   6.425  0.9345 -1.1527 -4.3122
 5436TIP3   OH237798   5.555   0.230   4.194 -0.0398 -0.1482 -0.3961
 5436TIP3    H137799   5.623   0.288   4.227 -0.6350  0.1485  0.3244
 5436TIP3    H237800   5.474   0.261   4.235 -0.9621  0.7143 -2.7032
 5437TIP3   OH237801   5.345   2.616   2.020 -0.3930  0.4250  0.0493
 5437TIP3    H137802   5.293   2.539   2.045 -0.3499  0.7044  1.0429
 5437TIP3    H237803   5.322   2.631   1.928 -0.5555 -0.6475 -0.1054
 5438TIP3   OH237804   1.163   0.049   4.677 -0.0665 -0.6122 -0.0685
 5438TIP3    H137805   1.256   0.063   4.656 -0.4242  0.9862 -0.7580
 5438TIP3    H237806   1.117   0.068   4.595 -1.0827 -0.3639  0.5445
 5439TIP3   OH237807   4.665   1.384  12.377 -0.5283 -0.4177  0.5615
 5439TIP3    H137808   4.676   1.308  12.320 -1.5954  0.1265 -0.3917
 5439TIP3    H237809   4.751   1.425  12.380 -0.4409 -0.4895 -0.6259
 5440TIP3   OH237810   4.615   1.127   3.950 -0.4673  0.5650 -0.3440
 5440TIP3    H137811   4.570   1.056   3.906 -0.5799  0.8646 -0.7229
 5440TIP3    H237812   4.569   1.138   4.033 -0.3103  0.0548 -0.1909
 5441TIP3   OH237813   0.105   5.766   0.141  0.2845  0.2498  0.3377
 5441TIP3    H137814   0.189   5.810   0.134  0.1206  0.5328  0.1552
 5441TIP3    H237815   0.052   5.803   0.070 -1.0736  2.4358  2.3389
 5442TIP3   OH237816   2.533   2.743   0.827 -0.1091 -0.0145 -0.2858
 5442TIP3    H137817   2.524   2.668   0.768  1.3421 -0.1028 -0.4243
 5442TIP3    H237818   2.622   2.774   0.813 -0.3802  1.1594  0.4678
 5443TIP3   OH237819   5.805   6.486   2.865 -0.0405  0.8725 -0.0831
 5443TIP3    H137820   5.807   6.461   2.958  0.8852  0.8337 -0.1085
 5443TIP3    H237821   5.736   6.553   2.860  1.2794  2.3993  1.0368
 5444TIP3   OH237822   3.469   2.551  15.813  0.5939  0.1749  0.0351
 5444TIP3    H137823   3.510   2.615  15.872  0.3186 -0.3675  0.8257
 5444TIP3    H237824   3.543   2.500  15.779  0.7298  0.2692  0.1859
 5445TIP3   OH237825   2.727   4.051  15.455  0.2393  0.1196 -0.2650
 5445TIP3    H137826   2.637   4.055  15.420  0.6143 -1.4815 -1.5676
 5445TIP3    H237827   2.718   4.006  15.539 -0.3278  1.2265  0.2803
 5446TIP3   OH237828   4.154   5.419   4.523  0.0761 -0.1738 -0.2521
 5446TIP3    H137829   4.115   5.493   4.569  0.7908 -0.2384  0.4797
 5446TIP3    H237830   4.231   5.397   4.575 -0.0066 -1.2941 -0.5882
 5447TIP3   OH237831   0.001   5.230  10.422  0.1733  0.2082  0.1365
 5447TIP3    H137832   0.019   5.181  10.502 -0.3978  0.5975  0.5143
 5447TIP3    H237833  -0.059   5.175  10.372 -1.2061  0.8765  0.9754
 5448TIP3   OH237834   5.595   5.393  11.954  0.1029  0.3229 -0.0107
 5448TIP3    H137835   5.562   5.303  11.954  0.9388 -0.0001 -0.5458
 5448TIP3    H237836   5.622   5.409  12.044  0.3854 -0.1296 -0.0131
 5449TIP3   OH237837   1.402   2.326   0.402 -0.2295 -0.6410 -0.6133
 5449TIP3    H137838   1.372   2.417   0.399  0.1994 -0.2146  3.4535
 5449TIP3    H237839   1.325   2.277   0.431  0.0487 -1.2868 -0.9510
 5450TIP3   OH237840   1.473   2.195  10.970  0.0394  0.1171 -0.2079
 5450TIP3    H137841   1.564   2.204  10.998  0.5142  1.5011 -1.9972
 5450TIP3    H237842   1.457   2.101  10.968  1.5192 -0.1595 -0.0951
 5451TIP3   OH237843   2.126   1.671  15.537 -0.0646  0.0743 -0.0423
 5451TIP3    H137844   2.137   1.577  15.523  0.7073  0.3193 -1.2098
 5451TIP3    H237845   2.215   1.706  15.539 -0.3731  0.9716 -1.0322
 5452TIP3   OH237846   6.495   6.009  11.204 -0.0131  0.0087  0.0384
 5452TIP3    H137847   6.584   5.994  11.173  0.5462  0.6433  1.2488
 5452TIP3    H237848   6.440   5.990  11.129  1.1106 -0.8619 -0.6037
 5453TIP3   OH237849   1.051   3.790  15.117 -0.0544 -0.4977  0.3048
 5453TIP3    H137850   1.045   3.885  15.100  1.8263 -0.5518 -1.1509
 5453TIP3    H237851   1.018   3.779  15.205 -0.8190  1.4547  0.3189
 5454TIP3   OH237852   4.863   4.932  15.924 -0.5156  0.1393 -0.4320
 5454TIP3    H137853   4.774   4.926  15.889 -0.0255 -0.1800 -1.6895
 5454TIP3    H237854   4.885   5.025  15.917 -1.0666  0.3793  0.7558
 5455TIP3   OH237855   2.555   2.912   3.658 -0.2283 -0.5270 -0.0210
 5455TIP3    H137856   2.521   2.871   3.578  2.3200 -2.1014 -0.3979
 5455TIP3    H237857   2.478   2.918   3.715 -2.6402  2.4124 -3.0963
 5456TIP3   OH237858   1.285   5.241   5.143  0.8301 -0.3563  0.0448
 5456TIP3    H137859   1.196   5.253   5.177  0.4080 -2.2906 -0.2537
 5456TIP3    H237860   1.285   5.287   5.060  0.3090  0.1937  0.3394
 5457TIP3   OH237861   2.914   5.660   0.261  0.2466  0.8412  0.2364
 5457TIP3    H137862   2.942   5.572   0.287 -1.6509 -0.0550 -0.5328
 5457TIP3    H237863   2.907   5.708   0.343 -2.9242 -1.0909  1.2876
 5458TIP3   OH237864   2.567   1.893  17.171 -0.4049 -0.4849  0.1598
 5458TIP3    H137865   2.579   1.798  17.178  0.2722 -0.4409 -0.2836
 5458TIP3    H237866   2.509   1.905  17.096  0.0414 -0.5273 -0.1989
 5459TIP3   OH237867   1.012   4.411  14.528 -0.6225 -0.3292 -0.2119
 5459TIP3    H137868   1.096   4.366  14.540  0.1006  0.9416 -0.2789
 5459TIP3    H237869   1.004   4.423  14.433  1.0243  2.8793 -0.0680
 5460TIP3   OH237870   5.347   5.935  11.474 -0.7234 -0.2166 -0.1828
 5460TIP3    H137871   5.372   5.896  11.390  0.8410  0.5382 -0.1013
 5460TIP3    H237872   5.360   5.865  11.538 -3.5709 -1.3601 -0.6988
 5461TIP3   OH237873   3.128   3.491   5.092  0.6447  0.3778  0.7055
 5461TIP3    H137874   3.200   3.431   5.110 -0.0226 -0.3800  0.9107
 5461TIP3    H237875   3.071   3.443   5.032  1.5461  1.9146 -1.4778
 5462TIP3   OH237876   4.790   6.014  12.782 -0.1723 -0.1895 -0.6811
 5462TIP3    H137877   4.772   5.921  12.767 -1.2577 -0.3032  1.1041
 5462TIP3    H237878   4.830   6.017  12.869 -1.3136  1.1148 -0.1663
 5463TIP3   OH237879   0.545   1.723  14.360 -0.1808  0.0022  0.0121
 5463TIP3    H137880   0.578   1.663  14.427 -0.9663 -0.2641  0.1646
 5463TIP3    H237881   0.486   1.782  14.406 -0.4264  0.0643 -0.3763
 5464TIP3   OH237882   5.514   0.760   6.726 -0.0770 -0.1678 -0.1490
 5464TIP3    H137883   5.565   0.816   6.668 -0.6215  1.0979  0.5605
 5464TIP3    H237884   5.512   0.807   6.809  0.0225 -1.5644  0.6837
 5465TIP3   OH237885   5.384   0.695   2.303 -0.5878  0.0093 -0.3387
 5465TIP3    H137886   5.457   0.660   2.353 -0.9031 -1.2088 -0.6937
 5465TIP3    H237887   5.385   0.789   2.321  1.8173  0.2389 -1.3011
 5466TIP3   OH237888   2.454   6.181   1.284 -0.2119 -0.3714 -0.5760
 5466TIP3    H137889   2.497   6.259   1.320  0.8270 -0.9738 -0.4813
 5466TIP3    H237890   2.407   6.213   1.207 -0.3977  0.4792 -0.1278
 5467TIP3   OH237891   2.977   5.161   5.863  0.9810  0.2066 -0.1310
 5467TIP3    H137892   3.029   5.206   5.796  0.9699 -0.1255 -0.3670
 5467TIP3    H237893   3.041   5.105   5.908  0.3389 -2.6877 -2.5214
 5468TIP3   OH237894   3.624   4.784  11.587  0.3991  0.0301 -0.3695
 5468TIP3    H137895   3.665   4.814  11.668 -0.9603 -0.6371  0.6145
 5468TIP3    H237896   3.661   4.697  11.573  0.5772  0.1138 -0.4201
 5469TIP3   OH237897   6.341   5.083  16.414  0.0727 -0.3480 -0.3605
 5469TIP3    H137898   6.359   5.045  16.328  0.7846  0.0427 -0.3852
 5469TIP3    H237899   6.401   5.038  16.473 -0.7421 -0.9528  0.0227
 5470TIP3   OH237900   2.307   5.045  16.841  0.1634  0.4506  0.3754
 5470TIP3    H137901   2.276   5.133  16.859 -1.3011 -0.4083  2.3642
 5470TIP3    H237902   2.395   5.042  16.879 -0.0978  0.8284  1.0200
 5471TIP3   OH237903   5.529   4.804   4.508 -0.7809 -0.1140  0.2153
 5471TIP3    H137904   5.618   4.841   4.511 -0.9130  0.2571  4.1016
 5471TIP3    H237905   5.542   4.715   4.476  1.0040 -0.0893  0.7622
 5472TIP3   OH237906   2.427   1.282  12.654 -0.4535  0.3174  0.2344
 5472TIP3    H137907   2.470   1.202  12.622 -1.8462  0.2110 -1.4860
 5472TIP3    H237908   2.400   1.260  12.743  1.3689 -0.2446  0.6973
 5473TIP3   OH237909   3.846   0.527  13.137  0.1243 -0.0797  0.2881
 5473TIP3    H137910   3.849   0.606  13.083 -2.0937  1.3250  2.0456
 5473TIP3    H237911   3.873   0.557  13.224 -2.7493 -0.7030  1.4733
 5474TIP3   OH237912   0.169   0.223   3.503 -0.2149 -0.6295 -0.3452
 5474TIP3    H137913   0.141   0.267   3.583  1.0930 -2.3943  1.1682
 5474TIP3    H237914   0.156   0.130   3.521  0.4039 -1.0951 -2.0853
 5475TIP3   OH237915   4.530   0.399  16.229 -0.0710 -0.1690 -0.4626
 5475TIP3    H137916   4.446   0.392  16.183 -0.2952  0.9303 -0.2438
 5475TIP3    H237917   4.520   0.342  16.305 -0.5767 -0.1593 -0.5170
 5476TIP3   OH237918   3.898   5.359  16.616  0.0794  0.3086  0.1368
 5476TIP3    H137919   3.888   5.305  16.537  1.2665  1.1027 -0.5921
 5476TIP3    H237920   3.992   5.375  16.622 -0.0504  0.6848  1.4439
 5477TIP3   OH237921   2.517   4.067   0.363  0.3519 -0.1227  0.1256
 5477TIP3    H137922   2.487   4.153   0.332  1.3258 -0.5112 -2.0761
 5477TIP3    H237923   2.608   4.081   0.387  0.0737 -0.2188  1.2848
 5478TIP3   OH237924   2.275   6.194   0.994 -0.2140 -0.3297  0.2323
 5478TIP3    H137925   2.271   6.165   0.903  0.6423  0.3123 -0.0251
 5478TIP3    H237926   2.304   6.285   0.989 -0.4368 -0.1980  1.1364
 5479TIP3   OH237927   5.768   0.458   1.163 -0.0146 -0.4073  0.0334
 5479TIP3    H137928   5.846   0.451   1.219 -0.1438 -0.5417  0.1979
 5479TIP3    H237929   5.762   0.551   1.141  0.0378 -0.3551  0.2416
 5480TIP3   OH237930   6.032   0.178   2.144  0.9443 -0.3199  0.0727
 5480TIP3    H137931   5.975   0.141   2.212  0.3409 -0.4502 -0.4930
 5480TIP3    H237932   6.103   0.115   2.136  1.0802 -0.2502  0.6572
 5481TIP3   OH237933   2.488   3.139  16.862  0.1879 -0.4677  0.2779
 5481TIP3    H137934   2.504   3.168  16.951  1.4564 -0.4441  0.0564
 5481TIP3    H237935   2.531   3.054  16.855  3.1612  1.0018 -1.2536
 5482TIP3   OH237936   4.781   3.511   4.639  0.3410  0.3486  0.2941
 5482TIP3    H137937   4.799   3.462   4.559  0.3875  0.2748  0.3492
 5482TIP3    H237938   4.744   3.594   4.609  0.3113  0.3010  0.1982
 5483TIP3   OH237939   6.294   1.197   5.842 -0.3074 -0.2031  0.4154
 5483TIP3    H137940   6.342   1.250   5.906  0.1431  0.9118 -0.8050
 5483TIP3    H237941   6.274   1.116   5.889  0.3997  0.3936  1.8201
 5484TIP3   OH237942   1.698   2.169  17.224 -0.1383  0.1808  0.4890
 5484TIP3    H137943   1.724   2.143  17.136  1.0838 -1.0662  1.1947
 5484TIP3    H237944   1.738   2.256  17.236 -1.7402  1.1623 -0.7651
 5485TIP3   OH237945   6.617   1.180  10.788 -0.0331  0.2916  0.0753
 5485TIP3    H137946   6.699   1.151  10.747  0.1105  0.5482  0.1804
 5485TIP3    H237947   6.578   1.239  10.724 -0.3518 -0.1728 -0.1603
 5486TIP3   OH237948   3.983   4.324   1.216 -0.8563 -0.0622 -0.2345
 5486TIP3    H137949   4.077   4.317   1.229 -0.5700 -0.1343 -2.0156
 5486TIP3    H237950   3.954   4.234   1.199 -0.9399  0.1666 -1.3623
 5487TIP3   OH237951   2.096   2.065  10.288 -0.0740  0.1196 -0.1202
 5487TIP3    H137952   2.064   2.079  10.377 -0.2477  0.7564 -0.2812
 5487TIP3    H237953   2.145   2.144  10.268  0.9508 -0.5191 -0.1663
 5488TIP3   OH237954   0.865   5.483   5.113 -0.2015 -0.4332 -0.3418
 5488TIP3    H137955   0.918   5.497   5.035  0.4100 -1.5694 -0.1550
 5488TIP3    H237956   0.928   5.476   5.185 -0.7056 -0.1694  0.1337
 5489TIP3   OH237957   4.724   0.334  14.713  0.1100  0.2079 -0.3360
 5489TIP3    H137958   4.768   0.415  14.740  0.4123 -0.2945  0.7784
 5489TIP3    H237959   4.796   0.276  14.689  0.1661 -0.7387  1.8296
 5490TIP3   OH237960   0.222   5.000   5.216 -0.1166  0.4462  0.3019
 5490TIP3    H137961   0.281   5.009   5.141 -0.5050 -1.9348 -0.3519
 5490TIP3    H237962   0.229   4.909   5.243 -1.5661  0.7284  1.8594
 5491TIP3   OH237963   0.131   2.500  10.508  0.0753 -0.4008 -0.5629
 5491TIP3    H137964   0.218   2.511  10.470  0.0815 -0.7234 -0.6453
 5491TIP3    H237965   0.127   2.407  10.532  0.2268 -0.1101  0.6091
 5492TIP3   OH237966   2.901   2.310   0.090 -0.1578  0.0119 -0.4742
 5492TIP3    H137967   2.954   2.234   0.114 -0.1242  0.6741  1.8059
 5492TIP3    H237968   2.952   2.385   0.119 -1.0483  0.8002 -0.9014
 5493TIP3   OH237969   3.133   0.547  10.840 -0.4182 -0.0320 -0.2376
 5493TIP3    H137970   3.099   0.624  10.793  1.7786  1.8182  1.0187
 5493TIP3    H237971   3.219   0.574  10.870  1.5203 -3.8346 -1.7379
 5494TIP3   OH237972   3.020   1.231  16.301 -0.1140 -0.4951  0.0336
 5494TIP3    H137973   3.015   1.258  16.209 -1.3981  0.1958  0.2712
 5494TIP3    H237974   3.026   1.313  16.350  0.7782 -0.8645  0.5614
 5495TIP3   OH237975   6.188   6.517   0.335 -0.3486  0.3414 -0.5657
 5495TIP3    H137976   6.100   6.510   0.298  0.0457 -1.1843 -1.3018
 5495TIP3    H237977   6.246   6.484   0.266  0.5774 -0.8741  0.7394
 5496TIP3   OH237978   0.835   2.731  13.226 -0.5554 -0.0456  0.0290
 5496TIP3    H137979   0.767   2.669  13.200  0.2156 -0.3707 -1.3011
 5496TIP3    H237980   0.833   2.798  13.159  1.0847 -0.5785 -0.6047
 5497TIP3   OH237981   6.292   3.213   6.163 -0.8752 -0.2731  0.1001
 5497TIP3    H137982   6.369   3.176   6.119 -1.8790  0.5144 -2.5078
 5497TIP3    H237983   6.278   3.297   6.119 -1.2456  1.2133  2.8531
 5498TIP3   OH237984   1.283   4.258   1.344  0.4059  0.1052 -0.3436
 5498TIP3    H137985   1.324   4.280   1.260 -2.2289  0.5560 -1.6075
 5498TIP3    H237986   1.334   4.184   1.376  3.0624  1.4663 -1.0397
 5499TIP3   OH237987   1.939   5.659   3.966 -0.1402 -0.2012  0.0560
 5499TIP3    H137988   1.884   5.717   3.914  1.9288 -0.8891 -3.2424
 5499TIP3    H237989   1.891   5.577   3.969  0.1534 -0.5239 -2.0093
 5500TIP3   OH237990   1.770   1.126   3.162 -0.1444  0.3944  0.0990
 5500TIP3    H137991   1.840   1.182   3.128  0.8864 -1.8277 -1.6375
 5500TIP3    H237992   1.759   1.155   3.253  0.2392  3.4253 -0.7166
 5501TIP3   OH237993   5.183   3.729   3.917  0.0464  0.1756  0.2244
 5501TIP3    H137994   5.121   3.660   3.894  0.8559 -0.9522  1.3185
 5501TIP3    H237995   5.221   3.755   3.833  0.9029 -1.8737 -0.0793
 5502TIP3   OH237996   4.512   1.280  16.396  0.0312  0.3751  0.3299
 5502TIP3    H137997   4.578   1.338  16.357 -1.4899  0.1498 -2.9618
 5502TIP3    H237998   4.561   1.225  16.456  2.6276  1.0818 -0.9855
 5503TIP3   OH237999   1.343   2.083  10.442 -0.4865 -0.1959  0.2384
 5503TIP3    H138000   1.285   2.079  10.518 -0.9840  0.1483 -0.1108
 5503TIP3    H238001   1.290   2.048  10.370 -0.0953 -0.3149  0.0069
 5504TIP3   OH238002   4.922   5.801  16.974 -0.6384  0.4613 -0.1617
 5504TIP3    H138003   5.016   5.784  16.973 -0.6507  0.4165 -1.1392
 5504TIP3    H238004   4.883   5.721  16.939 -0.9260  1.0637 -1.2727
 5505TIP3   OH238005   3.583   0.584   4.712  0.1642  0.2370 -0.6092
 5505TIP3    H138006   3.575   0.679   4.721 -0.5002  0.0900  0.5830
 5505TIP3    H238007   3.651   0.560   4.775 -0.4101 -0.1752 -0.1247
 5506TIP3   OH238008   0.818   5.874  11.715 -0.4683  0.3494 -0.6373
 5506TIP3    H138009   0.787   5.833  11.795  1.2156  0.0056 -0.1196
 5506TIP3    H238010   0.759   5.948  11.701 -1.7854 -0.5486  0.0007
 5507TIP3   OH238011   1.481   6.505   4.427 -0.2630  0.1411 -0.5168
 5507TIP3    H138012   1.411   6.441   4.433 -0.8199  0.8325  1.0397
 5507TIP3    H238013   1.475   6.555   4.509  1.4655  0.8176 -0.7453
 5508TIP3   OH238014   4.589   0.765   2.190  0.0547 -0.3270 -0.1257
 5508TIP3    H138015   4.533   0.758   2.267 -0.6671 -0.3302 -0.6479
 5508TIP3    H238016   4.678   0.772   2.226 -0.3024  0.0185  0.7152
 5509TIP3   OH238017   3.794   1.153   2.270 -0.0676 -0.1553  0.4865
 5509TIP3    H138018   3.843   1.079   2.308 -0.5072 -0.8950 -0.3420
 5509TIP3    H238019   3.801   1.222   2.336 -1.0091 -1.4651  2.0569
 5510TIP3   OH238020   0.808   2.701  11.802 -0.1455 -0.5633 -0.4481
 5510TIP3    H138021   0.808   2.796  11.820 -3.1609 -0.2346 -1.6279
 5510TIP3    H238022   0.760   2.663  11.875 -0.0489 -1.0199 -0.6205
 5511TIP3   OH238023   0.674   3.023   3.040 -0.1493  0.1046  0.6444
 5511TIP3    H138024   0.586   3.037   3.006 -0.3209 -0.9076  0.6327
 5511TIP3    H238025   0.727   3.005   2.962 -0.4038 -1.5269  0.8120
 5512TIP3   OH238026   0.895   4.825   5.134  0.2515 -0.3947  0.1491
 5512TIP3    H138027   0.876   4.775   5.055  0.9690  1.6629 -1.4175
 5512TIP3    H238028   0.818   4.879   5.149  0.3234 -0.3974  0.5598
 5513TIP3   OH238029   1.010   6.002  13.397 -0.4863  0.0886 -0.3622
 5513TIP3    H138030   0.938   5.979  13.339 -0.5504  0.7190 -0.5402
 5513TIP3    H238031   0.974   5.991  13.485 -1.3780  2.0395 -0.4246
 5514TIP3   OH238032   4.224   3.538  11.967 -0.0871 -0.2749  0.4388
 5514TIP3    H138033   4.318   3.555  11.963  0.0601 -0.7953  1.4605
 5514TIP3    H238034   4.194   3.550  11.877  0.4868  2.5063  0.5444
 5515TIP3   OH238035   2.244   6.315   5.459  0.1677 -0.3901  0.2353
 5515TIP3    H138036   2.222   6.241   5.515 -1.7954 -0.4723 -0.5848
 5515TIP3    H238037   2.336   6.301   5.436  0.7279 -0.8885  2.5613
 5516TIP3   OH238038   0.131   6.742   3.543 -0.0067  0.0126 -0.2197
 5516TIP3    H138039   0.077   6.725   3.465 -0.5212  1.4556 -0.2084
 5516TIP3    H238040   0.116   6.666   3.599 -0.3598 -0.6093 -1.1356
 5517TIP3   OH238041   4.113   4.573   6.050 -0.2036 -0.1307  0.3435
 5517TIP3    H138042   4.082   4.649   6.100 -0.6599  0.4661 -0.8184
 5517TIP3    H238043   4.043   4.507   6.060 -0.3296  0.0151  0.4251
 5518TIP3   OH238044   5.665   3.487   3.278  0.1100 -0.0715  0.0144
 5518TIP3    H138045   5.610   3.494   3.200  0.1863 -0.3022 -0.0606
 5518TIP3    H238046   5.638   3.405   3.320  0.8544 -0.5298 -0.3831
 5519TIP3   OH238047   0.686   0.867   3.511 -0.6120 -0.8176 -0.5038
 5519TIP3    H138048   0.640   0.863   3.427 -1.3421 -0.1800 -0.1485
 5519TIP3    H238049   0.645   0.940   3.557  0.5995 -0.4027 -0.0682
 5520TIP3   OH238050   2.430   1.453  12.422 -0.0581  0.3881 -0.3440
 5520TIP3    H138051   2.423   1.415  12.509  0.6953  0.5419 -0.2133
 5520TIP3    H238052   2.502   1.405  12.380 -0.8376 -0.1379 -1.1176
 5521TIP3   OH238053   5.506   3.328  12.042  0.4013 -0.0178 -0.5001
 5521TIP3    H138054   5.499   3.392  11.971  1.4730  1.2329  0.4697
 5521TIP3    H238055   5.450   3.255  12.014 -1.4761  1.6292 -1.3273
 5522TIP3   OH238056   3.886   5.323   1.906  0.2272 -0.7844 -0.1758
 5522TIP3    H138057   3.852   5.248   1.956  0.8033 -1.7809 -1.2423
 5522TIP3    H238058   3.823   5.335   1.835  0.8596 -1.1571 -0.8106
 5523TIP3   OH238059   0.791   3.443  12.964 -0.1905 -0.3506 -0.2525
 5523TIP3    H138060   0.806   3.462  12.871  1.5279 -1.3855 -0.2298
 5523TIP3    H238061   0.696   3.433  12.971 -0.3414 -0.4716 -1.9538
 5524TIP3   OH238062   6.332   2.575   2.767 -0.2599  0.2676  0.5689
 5524TIP3    H138063   6.355   2.483   2.780 -0.0142  0.3422  0.6879
 5524TIP3    H238064   6.273   2.596   2.839 -2.1181 -0.3914 -0.7146
 5525TIP3   OH238065   2.874   6.668   0.784 -0.1142  0.3232 -0.2773
 5525TIP3    H138066   2.835   6.708   0.861 -0.0431  1.5028 -0.8253
 5525TIP3    H238067   2.805   6.611   0.748 -0.6197  0.8157 -0.1009
 5526TIP3   OH238068   4.927   0.680  13.688 -0.1592 -0.0154  0.1099
 5526TIP3    H138069   4.923   0.693  13.593 -0.1850  0.9137  0.2334
 5526TIP3    H238070   5.018   0.654  13.704 -0.3372 -0.8968 -0.2444
 5527TIP3   OH238071   1.755   1.280  13.178  0.3932 -0.0829 -0.3473
 5527TIP3    H138072   1.825   1.252  13.236  1.7470  0.4776 -1.6490
 5527TIP3    H238073   1.697   1.204  13.172  0.1994 -0.1541  1.6995
 5528TIP3   OH238074   1.046   6.243   6.168  0.8739  0.1616 -0.1992
 5528TIP3    H138075   1.117   6.259   6.105 -0.4406  2.1660 -1.2865
 5528TIP3    H238076   0.966   6.245   6.115 -0.0422 -3.5033  0.7394
 5529TIP3   OH238077   6.348   0.801   6.159  0.1715 -0.1557 -0.3674
 5529TIP3    H138078   6.277   0.738   6.170 -0.9824  1.2659  0.6747
 5529TIP3    H238079   6.398   0.769   6.084  0.5408 -3.1380  1.0238
 5530TIP3   OH238080   2.705   3.525   0.962  0.0974  0.4586 -0.2892
 5530TIP3    H138081   2.666   3.544   0.877 -0.9816  1.3923  0.3889
 5530TIP3    H238082   2.749   3.606   0.988  1.5025 -0.2046 -0.4855
 5531TIP3   OH238083   1.975   6.815   3.791  0.1958 -0.5891 -0.5527
 5531TIP3    H138084   1.967   6.869   3.712 -1.1590 -0.5246 -0.4086
 5531TIP3    H238085   2.018   6.871   3.855  0.0646 -0.1573 -0.8373
 5532TIP3   OH238086   2.775   6.325   6.614 -0.2394 -0.3444 -0.3211
 5532TIP3    H138087   2.722   6.321   6.694  0.2580 -0.3755  0.0138
 5532TIP3    H238088   2.865   6.335   6.646 -0.2175  1.9795 -0.8919
 5533TIP3   OH238089   2.141   0.759   1.325  0.5542 -0.7373  0.0415
 5533TIP3    H138090   2.097   0.841   1.347 -1.9386 -1.7463 -0.8392
 5533TIP3    H238091   2.074   0.707   1.280  2.5237 -2.6271 -0.8879
 5534TIP3   OH238092   3.759   4.963   4.387 -0.2092 -0.0785 -0.1713
 5534TIP3    H138093   3.738   4.889   4.444 -2.5140 -0.6963 -1.6790
 5534TIP3    H238094   3.713   5.037   4.426 -0.0239 -0.0185 -0.0662
 5535TIP3   OH238095   0.442   4.210   0.212  0.7215  0.1228  0.5426
 5535TIP3    H138096   0.496   4.159   0.152  1.4275  0.1863  1.1112
 5535TIP3    H238097   0.505   4.257   0.267  0.1125 -0.6803  1.9633
 5536TIP3   OH238098   3.463   6.774  11.285 -0.3942 -1.0013 -0.3704
 5536TIP3    H138099   3.428   6.723  11.213  0.7941 -0.7116 -1.1713
 5536TIP3    H238100   3.458   6.865  11.255  0.3696 -0.8991 -0.2099
 5537TIP3   OH238101   0.646   4.001   2.496 -0.0622  0.7618 -0.5786
 5537TIP3    H138102   0.574   3.943   2.522 -0.8000  2.1497  0.5502
 5537TIP3    H238103   0.662   4.056   2.572  2.1321  0.5850 -0.8584
 5538TIP3   OH238104   1.395   0.377   0.966 -0.9824  0.2079 -0.6309
 5538TIP3    H138105   1.315   0.407   1.010 -0.8445 -0.9680  0.4908
 5538TIP3    H238106   1.450   0.342   1.037  0.3668  0.6357 -1.4320
 5539TIP3   OH238107   4.319   2.703   5.866 -0.2446 -0.0310 -0.4575
 5539TIP3    H138108   4.292   2.656   5.788  0.0259  1.6474 -1.6289
 5539TIP3    H238109   4.262   2.670   5.935 -1.9043 -0.1166 -1.7976
 5540TIP3   OH238110   5.636   3.775   3.976  0.4141 -0.0127 -0.3839
 5540TIP3    H138111   5.700   3.790   3.907  0.7055 -0.4621 -0.2134
 5540TIP3    H238112   5.636   3.680   3.988  0.2189  0.0490  0.1001
 5541TIP3   OH238113   5.999   6.339  12.833  0.5332 -0.4423  0.2286
 5541TIP3    H138114   5.994   6.279  12.908  2.6188  0.8608  1.5189
 5541TIP3    H238115   5.976   6.285  12.757 -2.8560 -1.5264  1.8521
 5542TIP3   OH238116   2.675   1.661  16.052  0.4076 -0.2896 -0.0751
 5542TIP3    H138117   2.725   1.738  16.079  0.5307  0.1026 -1.3323
 5542TIP3    H238118   2.711   1.638  15.966  0.0799 -1.4947  0.0950
 5543TIP3   OH238119   6.463   5.159  14.900  0.5083  0.0200  0.7410
 5543TIP3    H138120   6.552   5.190  14.919  0.6897 -0.6456  1.0069
 5543TIP3    H238121   6.418   5.236  14.865  1.0029  0.5303  1.2059
 5544TIP3   OH238122   4.524   2.538   3.675 -0.5912 -0.0797 -0.1915
 5544TIP3    H138123   4.536   2.585   3.758 -0.4652 -1.8089  0.8201
 5544TIP3    H238124   4.581   2.462   3.682 -0.3907 -0.1383 -2.0007
 5545TIP3   OH238125   6.508   5.911   1.647 -0.2750 -0.4974 -0.1587
 5545TIP3    H138126   6.514   5.854   1.570  0.4446 -0.2222 -0.3117
 5545TIP3    H238127   6.434   5.968   1.628  0.5337  0.2617 -1.1309
 5546TIP3   OH238128   0.284   2.823  15.494 -0.0225  0.3604 -0.3761
 5546TIP3    H138129   0.352   2.887  15.474 -0.4144  1.0091  0.2917
 5546TIP3    H238130   0.209   2.876  15.520 -0.9200 -0.3239 -1.4671
 5547TIP3   OH238131   3.968   5.201  16.360 -0.3558  0.3685 -0.4876
 5547TIP3    H138132   3.891   5.163  16.318 -0.1785 -2.1185  1.2154
 5547TIP3    H238133   4.012   5.127  16.401  1.2780  2.1641  1.2342
 5548TIP3   OH238134   4.776   2.155  11.227 -0.3908  0.0262  0.0703
 5548TIP3    H138135   4.843   2.117  11.170 -1.6692 -0.9324 -0.8940
 5548TIP3    H238136   4.698   2.101  11.210 -1.6271  1.5865  0.5221
 5549TIP3   OH238137   1.458   2.640   6.170 -0.4536 -0.4214  0.0342
 5549TIP3    H138138   1.444   2.611   6.080  0.6019 -0.1766 -0.2242
 5549TIP3    H238139   1.544   2.604   6.193 -0.1844  0.5066  0.5282
 5550TIP3   OH238140   2.896   5.375   0.316 -0.6576 -0.3577  0.1114
 5550TIP3    H138141   2.815   5.331   0.343 -0.2456 -0.9445  0.4338
 5550TIP3    H238142   2.902   5.359   0.222 -2.2173  1.8814 -0.4624
 5551TIP3   OH238143   6.507   6.762  10.578 -0.2134  0.2458 -0.0221
 5551TIP3    H138144   6.597   6.788  10.597  0.9507 -0.6550 -3.4274
 5551TIP3    H238145   6.511   6.667  10.569 -1.1117  0.3173 -1.6345
 5552TIP3   OH238146   3.593   4.710   0.645 -0.0155  0.0672 -0.3244
 5552TIP3    H138147   3.571   4.630   0.692 -1.5314 -0.4843 -1.8905
 5552TIP3    H238148   3.658   4.683   0.580 -0.6841  0.0333 -0.9950
 5553TIP3   OH238149   1.506   0.454  12.243  0.2428  0.4639  0.1806
 5553TIP3    H138150   1.493   0.393  12.315  0.1109  0.5509  0.2316
 5553TIP3    H238151   1.584   0.423  12.197  1.4557  1.4892  1.4666
 5554TIP3   OH238152   2.285   2.768   1.153 -0.2389 -0.2955  0.1891
 5554TIP3    H138153   2.361   2.779   1.210  0.4659 -0.4530 -0.6979
 5554TIP3    H238154   2.306   2.692   1.099  0.4967  1.5938 -2.3891
 5555TIP3   OH238155   1.118   6.743  13.982  0.0876  0.0678  0.2041
 5555TIP3    H138156   1.063   6.667  13.961  0.5224 -0.9943  2.6520
 5555TIP3    H238157   1.057   6.817  13.978 -0.5857 -0.5149 -1.1593
 5556TIP3   OH238158   6.376   5.322   5.156 -0.2691 -1.2034 -0.3929
 5556TIP3    H138159   6.437   5.315   5.083 -2.4864  1.4086 -2.7406
 5556TIP3    H238160   6.317   5.247   5.145 -2.0133  0.3789 -2.9252
 5557TIP3   OH238161   0.281   3.029  13.651  0.4215 -0.1036  0.4214
 5557TIP3    H138162   0.253   3.120  13.656  0.9473  0.1451 -0.6451
 5557TIP3    H238163   0.203   2.980  13.624  0.5498  0.3087 -0.7509
 5558TIP3   OH238164   3.500   3.802   0.941  0.0486 -0.2558  0.4933
 5558TIP3    H138165   3.481   3.733   1.005  0.1021  0.4717  1.3043
 5558TIP3    H238166   3.500   3.757   0.856 -2.4990 -0.8186  0.7163
 5559TIP3   OH238167   6.590   4.169  16.203  0.4456 -0.0601 -0.1274
 5559TIP3    H138168   6.530   4.110  16.157  1.8267 -1.2250 -0.4787
 5559TIP3    H238169   6.675   4.153  16.163  1.0075  1.6016  0.3345
 5560TIP3   OH238170   4.363   2.816  10.906 -0.5665 -0.9166 -0.6553
 5560TIP3    H138171   4.404   2.784  10.825 -1.9498  0.5037 -1.9720
 5560TIP3    H238172   4.429   2.874  10.945 -0.3133 -0.7097 -1.3697
 5561TIP3   OH238173   2.195   6.453   1.191 -0.3393 -0.2758 -0.9196
 5561TIP3    H138174   2.190   6.537   1.146 -1.4047 -0.3894 -1.0581
 5561TIP3    H238175   2.141   6.394   1.137 -0.1998 -0.8582 -0.4343
 5562TIP3   OH238176   6.697   3.208  15.040 -0.1877  0.0566  0.1684
 5562TIP3    H138177   6.710   3.220  14.946 -3.0594  2.2953 -0.1090
 5562TIP3    H238178   6.630   3.139  15.046  0.4762 -0.5594  0.6346
 5563TIP3   OH238179   0.693   5.894  14.129  0.1345 -0.2249  0.2730
 5563TIP3    H138180   0.785   5.868  14.137  0.1808 -1.1414 -2.2229
 5563TIP3    H238181   0.681   5.962  14.195  3.0263  1.0473 -0.3767
 5564TIP3   OH238182   5.472   0.273   1.916 -0.6907  0.9631  0.1876
 5564TIP3    H138183   5.491   0.222   1.837  1.5316  1.1371  0.5494
 5564TIP3    H238184   5.494   0.363   1.892  0.1182  0.9973  1.0298
 5565TIP3   OH238185   3.384   0.040   2.115  0.0037 -0.2360  0.3654
 5565TIP3    H138186   3.303  -0.002   2.086 -0.3263 -0.0340  0.9666
 5565TIP3    H238187   3.442   0.038   2.039 -0.1953 -1.3021  0.2261
 5566TIP3   OH238188   5.738   3.801   1.026 -0.0354 -0.1845 -0.6738
 5566TIP3    H138189   5.677   3.871   1.000 -1.3990  0.6080  3.8499
 5566TIP3    H238190   5.701   3.722   0.986 -1.8546  0.8299 -1.1268
 5567TIP3   OH238191   3.148   3.887  15.383 -0.5458  0.1691  0.0777
 5567TIP3    H138192   3.116   3.798  15.397  1.4728 -0.5181  0.7685
 5567TIP3    H238193   3.198   3.883  15.302  0.3990  0.3857  0.6248
 5568TIP3   OH238194   2.587   2.823  11.098 -0.1945 -0.4319 -0.7207
 5568TIP3    H138195   2.596   2.751  11.036 -1.4843 -0.4202 -0.9408
 5568TIP3    H238196   2.493   2.827  11.118  0.1904 -0.4989  1.3255
 5569TIP3   OH238197   2.134   5.469   0.341 -0.3299  0.2122  1.0996
 5569TIP3    H138198   2.207   5.509   0.389 -0.1669  0.1241  0.9286
 5569TIP3    H238199   2.071   5.539   0.330 -0.0419  0.4280  0.7917
 5570TIP3   OH238200   3.280   2.982   2.614  0.1976  0.7729  0.1625
 5570TIP3    H138201   3.326   2.912   2.569  1.4438  1.2032  0.7215
 5570TIP3    H238202   3.202   2.941   2.651  0.8723 -0.2994  0.4201
 5571TIP3   OH238203   6.822   0.181   1.980 -0.3182 -0.0386 -0.4140
 5571TIP3    H138204   6.759   0.145   1.918 -0.3624  0.3088 -0.5727
 5571TIP3    H238205   6.904   0.136   1.959 -0.1628  0.5969 -1.2026
 5572TIP3   OH238206   2.083   5.210  13.843 -0.2431  0.2946 -0.3107
 5572TIP3    H138207   2.084   5.289  13.897 -0.8018  0.7045 -0.8862
 5572TIP3    H238208   2.172   5.176  13.848 -0.3472  0.1999  1.0475
 5573TIP3   OH238209   3.606   0.221   1.973  0.3480 -0.7397  0.0944
 5573TIP3    H138210   3.570   0.153   1.916 -1.7397 -1.0675  1.6890
 5573TIP3    H238211   3.600   0.302   1.921  2.2388 -1.6049 -1.5733
 5574TIP3   OH238212   4.771   1.879   5.702 -0.3419 -0.9287  0.0459
 5574TIP3    H138213   4.757   1.927   5.784  0.2434 -0.3357 -0.1915
 5574TIP3    H238214   4.742   1.790   5.722  0.0802 -0.8728  1.0052
 5575TIP3   OH238215   2.650   6.113   4.161 -0.1967  0.6227  0.4912
 5575TIP3    H138216   2.712   6.072   4.100 -0.0548  0.5538  0.6837
 5575TIP3    H238217   2.565   6.076   4.137 -0.1469  0.6182  0.3145
 5576TIP3   OH238218   3.630   3.045   6.161 -0.1714 -0.4861 -0.1608
 5576TIP3    H138219   3.711   2.995   6.156  0.5666  0.8020 -1.8731
 5576TIP3    H238220   3.579   3.001   6.230  2.2277 -0.9132  1.4589
 5577TIP3   OH238221   6.678   1.943  13.790  0.0204  0.1262  0.1155
 5577TIP3    H138222   6.642   2.029  13.814  1.6359  1.0546 -0.6648
 5577TIP3    H238223   6.704   1.952  13.699  2.3591 -0.4006  0.6595
 5578TIP3   OH238224   6.618   1.946  16.357 -0.4168 -0.2901 -0.4838
 5578TIP3    H138225   6.590   2.028  16.396  1.9816  0.0892  0.6324
 5578TIP3    H238226   6.572   1.878  16.406  0.5164  0.2938  1.2693
 5579TIP3   OH238227   0.392   5.168  12.284  0.3065 -0.0995 -0.1158
 5579TIP3    H138228   0.427   5.191  12.199  1.2907  0.1615  0.3460
 5579TIP3    H238229   0.422   5.078  12.299 -1.9994 -1.1050 -1.1242
 5580TIP3   OH238230   0.115   3.230   3.383  0.2986  0.0273 -0.2077
 5580TIP3    H138231   0.181   3.257   3.319  0.8368 -0.5321  0.0955
 5580TIP3    H238232   0.077   3.151   3.346  0.1465  0.0733 -0.1481
 5581TIP3   OH238233   2.194   3.018   1.171 -0.1317 -0.5644 -0.4796
 5581TIP3    H138234   2.221   2.929   1.194  2.6037  0.7066  1.9765
 5581TIP3    H238235   2.153   3.051   1.251  1.0056  1.0461 -0.5095
 5582TIP3   OH238236   1.295   1.426   5.295  0.0190  0.4349 -0.8446
 5582TIP3    H138237   1.303   1.501   5.237  0.4637 -0.1866 -1.6005
 5582TIP3    H238238   1.378   1.422   5.343 -0.0758  0.5292 -0.6693
 5583TIP3   OH238239   6.386   4.088  12.038 -0.4150 -0.0875 -0.3592
 5583TIP3    H138240   6.399   4.000  12.003  0.4802 -1.1028  2.2678
 5583TIP3    H238241   6.318   4.127  11.982 -0.3321 -2.1682 -2.0140
 5584TIP3   OH238242   6.012   2.032   6.564 -0.0214 -0.4304 -0.6440
 5584TIP3    H138243   6.094   2.062   6.524  0.6512 -0.4065  0.6967
 5584TIP3    H238244   6.003   2.086   6.642  0.0614 -2.1948  0.6342
 5585TIP3   OH238245   2.940   5.893  15.986  0.4178  0.3362 -0.1701
 5585TIP3    H138246   2.951   5.988  15.978  1.4914  0.2190 -0.3426
 5585TIP3    H238247   3.011   5.866  16.045  0.0865 -0.3489 -0.0768
 5586TIP3   OH238248   0.382   6.457  13.181  0.0055 -0.2328  0.0182
 5586TIP3    H138249   0.377   6.544  13.142  1.1719 -1.0736 -2.1552
 5586TIP3    H238250   0.335   6.400  13.121 -2.5038 -0.9052  2.4064
 5587TIP3   OH238251   2.918   6.330  15.832  0.4787 -0.8292 -0.6684
 5587TIP3    H138252   2.828   6.359  15.820 -0.7692 -3.9229  0.1858
 5587TIP3    H238253   2.957   6.395  15.891 -0.2423  2.0500 -3.1387
 5588TIP3   OH238254   2.203   3.233   3.864  0.6235 -0.6944  0.3421
 5588TIP3    H138255   2.118   3.208   3.827  0.9107 -1.0669 -0.0629
 5588TIP3    H238256   2.180   3.278   3.946  0.0102 -0.2971 -0.0381
 5589TIP3   OH238257   3.632   1.718  15.695 -0.0462  0.4163  0.3986
 5589TIP3    H138258   3.628   1.624  15.675  0.1181  1.0555 -3.1828
 5589TIP3    H238259   3.666   1.721  15.785  1.9185 -2.9333 -0.0508
 5590TIP3   OH238260   5.451   1.816  13.638  0.1837  0.2653 -0.5036
 5590TIP3    H138261   5.403   1.884  13.686  1.2113  1.0566 -0.5363
 5590TIP3    H238262   5.385   1.768  13.590 -0.8177 -0.1061  1.1611
 5591TIP3   OH238263   5.056   1.495   1.368 -0.4894  0.3359  0.2089
 5591TIP3    H138264   4.977   1.491   1.313 -0.0466 -1.5263 -0.3831
 5591TIP3    H238265   5.028   1.542   1.446 -2.0106  0.3373 -0.2935
 5592TIP3   OH238266   5.932   5.063  17.175  0.1050  0.6456  0.5718
 5592TIP3    H138267   5.895   5.030  17.257  0.3004 -1.3142 -0.0891
 5592TIP3    H238268   5.912   4.996  17.111  2.5480  0.7276 -0.3749
 5593TIP3   OH238269   3.294   4.257   3.922 -0.0310  0.9828 -0.0783
 5593TIP3    H138270   3.250   4.209   3.992 -0.0401  3.5976  1.8329
 5593TIP3    H238271   3.226   4.311   3.883  0.2644  0.5223 -1.2995
 5594TIP3   OH238272   0.695   1.177  13.240  0.0915 -0.7828  0.1343
 5594TIP3    H138273   0.700   1.086  13.269  2.2657 -0.8649 -0.3509
 5594TIP3    H238274   0.720   1.174  13.148  1.0339  0.4031  0.3309
 5595TIP3   OH238275   3.121   2.439  12.186  0.0486  0.7678  0.5831
 5595TIP3    H138276   3.074   2.522  12.198  0.2038  0.9414  0.0461
 5595TIP3    H238277   3.208   2.466  12.156 -0.2152  0.3870 -0.5640
 5596TIP3   OH238278   2.752   3.166  12.843  0.0869 -0.6060 -0.2061
 5596TIP3    H138279   2.805   3.086  12.831 -0.9739 -1.2371 -0.9018
 5596TIP3    H238280   2.738   3.172  12.937  0.1060 -1.3089 -0.1515
 5597TIP3   OH238281   1.614   2.353   5.492  0.1209 -0.4567 -0.1953
 5597TIP3    H138282   1.583   2.395   5.412  0.0878 -0.1263 -0.0083
 5597TIP3    H238283   1.569   2.268   5.493 -1.8509  0.5363  0.7437
 5598TIP3   OH238284   5.512   0.783  15.135 -0.2938  0.3611  0.4644
 5598TIP3    H138285   5.458   0.704  15.136  1.3522 -1.0123 -2.8166
 5598TIP3    H238286   5.572   0.771  15.209 -1.0954 -0.6318  0.9960
 5599TIP3   OH238287   3.813   4.268  11.596 -0.3822  0.0022 -0.0794
 5599TIP3    H138288   3.904   4.271  11.566 -1.1848  0.0023 -2.6985
 5599TIP3    H238289   3.790   4.175  11.594 -0.4747  0.0016  0.5936
 5600TIP3   OH238290   3.065   6.229  12.486 -0.3403 -0.0143  0.6563
 5600TIP3    H138291   2.989   6.242  12.544 -0.1123  1.7962  0.6126
 5600TIP3    H238292   3.057   6.299  12.421  1.7982  0.7544  1.1446
 5601TIP3   OH238293   2.391   6.564   5.157 -0.2408 -0.2449 -0.0725
 5601TIP3    H138294   2.411   6.561   5.064  0.3768  2.7709 -0.1453
 5601TIP3    H238295   2.331   6.638   5.166 -0.4379 -0.5791  1.9097
 5602TIP3   OH238296   5.529   0.604  15.604  0.3700 -0.2004 -0.4519
 5602TIP3    H138297   5.540   0.625  15.511 -0.7134 -1.0923 -0.8055
 5602TIP3    H238298   5.441   0.637  15.625 -0.4034 -2.1540 -0.4035
 5603TIP3   OH238299   4.360   4.259   1.928 -0.0845  0.2453  0.1498
 5603TIP3    H138300   4.381   4.320   1.999 -1.5925 -0.1970  1.0422
 5603TIP3    H238301   4.401   4.296   1.850 -1.0711  2.4885  0.6292
 5604TIP3   OH238302   5.897   4.542  14.068 -0.5789  0.0260  0.2103
 5604TIP3    H138303   5.887   4.471  14.004  1.6182 -0.2573  0.1162
 5604TIP3    H238304   5.864   4.619  14.022 -0.3879 -0.4311 -0.7326
 5605TIP3   OH238305   2.193   2.673   5.198 -0.5925  0.1562  0.0183
 5605TIP3    H138306   2.180   2.763   5.168  0.8563  0.0702 -0.9476
 5605TIP3    H238307   2.287   2.658   5.189 -0.7040 -1.2165  0.8761
 5606TIP3   OH238308   0.169   6.739  15.755  0.0481 -0.0215 -0.1591
 5606TIP3    H138309   0.132   6.690  15.682 -0.7614 -0.7810  0.7353
 5606TIP3    H238310   0.232   6.679  15.795  0.1722  0.2374  0.0396
 5607TIP3   OH238311   4.783   5.022   0.606 -0.2122 -0.0654 -0.7007
 5607TIP3    H138312   4.800   4.930   0.589  1.1660 -0.0669  0.5420
 5607TIP3    H238313   4.707   5.022   0.664 -0.4067 -0.3929 -0.9532
 5608TIP3   OH238314   5.590   6.050   1.473 -0.3352 -0.2929  0.2273
 5608TIP3    H138315   5.572   6.123   1.532 -0.3033  0.0612 -0.1918
 5608TIP3    H238316   5.671   6.076   1.427 -0.1298 -0.7482  0.3228
 5609TIP3   OH238317   2.437   6.644  12.905  0.0362 -0.0395  0.2674
 5609TIP3    H138318   2.521   6.601  12.922 -0.3562 -1.3728 -1.0403
 5609TIP3    H238319   2.386   6.630  12.985  0.9084  0.4940  0.9421
 5610TIP3   OH238320   1.324   2.862  15.406  0.5730 -0.3008 -0.5204
 5610TIP3    H138321   1.401   2.806  15.420  0.5079  0.1580  2.1761
 5610TIP3    H238322   1.338   2.901  15.320  2.5786 -1.4062 -0.7553
 5611TIP3   OH238323   5.503   3.260  10.231 -0.3062 -0.0977  0.0335
 5611TIP3    H138324   5.596   3.278  10.219  0.1118 -2.1869 -0.2232
 5611TIP3    H238325   5.460   3.345  10.215  1.5572  1.0441  0.7588
 5612TIP3   OH238326   3.698   4.934   4.952 -0.0635 -0.0980 -0.1737
 5612TIP3    H138327   3.621   4.893   4.913 -0.7582  0.0622  0.9869
 5612TIP3    H238328   3.664   5.011   4.998  0.7678 -0.0769  0.4314
 5613TIP3   OH238329   5.147   1.449   3.011 -0.2280  0.1093  0.6106
 5613TIP3    H138330   5.106   1.524   3.053 -0.5347 -0.2164  0.9018
 5613TIP3    H238331   5.133   1.462   2.918 -0.3686  0.3610  0.6661
 5614TIP3   OH238332   0.912   3.892  12.961 -0.0946 -0.5304  0.3226
 5614TIP3    H138333   0.950   3.823  13.016 -0.9350 -0.9713  0.3774
 5614TIP3    H238334   0.919   3.972  13.014 -1.1879 -1.0081  1.2499
 5615TIP3   OH238335   1.154   2.551   3.742 -0.0718 -0.4099  0.6408
 5615TIP3    H138336   1.201   2.585   3.666  0.1412 -0.6156  0.6777
 5615TIP3    H238337   1.121   2.628   3.787 -0.4368 -0.2973  0.1899
 5616TIP3   OH238338   1.387   5.844  17.159 -0.2116  0.1224 -0.0725
 5616TIP3    H138339   1.306   5.838  17.210 -0.8630 -0.9755 -1.1994
 5616TIP3    H238340   1.424   5.929  17.184 -1.0358  0.0891  1.4244
 5617TIP3   OH238341   0.416   0.515  13.043 -0.0534 -0.8825  0.6966
 5617TIP3    H138342   0.451   0.441  13.091  0.3920  0.2870  2.2490
 5617TIP3    H238343   0.325   0.521  13.070 -0.5468 -1.7917 -0.6540
 5618TIP3   OH238344   0.354   4.999  10.516  0.2491  0.1308  0.4509
 5618TIP3    H138345   0.315   4.939  10.580 -0.5504  0.9401  0.7427
 5618TIP3    H238346   0.370   4.945  10.439 -2.6167  0.0045 -0.1498
 5619TIP3   OH238347   1.917   6.619  16.029 -0.4155 -0.3392 -0.1145
 5619TIP3    H138348   1.905   6.524  16.037  0.4550 -0.9991 -4.1527
 5619TIP3    H238349   2.010   6.632  16.044 -0.7093  0.1059  1.4803
 5620TIP3   OH238350   3.040   3.855   2.720  0.3980  0.2163  0.0131
 5620TIP3    H138351   3.121   3.853   2.772  0.4681  0.2017 -0.0968
 5620TIP3    H238352   3.035   3.944   2.686  0.7712  0.0095 -0.6124
 5621TIP3   OH238353   3.751   4.188   2.628  0.2134  0.4694 -0.0131
 5621TIP3    H138354   3.662   4.163   2.651  0.0270  1.6568  0.5980
 5621TIP3    H238355   3.768   4.268   2.678  1.3847  0.6318 -0.6280
 5622TIP3   OH238356   1.614   5.470  13.881 -0.1288  0.3679 -0.0742
 5622TIP3    H138357   1.691   5.470  13.824  0.0824 -3.2050 -0.0088
 5622TIP3    H238358   1.545   5.431  13.828 -0.5428 -0.8908  1.3132
 5623TIP3   OH238359   4.953   2.080  10.996 -0.4966 -0.0096 -0.3546
 5623TIP3    H138360   4.877   2.070  10.938 -0.1194  3.3942 -1.6328
 5623TIP3    H238361   5.024   2.109  10.939  2.0658 -3.3911  0.7355
 5624TIP3   OH238362   5.251   0.385   5.092  0.0189 -0.2148  0.5134
 5624TIP3    H138363   5.192   0.356   5.023  0.5981 -1.2540  0.4388
 5624TIP3    H238364   5.320   0.433   5.047 -1.3906  2.1414  0.7132
 5625TIP3   OH238365   4.406   4.104   5.594 -0.5145  0.2766  0.5002
 5625TIP3    H138366   4.487   4.068   5.558 -1.8898 -0.9929 -1.5546
 5625TIP3    H238367   4.432   4.143   5.677  2.0284 -0.8495  0.3322
 5626TIP3   OH238368   3.820   5.338  12.266  0.0493  0.0085  0.0400
 5626TIP3    H138369   3.729   5.364  12.252  0.5479  2.0740  0.2346
 5626TIP3    H238370   3.820   5.243  12.256 -1.9164  0.0679 -1.0530
 5627TIP3   OH238371   4.227   5.345  13.744  0.0727 -0.6016 -0.4390
 5627TIP3    H138372   4.153   5.289  13.767  0.0673 -0.5995 -0.4521
 5627TIP3    H238373   4.303   5.287  13.749  0.2273 -0.3145  0.7836
 5628TIP3   OH238374   4.075   3.070   0.329  0.1854 -0.6490 -0.1942
 5628TIP3    H138375   4.065   3.048   0.237 -0.3998  1.5844 -0.7242
 5628TIP3    H238376   4.166   3.098   0.337  0.0740 -0.2841 -0.2173
 5629TIP3   OH238377   1.413   4.529   5.275 -0.2457  0.3337  0.6457
 5629TIP3    H138378   1.375   4.616   5.275  0.2536  0.5665 -0.6722
 5629TIP3    H238379   1.354   4.477   5.221  0.4911  0.3378 -0.1797
 5630TIP3   OH238380   5.245   5.454   2.648  0.6230 -0.3677  0.2776
 5630TIP3    H138381   5.302   5.466   2.571  0.3354 -0.9785 -0.0395
 5630TIP3    H238382   5.158   5.476   2.617  0.8230  1.7796  1.0911
 5631TIP3   OH238383   5.687   5.101   5.417 -0.2090  0.6680  0.1529
 5631TIP3    H138384   5.627   5.130   5.348 -0.7979 -1.5348 -0.3175
 5631TIP3    H238385   5.633   5.095   5.495 -0.4070 -0.4150 -0.0585
 5632TIP3   OH238386   3.054   2.092   0.123 -0.0877  0.2929 -0.4911
 5632TIP3    H138387   3.105   2.046   0.190 -0.0787  0.0981 -0.6290
 5632TIP3    H238388   3.119   2.129   0.064 -0.0534  1.5901  0.3286
 5633TIP3   OH238389   1.509   5.533   1.902 -0.1910 -0.4269  0.0709
 5633TIP3    H138390   1.446   5.534   1.830 -0.6097 -0.8363  0.4238
 5633TIP3    H238391   1.465   5.580   1.973  0.1803 -0.1083  0.0907
 5634TIP3   OH238392   2.049   5.265  16.939 -0.3414  0.3364  0.1732
 5634TIP3    H138393   2.144   5.275  16.941 -0.3452  0.8499  3.0264
 5634TIP3    H238394   2.033   5.186  16.990 -1.3899 -1.5220 -2.8171
 5635TIP3   OH238395   0.516   0.969  16.701  0.1205  0.2949  0.2520
 5635TIP3    H138396   0.572   1.045  16.716  0.1017  0.7769 -1.7883
 5635TIP3    H238397   0.452   0.971  16.773  0.1905  2.1505  0.3048
 5636TIP3   OH238398   3.857   4.563  13.358  0.5509 -0.2535 -0.0786
 5636TIP3    H138399   3.916   4.613  13.301 -0.7010 -0.4967 -1.6414
 5636TIP3    H238400   3.819   4.629  13.416  0.4036  0.3294 -0.8162
 5637TIP3   OH238401   6.084   5.095  16.793 -0.1660  0.2948 -0.4163
 5637TIP3    H138402   6.144   5.143  16.735  1.3887  0.4161  1.2163
 5637TIP3    H238403   6.084   5.146  16.874 -0.4319 -1.1226  0.5087
 5638TIP3   OH238404   3.242   6.289  12.681  0.0376  0.5821  0.6890
 5638TIP3    H138405   3.184   6.265  12.609  2.0576  0.6633 -1.0853
 5638TIP3    H238406   3.227   6.222  12.748 -1.8791  0.4831  0.1971
 5639TIP3   OH238407   3.920   6.333   5.962 -0.1526  0.6870 -0.1865
 5639TIP3    H138408   3.954   6.344   6.051 -1.4145  3.2622  0.0556
 5639TIP3    H238409   3.998   6.338   5.906  0.5889 -0.4413  0.6939
 5640TIP3   OH238410   2.359   5.564   4.125  0.1094  0.7475 -0.0256
 5640TIP3    H138411   2.427   5.567   4.057  1.3526 -0.8780  1.0914
 5640TIP3    H238412   2.404   5.587   4.206 -1.1232  1.5451  0.4727
 5641TIP3   OH238413   6.047   3.797   4.461  0.2560 -0.9507  0.2020
 5641TIP3    H138414   6.117   3.779   4.398  2.5959 -0.1697  2.3844
 5641TIP3    H238415   6.042   3.717   4.514  0.1883 -0.6599  0.6418
 5642TIP3   OH238416   0.691   3.645  16.255  0.2981 -0.4107  0.3019
 5642TIP3    H138417   0.661   3.734  16.235 -1.1626 -1.1796 -1.1704
 5642TIP3    H238418   0.615   3.602  16.293  0.2442 -1.6810 -1.1601
 5643TIP3   OH238419   6.118   2.215   6.015 -0.7841 -1.0348  0.1261
 5643TIP3    H138420   6.149   2.157   5.946 -0.1363  0.4859 -0.9219
 5643TIP3    H238421   6.166   2.189   6.093  0.1948 -1.2738 -0.5466
 5644TIP3   OH238422   5.797   5.805  16.767 -0.0023  0.4212  0.0185
 5644TIP3    H138423   5.734   5.752  16.719  0.5922  0.4941 -0.8502
 5644TIP3    H238424   5.876   5.751  16.772 -0.4692 -0.1552  2.1272
 5645TIP3   OH238425   2.235   4.408  14.290  0.3420  0.6328  0.6620
 5645TIP3    H138426   2.254   4.491  14.334  1.0487  0.9505 -0.2046
 5645TIP3    H238427   2.317   4.385  14.247 -0.6119  0.9243 -1.4329
 5646TIP3   OH238428   6.223   1.604   2.259  0.5643 -0.2734  0.1003
 5646TIP3    H138429   6.236   1.594   2.353  1.8906  1.1357  0.1063
 5646TIP3    H238430   6.311   1.607   2.222  0.0878  0.0317 -1.0821
 5647TIP3   OH238431   0.251   4.483  14.425 -0.1100 -0.4491  0.0006
 5647TIP3    H138432   0.308   4.458  14.352  1.2027  0.5849  0.6370
 5647TIP3    H238433   0.211   4.400  14.453 -0.0553 -0.9751 -1.3912
 5648TIP3   OH238434   2.738   4.744  13.679  0.2263  0.4323  0.5360
 5648TIP3    H138435   2.713   4.757  13.588 -0.0382  0.1625  0.5695
 5648TIP3    H238436   2.717   4.828  13.721  0.2440  0.5194  0.3745
 5649TIP3   OH238437   0.122   6.669  14.079  0.1824  0.3276 -0.5110
 5649TIP3    H138438   0.140   6.731  14.009 -0.0787  1.0210  0.0253
 5649TIP3    H238439   0.179   6.595  14.061 -0.0131  0.4188 -1.5558
 5650TIP3   OH238440   5.156   6.539   3.218 -0.2455 -0.1980  0.4424
 5650TIP3    H138441   5.082   6.499   3.265  0.3383 -0.1060  1.4601
 5650TIP3    H238442   5.142   6.513   3.127 -0.0213 -2.5980  1.0068
 5651TIP3   OH238443   2.746   1.982  16.634  0.2972 -0.0164  0.4951
 5651TIP3    H138444   2.817   1.918  16.633  1.9172  1.6974  0.2566
 5651TIP3    H238445   2.788   2.065  16.611 -1.8596  1.0138 -0.0009
 5652TIP3   OH238446   6.133   5.788  12.048 -0.0987 -0.3921  0.5262
 5652TIP3    H138447   6.060   5.753  11.998 -0.2567  1.5362 -0.6960
 5652TIP3    H238448   6.208   5.780  11.989  0.0061  0.5674  0.5167
 5653TIP3   OH238449   6.473   2.586   4.588  0.6389  0.0181 -0.0283
 5653TIP3    H138450   6.562   2.590   4.554  1.9208  0.4109  3.0295
 5653TIP3    H238451   6.467   2.501   4.632  0.2804  0.8014  1.5297
 5654TIP3   OH238452   0.876   0.010  14.315 -0.0752  0.0451 -0.1914
 5654TIP3    H138453   0.948   0.033  14.374  0.7221 -1.0110 -0.7115
 5654TIP3    H238454   0.823  -0.052  14.366 -0.1417  0.1795 -0.0987
 5655TIP3   OH238455   5.323   3.117  16.440  0.1873  0.3906  0.3802
 5655TIP3    H138456   5.375   3.183  16.485 -0.2071  0.9066  0.0955
 5655TIP3    H238457   5.265   3.168  16.382  0.2700 -0.2346 -0.2551
 5656TIP3   OH238458   2.800   4.606   0.877 -0.7513  0.2549  0.0164
 5656TIP3    H138459   2.729   4.543   0.871 -0.6950  0.1221  0.6588
 5656TIP3    H238460   2.863   4.578   0.810 -1.0578  0.0616 -0.1926
 5657TIP3   OH238461   2.336   3.890   4.476 -0.0441  0.5087 -0.3200
 5657TIP3    H138462   2.341   3.797   4.451 -1.4688  0.1403  0.6535
 5657TIP3    H238463   2.283   3.891   4.556  0.4417  2.1134  0.0199
 5658TIP3   OH238464   0.449   2.966   4.990 -0.3729  0.1037  0.2571
 5658TIP3    H138465   0.392   2.889   4.989 -1.0261  0.5655  0.5836
 5658TIP3    H238466   0.407   3.028   4.930  0.8393 -0.2549 -0.9962
 5659TIP3   OH238467   1.343   0.177  11.397 -0.6303 -0.8578 -0.5213
 5659TIP3    H138468   1.295   0.184  11.314 -1.7817  0.3497  0.2217
 5659TIP3    H238469   1.342   0.265  11.433  2.1996 -0.7342 -0.4500
 5660TIP3   OH238470   2.947   5.137   4.876 -0.8070  0.9443 -0.1803
 5660TIP3    H138471   2.890   5.189   4.933 -1.8829  0.3949 -0.7151
 5660TIP3    H238472   2.990   5.202   4.820 -0.8148  1.3790  0.3059
 5661TIP3   OH238473   3.752   2.069  12.830  0.6732  0.0079 -0.8096
 5661TIP3    H138474   3.760   2.048  12.923 -2.3797  0.6231 -0.3066
 5661TIP3    H238475   3.777   2.162  12.824  0.5595  0.0538 -0.5590
 5662TIP3   OH238476   2.087   3.975   0.224 -0.1041 -0.4860  0.1128
 5662TIP3    H138477   2.033   4.043   0.263 -1.0042 -1.2718  0.2804
 5662TIP3    H238478   2.053   3.893   0.261  0.2425 -1.1083 -0.9068
 5663TIP3   OH238479   3.489   4.381   3.288 -0.1813  0.1702  0.3690
 5663TIP3    H138480   3.456   4.411   3.203 -0.3936  1.3378  0.8408
 5663TIP3    H238481   3.538   4.456   3.322  0.0808 -0.3641  1.1838
 5664TIP3   OH238482   5.505   5.418  13.277  0.4434 -0.0989  0.0870
 5664TIP3    H138483   5.592   5.457  13.275  0.7092 -0.6709  0.3137
 5664TIP3    H238484   5.447   5.490  13.302  1.2210 -0.3929  3.0973
 5665TIP3   OH238485   6.209   3.308  16.355  0.0851  0.3253 -0.5258
 5665TIP3    H138486   6.131   3.329  16.303 -0.0087  0.6204 -0.2706
 5665TIP3    H238487   6.175   3.293  16.443  0.1293 -1.0708 -0.7273
 5666TIP3   OH238488   0.352   2.367   4.182  0.1681 -0.0094  0.2309
 5666TIP3    H138489   0.401   2.448   4.169 -0.4725  0.0986 -1.9190
 5666TIP3    H238490   0.275   2.376   4.125 -0.4268 -1.7186  0.7007
 5667TIP3   OH238491   2.627   2.050   1.169  0.5923 -0.4632  0.3270
 5667TIP3    H138492   2.557   2.040   1.104  1.7308 -1.0745 -0.8654
 5667TIP3    H238493   2.703   2.077   1.117  1.5145 -0.8935  1.4238
 5668TIP3   OH238494   2.806   2.878  11.281 -0.2502  0.1699 -0.3497
 5668TIP3    H138495   2.756   2.797  11.287  1.6165 -1.0337 -0.0347
 5668TIP3    H238496   2.784   2.914  11.195 -2.6125  0.4242  0.3061
 5669TIP3   OH238497   1.939   4.301   5.299 -0.4674  0.2864  0.4104
 5669TIP3    H138498   1.996   4.344   5.234 -0.9357 -2.5032 -2.0397
 5669TIP3    H238499   1.852   4.334   5.280 -0.5019  0.0132  0.0878
 5670TIP3   OH238500   3.028   4.005  12.928 -0.1149 -0.3258 -0.5292
 5670TIP3    H138501   3.013   3.935  12.865  2.0047  0.9015 -2.5668
 5670TIP3    H238502   2.957   4.067  12.912 -1.3936 -1.4384  0.5603
 5671TIP3   OH238503   3.900   4.727  11.649 -0.0381  0.3141 -0.4351
 5671TIP3    H138504   3.893   4.796  11.583  2.8479  1.6638  0.5124
 5671TIP3    H238505   3.957   4.661  11.609 -1.0894 -0.5640 -0.5383
 5672TIP3   OH238506   4.459   5.488   0.178 -0.0547  0.2752  0.4805
 5672TIP3    H138507   4.391   5.489   0.110  1.6318  1.9054 -1.3364
 5672TIP3    H238508   4.411   5.474   0.260 -2.6926  2.0483 -0.6099
 5673TIP3   OH238509   3.886   3.275  15.081  0.0067  0.0466  0.1671
 5673TIP3    H138510   3.969   3.243  15.047  0.4622  1.1622  0.1815
 5673TIP3    H238511   3.905   3.364  15.110 -1.0045  0.0349  0.9143
 5674TIP3   OH238512   0.091   5.977  10.881 -0.3374 -0.1145  0.1125
 5674TIP3    H138513   0.177   5.986  10.839  0.0207 -1.0931  0.6027
 5674TIP3    H238514   0.038   5.931  10.816 -0.0818 -0.7237  0.3286
 5675TIP3   OH238515   3.062   4.799   3.801 -0.5076  0.1758 -0.6154
 5675TIP3    H138516   2.990   4.852   3.834  0.0246 -1.2549  3.3612
 5675TIP3    H238517   3.122   4.862   3.761 -0.7802  2.3984  2.2169
 5676TIP3   OH238518   1.610   0.970   4.485 -0.6476  0.0533 -0.1658
 5676TIP3    H138519   1.604   0.989   4.392 -2.9509  0.1200 -0.0643
 5676TIP3    H238520   1.664   1.041   4.521  1.6452 -0.8539 -1.6151
 5677TIP3   OH238521   1.790   1.539  11.477 -0.1030  0.2653 -0.4401
 5677TIP3    H138522   1.775   1.466  11.417  0.6227 -0.0178 -0.2805
 5677TIP3    H238523   1.871   1.579  11.447 -0.9960  1.6462 -1.1464
 5678TIP3   OH238524   5.582   1.161  11.715  0.4468 -0.1689  0.3352
 5678TIP3    H138525   5.575   1.241  11.768 -0.3426 -0.1775  0.2556
 5678TIP3    H238526   5.495   1.152  11.675  0.7554 -0.6744 -0.2227
 5679TIP3   OH238527   3.723   0.300   0.934 -0.4534  0.2845  0.2435
 5679TIP3    H138528   3.681   0.351   0.865 -0.3482  1.8778  1.2987
 5679TIP3    H238529   3.814   0.328   0.932 -0.5571  0.7631  1.3433
 5680TIP3   OH238530   2.947   6.726   6.814 -0.0075 -0.3955  0.2987
 5680TIP3    H138531   2.914   6.663   6.750 -1.8828  1.9294 -1.2026
 5680TIP3    H238532   3.039   6.739   6.789 -0.8347  0.9556 -2.5774
 5681TIP3   OH238533   5.325   1.464  13.009 -0.2857 -0.2095  0.4028
 5681TIP3    H138534   5.317   1.508  12.924 -0.5223  1.5888  1.3046
 5681TIP3    H238535   5.238   1.429  13.026  0.4622 -3.2750 -1.4082
 5682TIP3   OH238536   1.118   4.436   6.848 -0.6250  0.0179  0.1624
 5682TIP3    H138537   1.172   4.469   6.920 -0.3924 -0.6997  0.3169
 5682TIP3    H238538   1.073   4.514   6.815  1.7287  0.9729 -1.0431
 5683TIP3   OH238539   5.110   4.498  11.256 -0.6115  0.3286  0.3934
 5683TIP3    H138540   5.121   4.527  11.166  1.6648 -0.2872  0.4228
 5683TIP3    H238541   5.110   4.579  11.307  2.2313  0.5473  0.1629
 5684TIP3   OH238542   0.679   3.165  11.829  0.2914  0.0968  0.1070
 5684TIP3    H138543   0.747   3.215  11.874  1.0175 -0.3288 -0.4819
 5684TIP3    H238544   0.602   3.171  11.886  0.9079  0.3437  0.9308
 5685TIP3   OH238545   3.620   6.277  11.497  0.1126 -0.3321  0.2201
 5685TIP3    H138546   3.604   6.183  11.489 -0.6662 -0.3892  2.0840
 5685TIP3    H238547   3.650   6.289  11.587  0.2202  1.2096  0.0086
 5686TIP3   OH238548   4.402   0.482   1.148 -0.2708 -0.5085 -0.0787
 5686TIP3    H138549   4.396   0.408   1.208  1.0675  0.5690  1.4532
 5686TIP3    H238550   4.364   0.555   1.196  0.4166  0.2726 -0.6957
 5687TIP3   OH238551   1.488   6.116  17.056  0.1028  0.0828 -0.0776
 5687TIP3    H138552   1.567   6.083  17.100  0.6882  0.9441 -0.4818
 5687TIP3    H238553   1.480   6.206  17.086 -2.8145 -0.9298  2.9063
 5688TIP3   OH238554   5.174   4.689   2.617 -0.3290  0.4126  0.4731
 5688TIP3    H138555   5.177   4.633   2.694  0.9714 -1.1354 -0.6208
 5688TIP3    H238556   5.082   4.687   2.589  0.1012 -4.1894 -1.4860
 5689TIP3   OH238557   0.651   5.719   1.144  0.5877 -0.0493  0.0706
 5689TIP3    H138558   0.577   5.658   1.152  0.8835 -0.8703 -2.5487
 5689TIP3    H238559   0.689   5.721   1.232 -1.6580 -0.7173  1.1463
 5690TIP3   OH238560   1.260   0.369   1.535 -0.0280 -0.1717  0.3319
 5690TIP3    H138561   1.245   0.307   1.605 -0.8095  1.6551  1.8746
 5690TIP3    H238562   1.183   0.361   1.479 -0.7918  0.3232  1.2780
 5691TIP3   OH238563   6.027   4.836  13.588  0.1293 -0.6766  0.2202
 5691TIP3    H138564   6.066   4.827  13.501  1.4732 -1.4059  0.8725
 5691TIP3    H238565   5.995   4.926  13.590 -0.1956 -0.7469 -1.1378
 5692TIP3   OH238566   3.826   0.124  10.844  0.0052  0.1883  0.0556
 5692TIP3    H138567   3.880   0.075  10.906 -0.7609 -0.3700  0.2912
 5692TIP3    H238568   3.737   0.094  10.861 -0.4910  1.7212  0.2433
 5693TIP3   OH238569   2.015   2.389   0.792 -0.5089  0.3551 -0.5482
 5693TIP3    H138570   1.999   2.325   0.862  1.2780  0.6214  0.1497
 5693TIP3    H238571   1.977   2.348   0.714  0.0982 -1.3256 -0.0082
 5694TIP3   OH238572   6.198   6.609   0.074  0.4758  0.4095  0.1953
 5694TIP3    H138573   6.192   6.681   0.137  2.9630  0.7912  0.1213
 5694TIP3    H238574   6.291   6.586   0.074  0.1987 -0.9367 -1.8671
 5695TIP3   OH238575   3.247   2.079   3.629 -0.2860 -0.2157 -0.1191
 5695TIP3    H138576   3.266   2.173   3.624 -0.6253 -0.1549 -0.2966
 5695TIP3    H238577   3.322   2.042   3.676 -0.6820  0.3140  0.9763
 5696TIP3   OH238578   1.711   6.378   0.083 -0.1511  0.4326  0.2437
 5696TIP3    H138579   1.721   6.315   0.012 -0.3919 -0.8598  1.3254
 5696TIP3    H238580   1.754   6.338   0.158 -0.2978  1.5641  0.9623
 5697TIP3   OH238581   4.176   6.692  11.053  0.0736  0.3842 -0.3124
 5697TIP3    H138582   4.238   6.680  10.981 -3.4618  1.2029 -3.8415
 5697TIP3    H238583   4.109   6.626  11.038  0.4018 -1.2970  4.0562
 5698TIP3   OH238584   4.024   0.062  17.198 -0.2960 -0.0952 -0.0361
 5698TIP3    H138585   3.970   0.022  17.267  0.8907 -0.6467  0.5986
 5698TIP3    H238586   4.051  -0.011  17.143  1.0838 -0.0558  0.5605
 5699TIP3   OH238587   2.659   6.320   4.477  0.3667  0.1246  0.3765
 5699TIP3    H138588   2.632   6.407   4.449  1.9071  0.6436  0.4093
 5699TIP3    H238589   2.620   6.260   4.413 -0.7248  0.8134  0.3693
 5700TIP3   OH238590   0.732   1.323  15.709  0.1979  0.4882 -0.6084
 5700TIP3    H138591   0.739   1.384  15.635 -0.6171  2.1926  0.6451
 5700TIP3    H238592   0.746   1.377  15.787  2.2770 -1.4656  0.5081
 5701TIP3   OH238593   2.423   6.217  15.520  0.0408  0.5054 -0.2281
 5701TIP3    H138594   2.405   6.190  15.610  0.3501  1.9218  0.2834
 5701TIP3    H238595   2.351   6.180  15.469 -1.3867  1.5268  0.9485
 5702TIP3   OH238596   5.785   2.614  16.775 -0.1413 -0.2352 -0.5532
 5702TIP3    H138597   5.764   2.523  16.796  2.4290 -0.7047  0.3477
 5702TIP3    H238598   5.784   2.658  16.860  1.9444 -0.2341 -0.4785
 5703TIP3   OH238599   4.326   5.793  11.763 -0.4206 -0.0582  0.1512
 5703TIP3    H138600   4.255   5.790  11.699 -0.5624  1.8396  0.1642
 5703TIP3    H238601   4.356   5.702  11.770 -1.2661 -0.5170 -1.6302
 5704TIP3   OH238602   0.466   4.148   1.094  0.0483  0.1854 -0.2107
 5704TIP3    H138603   0.541   4.096   1.122  0.1066  0.0226 -0.6627
 5704TIP3    H238604   0.440   4.110   1.011 -0.7897 -0.0145  0.1314
 5705TIP3   OH238605   0.331   1.041   5.912  0.0898 -0.3053 -0.0039
 5705TIP3    H138606   0.277   0.980   5.963 -0.3996  0.6076  0.6013
 5705TIP3    H238607   0.401   1.067   5.972  0.0702  0.0210 -0.1190
 5706TIP3   OH238608   4.745   3.772  12.057  0.0368  0.1631  0.0731
 5706TIP3    H138609   4.793   3.851  12.083 -0.2489  0.5285 -0.4756
 5706TIP3    H238610   4.796   3.737  11.983 -0.4804  0.5015 -0.4521
 5707TIP3   OH238611   3.473   4.522  12.475  0.7415 -0.5644 -0.3231
 5707TIP3    H138612   3.481   4.606  12.428 -1.4027 -0.6093 -0.8466
 5707TIP3    H238613   3.525   4.461  12.422  0.1002 -0.1478 -1.4856
 5708TIP3   OH238614   4.306   4.394   4.312  0.2848  0.1017  0.7198
 5708TIP3    H138615   4.307   4.462   4.380 -0.0543  1.2353 -0.3573
 5708TIP3    H238616   4.296   4.443   4.230 -3.5380 -1.4179  0.0989
 5709TIP3   OH238617   2.191   4.771  11.058  0.0050  0.0101  0.6104
 5709TIP3    H138618   2.194   4.736  10.969 -1.2971  0.6818  0.2850
 5709TIP3    H238619   2.173   4.695  11.113 -0.3291 -0.2337  0.1743
 5710TIP3   OH238620   3.835   6.464   0.711 -0.4510  0.1676 -0.1575
 5710TIP3    H138621   3.814   6.522   0.639 -1.3280  0.3969  0.2750
 5710TIP3    H238622   3.786   6.498   0.786  1.1967  0.5222  0.8230
 5711TIP3   OH238623   3.011   1.834   4.947 -0.3403 -0.2535 -0.5221
 5711TIP3    H138624   3.057   1.881   4.878 -0.7018  2.4100  0.9039
 5711TIP3    H238625   2.920   1.861   4.939 -0.6746 -1.1474  0.0471
 5712TIP3   OH238626   1.127   3.536  16.915  0.4891 -0.2972 -0.3498
 5712TIP3    H138627   1.140   3.624  16.878  0.1892 -0.6560 -1.3447
 5712TIP3    H238628   1.105   3.552  17.007  0.0755  0.6959 -0.6036
 5713TIP3   OH238629   4.930   4.262   4.800 -0.0025  0.0114  0.2130
 5713TIP3    H138630   4.915   4.180   4.847 -2.5835  0.0139 -0.4612
 5713TIP3    H238631   4.867   4.323   4.836  1.5031  1.5953  0.3170
 5714TIP3   OH238632   4.453   4.864   4.068 -0.2103  0.1946 -0.0294
 5714TIP3    H138633   4.495   4.808   4.002  0.1851 -0.3590  0.6779
 5714TIP3    H238634   4.526   4.902   4.116 -0.5050  0.3562  0.2869
 5715TIP3   OH238635   1.498   2.191   2.818 -0.0979  0.3506  0.1168
 5715TIP3    H138636   1.523   2.100   2.804  0.1120 -0.2391  3.4416
 5715TIP3    H238637   1.575   2.231   2.859 -0.9485  1.3977  0.7537
 5716TIP3   OH238638   4.150   0.959   1.676  0.7146  0.3485 -0.1454
 5716TIP3    H138639   4.146   1.000   1.589 -1.1466  0.8760  0.1458
 5716TIP3    H238640   4.080   1.001   1.725 -1.3324 -3.1167  0.2155
 5717TIP3   OH238641   1.760   1.715   2.884  0.2587  0.0203 -0.0955
 5717TIP3    H138642   1.756   1.805   2.914  2.2484  0.0386  0.2998
 5717TIP3    H238643   1.674   1.678   2.902 -0.6866  1.9165 -0.5766
 5718TIP3   OH238644   2.716   6.572   5.158 -0.6419  0.0332 -0.5445
 5718TIP3    H138645   2.727   6.645   5.096  2.0536  0.1628 -0.0428
 5718TIP3    H238646   2.690   6.615   5.240  0.3983  0.3997 -0.3934
 5719TIP3   OH238647   4.924   3.241   3.070 -0.1092  0.3173 -0.0743
 5719TIP3    H138648   4.958   3.217   2.984  0.5893  1.2828 -0.0840
 5719TIP3    H238649   4.899   3.158   3.110 -0.6143 -0.1304 -1.2655
 5720TIP3   OH238650   4.104   1.586  10.819  0.0957  0.8166  0.2370
 5720TIP3    H138651   4.140   1.500  10.838  1.2295  1.1934 -0.1027
 5720TIP3    H238652   4.118   1.637  10.899 -0.3793  0.7516  0.3642
 5721TIP3   OH238653   4.795   4.887  14.326  0.0455 -0.5001 -0.1987
 5721TIP3    H138654   4.845   4.951  14.377 -0.6256 -0.5967  0.6106
 5721TIP3    H238655   4.837   4.886  14.241  1.0774 -0.1846  0.2941
 5722TIP3   OH238656   3.454   5.379   1.830  0.1090  0.1094  0.1742
 5722TIP3    H138657   3.464   5.417   1.917  0.6882 -1.8837  1.0375
 5722TIP3    H238658   3.378   5.321   1.837  0.4904 -0.4924 -0.4696
 5723TIP3   OH238659   3.154   5.206   3.250  0.0435 -0.0454 -0.0828
 5723TIP3    H138660   3.213   5.262   3.302 -0.1587  1.2320 -1.1760
 5723TIP3    H238661   3.121   5.264   3.181 -1.5472 -1.0707 -0.2247
 5724TIP3   OH238662   3.144   1.311   5.074  0.0725 -0.2332 -0.1821
 5724TIP3    H138663   3.238   1.306   5.062  0.0352 -0.4268 -0.3930
 5724TIP3    H238664   3.127   1.403   5.095  0.3024 -0.1912 -0.1871
 5725TIP3   OH238665   2.688   5.367  12.667 -0.0376  0.0242 -0.2926
 5725TIP3    H138666   2.723   5.343  12.581  1.1827 -2.1776  0.7202
 5725TIP3    H238667   2.633   5.293  12.691 -0.9150  0.9311  0.5430
 5726TIP3   OH238668   4.538   0.949   0.138 -0.5588 -0.2923  0.1282
 5726TIP3    H138669   4.502   0.951   0.226  1.1830 -0.5482  0.8815
 5726TIP3    H238670   4.610   1.012   0.140 -0.2471 -0.5843 -0.9960
 5727TIP3   OH238671   2.880   1.678  13.157  0.0114 -0.2357 -0.2342
 5727TIP3    H138672   2.849   1.764  13.130  1.6295  0.6480  0.5445
 5727TIP3    H238673   2.973   1.679  13.135  0.8375 -0.4797  2.7191
 5728TIP3   OH238674   6.482   1.528  17.200  0.6565  0.6340  0.1029
 5728TIP3    H138675   6.393   1.563  17.209 -0.2509 -0.6671 -2.5871
 5728TIP3    H238676   6.472   1.434  17.214  1.5536  0.4283 -0.5709
 5729TIP3   OH238677   2.743   5.115   4.089 -1.1582 -0.3530 -0.0360
 5729TIP3    H138678   2.827   5.161   4.092 -1.1931 -0.2306 -0.6568
 5729TIP3    H238679   2.739   5.066   4.171  0.8454 -2.7106 -1.2250
 5730TIP3   OH238680   2.925   3.281   2.594 -0.3836  0.0140 -0.1517
 5730TIP3    H138681   2.966   3.351   2.644  0.0718 -0.1458 -0.2966
 5730TIP3    H238682   2.998   3.235   2.552 -0.6084 -1.0373  0.5636
 5731TIP3   OH238683   1.804   2.234   0.670 -0.7927 -1.2594  0.0723
 5731TIP3    H138684   1.741   2.204   0.736  0.2362 -0.0867  1.6607
 5731TIP3    H238685   1.752   2.286   0.608 -1.5837 -1.3213  0.6741
 5732TIP3   OH238686   2.069   2.520   1.455  0.0294 -0.4706 -0.1755
 5732TIP3    H138687   1.984   2.496   1.493  0.1098 -1.9192 -0.8176
 5732TIP3    H238688   2.047   2.578   1.382 -0.3841 -0.5219 -0.0959
 5733TIP3   OH238689   6.313   2.467  12.233  0.1331  0.0928  0.1613
 5733TIP3    H138690   6.233   2.457  12.181 -0.1035  0.5941  0.4162
 5733TIP3    H238691   6.307   2.557  12.266  0.5497 -0.0479  0.6066
 5734TIP3   OH238692   0.596   1.969   4.860 -0.1359  0.6005  0.0637
 5734TIP3    H138693   0.690   1.951   4.865 -0.4466 -1.8956 -1.5933
 5734TIP3    H238694   0.590   2.052   4.814  1.2772 -0.5616 -2.4253
 5735TIP3   OH238695   5.986   6.141   3.170 -0.4520  0.4829 -0.1752
 5735TIP3    H138696   5.928   6.212   3.142 -1.1180 -0.5737 -1.6233
 5735TIP3    H238697   5.931   6.087   3.228 -0.4997  0.2147 -0.4668
 5736TIP3   OH238698   6.205   4.753  16.295  0.5306  0.0795 -0.5396
 5736TIP3    H138699   6.198   4.747  16.390  0.4508  0.7312 -0.5016
 5736TIP3    H238700   6.200   4.662  16.265 -1.6369 -0.0102 -0.0589
 5737TIP3   OH238701   3.006   0.350   1.947 -0.2597 -0.2452  0.0298
 5737TIP3    H138702   2.969   0.269   1.982  0.6245 -0.0659  1.4762
 5737TIP3    H238703   3.100   0.343   1.963 -0.0392  0.6338 -0.7568
 5738TIP3   OH238704   3.456   6.207  12.899  0.5943 -0.0238 -0.3701
 5738TIP3    H138705   3.478   6.192  12.807 -1.3968 -0.6514 -0.7888
 5738TIP3    H238706   3.376   6.157  12.913 -0.3583  1.7933  1.1060
 5739TIP3   OH238707   3.401   0.632   1.696 -0.8317 -0.2962 -0.4066
 5739TIP3    H138708   3.404   0.722   1.729  0.6518 -0.4492 -0.0713
 5739TIP3    H238709   3.379   0.641   1.604 -0.4365  0.4266 -0.4372
 5740TIP3   OH238710   6.591   2.242  15.576  0.1322  0.6436  0.0701
 5740TIP3    H138711   6.659   2.182  15.546  0.5054  1.8216 -1.6446
 5740TIP3    H238712   6.639   2.313  15.619 -0.1128  0.7513  0.1691
 5741TIP3   OH238713   6.329   2.399  15.181 -0.5817 -0.9572 -0.2453
 5741TIP3    H138714   6.389   2.354  15.240  1.0837  0.0915 -1.0889
 5741TIP3    H238715   6.283   2.329  15.135  0.2324 -1.7774  0.1735
 5742TIP3   OH238716   5.688   2.875   4.544  0.1133 -0.0117 -0.5402
 5742TIP3    H138717   5.684   2.938   4.472  1.1517  0.2868 -0.3550
 5742TIP3    H238718   5.721   2.926   4.618 -2.6464  0.1446  0.6965
 5743TIP3   OH238719   2.126   2.171   6.362 -0.2053 -0.0580 -0.0098
 5743TIP3    H138720   2.056   2.153   6.424  0.2313 -0.7956  0.2965
 5743TIP3    H238721   2.123   2.097   6.300 -0.4825  0.5447 -0.7307
 5744TIP3   OH238722   0.038   0.925   0.393  0.0864 -0.0311  0.0770
 5744TIP3    H138723  -0.058   0.923   0.397  0.0855 -1.0960 -0.3464
 5744TIP3    H238724   0.065   0.914   0.484 -0.1897 -0.8786  0.0650
 5745TIP3   OH238725   6.036   2.241  13.142  0.2480 -0.0490  0.6593
 5745TIP3    H138726   6.112   2.192  13.111  0.3933  0.9067 -0.6047
 5745TIP3    H238727   6.060   2.333  13.129 -1.1864  0.2678  0.0259
 5746TIP3   OH238728   5.850   6.550   5.359 -0.5849 -0.2380  0.0996
 5746TIP3    H138729   5.918   6.534   5.424  0.8686  4.5484  0.0721
 5746TIP3    H238730   5.893   6.532   5.275 -0.0882  0.5989  0.1735
 5747TIP3   OH238731   3.247   0.604  13.325  0.0566  0.2474 -0.6384
 5747TIP3    H138732   3.270   0.550  13.249  0.0909 -0.7414  0.0468
 5747TIP3    H238733   3.175   0.556  13.367  0.2520  0.6161  0.1317
 5748TIP3   OH238734   0.171   2.112  14.849 -0.3230 -0.0785  0.0647
 5748TIP3    H138735   0.227   2.184  14.819 -0.1588 -0.5361 -0.7470
 5748TIP3    H238736   0.160   2.128  14.942  1.0337  0.1079  0.2107
 5749TIP3   OH238737   1.431   5.436  13.654 -0.0485 -0.1985  0.4220
 5749TIP3    H138738   1.350   5.414  13.608  0.3735 -1.1384  0.0988
 5749TIP3    H238739   1.453   5.524  13.624 -1.1169  0.1959  0.7594
 5750TIP3   OH238740   2.919   5.899  15.517 -0.6386 -0.1141  0.1806
 5750TIP3    H138741   3.001   5.878  15.561 -0.5430 -0.7013 -0.2555
 5750TIP3    H238742   2.874   5.815  15.509 -0.2000 -0.2129 -1.7242
 5751TIP3   OH238743   3.959   3.891   1.068 -0.0001  0.4281  0.2169
 5751TIP3    H138744   4.033   3.903   1.127  0.2987  1.4706 -0.3301
 5751TIP3    H238745   3.906   3.970   1.080 -1.0531 -0.3099  0.6119
 5752TIP3   OH238746   1.496   2.267  16.740 -0.3143  0.3822  0.0664
 5752TIP3    H138747   1.440   2.309  16.805 -2.1124  0.2736 -1.3012
 5752TIP3    H238748   1.459   2.294  16.656 -0.1586 -2.0814 -0.9011
 5753TIP3   OH238749   2.331   2.000   5.603 -0.1986  0.5905  0.1139
 5753TIP3    H138750   2.323   1.914   5.644  1.7102  0.0211 -0.5786
 5753TIP3    H238751   2.367   2.056   5.671 -0.5792  0.6152  0.2967
 5754TIP3   OH238752   6.090   0.842  12.650 -0.1998  0.1032 -0.4822
 5754TIP3    H138753   6.149   0.913  12.674  2.0890 -1.3792 -1.4089
 5754TIP3    H238754   6.081   0.850  12.555 -0.9453 -0.1018 -0.4313
 5755TIP3   OH238755   5.706   1.041  12.461 -0.2948  0.5243 -0.1988
 5755TIP3    H138756   5.792   1.030  12.502 -0.1804  2.3976  0.1497
 5755TIP3    H238757   5.652   1.080  12.530 -0.9584  0.8709 -0.9063
 5756TIP3   OH238758   6.817   5.822  13.199  0.1798  0.8177 -0.5075
 5756TIP3    H138759   6.773   5.742  13.169 -1.0955  0.6732  1.5820
 5756TIP3    H238760   6.793   5.888  13.134 -2.3847  0.4982 -0.0007
 5757TIP3   OH238761   4.192   3.864  16.618 -0.6932 -0.0312 -0.5779
 5757TIP3    H138762   4.222   3.946  16.656 -2.5437  0.1948  0.5268
 5757TIP3    H238763   4.269   3.828  16.574  0.1993  2.2341 -1.0226
 5758TIP3   OH238764   6.225   6.073   5.331  0.0890 -0.2820 -0.2988
 5758TIP3    H138765   6.301   6.052   5.277 -0.0291  1.7688 -1.3463
 5758TIP3    H238766   6.177   5.990   5.338  1.5718 -1.2320 -0.9516
 5759TIP3   OH238767   3.508   5.322   5.232 -0.0373  0.5612  0.3330
 5759TIP3    H138768   3.548   5.407   5.248  1.5677 -0.4262  2.0044
 5759TIP3    H238769   3.561   5.261   5.284  1.0447 -2.0032 -3.3997
 5760TIP3   OH238770   2.683   2.177   2.194 -0.2088 -0.6800  0.4800
 5760TIP3    H138771   2.690   2.094   2.240 -1.7844  0.4930  3.0222
 5760TIP3    H238772   2.597   2.174   2.152  0.2832 -0.8223 -0.5523
 5761TIP3   OH238773   2.317   3.478   0.860  0.3003 -0.6229  0.4787
 5761TIP3    H138774   2.244   3.491   0.921 -2.0426 -0.1632 -2.2352
 5761TIP3    H238775   2.325   3.382   0.852  0.2932 -0.6779  1.0659
 5762TIP3   OH238776   6.015   6.151   4.474 -0.3757 -0.0384 -0.3480
 5762TIP3    H138777   5.935   6.098   4.472  1.3403 -2.8816  0.0357
 5762TIP3    H238778   6.032   6.166   4.567 -1.2306  1.9682 -0.4622
 5763TIP3   OH238779   0.747   3.252   3.986  0.0848 -0.1034 -0.0180
 5763TIP3    H138780   0.700   3.177   4.023 -1.5018  0.7955 -0.1096
 5763TIP3    H238781   0.804   3.214   3.919  1.1297 -1.4650  1.5898
 5764TIP3   OH238782   4.469   5.824  16.767  0.0911 -0.4069  0.0074
 5764TIP3    H138783   4.393   5.880  16.748  0.7399  0.4504 -0.0922
 5764TIP3    H238784   4.545   5.880  16.751  0.9125 -2.2078 -3.2395
 5765TIP3   OH238785   0.443   5.645  14.871 -0.2265 -0.4256  0.1316
 5765TIP3    H138786   0.509   5.698  14.915  0.3533 -1.2970  0.3390
 5765TIP3    H238787   0.486   5.613  14.792 -0.1314 -1.6137  0.6435
 5766TIP3   OH238788   4.378   2.422   6.315 -0.4366  0.8846 -0.0164
 5766TIP3    H138789   4.379   2.517   6.304 -0.3965  0.7199 -1.6167
 5766TIP3    H238790   4.340   2.388   6.234  0.1027 -0.4965  0.2735
 5767TIP3   OH238791   3.361   0.313   0.536 -0.2582  0.0933  0.2292
 5767TIP3    H138792   3.295   0.342   0.473 -0.4517  1.5871  1.0675
 5767TIP3    H238793   3.310   0.279   0.610 -0.0641 -4.2494 -1.3996
 5768TIP3   OH238794   2.628   3.572  16.951 -0.3583  0.5018  0.4058
 5768TIP3    H138795   2.550   3.551  17.002 -0.6181  0.2536 -0.0929
 5768TIP3    H238796   2.601   3.562  16.860  0.7864 -1.5586  0.2363
 5769TIP3   OH238797   6.640   1.339   0.188  0.7062  0.4537 -0.4796
 5769TIP3    H138798   6.658   1.432   0.201  0.5868  0.3998  0.0731
 5769TIP3    H238799   6.662   1.324   0.096  4.5343  0.1605  0.3283
 5770TIP3   OH238800   2.491   1.386   0.512  0.7848 -0.3185 -0.3589
 5770TIP3    H138801   2.483   1.297   0.548 -0.0744 -0.9666 -2.0246
 5770TIP3    H238802   2.404   1.423   0.520  0.5280 -0.5325 -1.8009
 5771TIP3   OH238803   1.970   2.345  16.546 -0.5118 -0.1314  0.3194
 5771TIP3    H138804   1.899   2.337  16.609 -1.8496 -0.3917 -1.1708
 5771TIP3    H238805   1.940   2.412  16.484  0.7533  0.1118 -0.0621
 5772TIP3   OH238806   3.358   3.932   0.618 -0.0102  0.5816  0.5397
 5772TIP3    H138807   3.293   3.862   0.624  0.6756 -0.2611 -1.2950
 5772TIP3    H238808   3.314   4.008   0.657 -1.1688 -0.5715  1.5870
 5773TIP3   OH238809   3.687   1.578   0.326 -0.3495 -0.2367  0.3928
 5773TIP3    H138810   3.672   1.612   0.414 -0.9333  0.0566  0.1843
 5773TIP3    H238811   3.601   1.581   0.283 -0.3805 -1.7191  0.2705
 5774TIP3   OH238812   0.972   5.501   3.796  0.2408  0.2518 -0.2287
 5774TIP3    H138813   0.978   5.503   3.701  2.4231  2.1697 -0.1433
 5774TIP3    H238814   0.992   5.590   3.824 -1.3376 -0.0161  2.0175
 5775TIP3   OH238815   0.531   5.194   0.502  0.3127  0.1609  0.0551
 5775TIP3    H138816   0.609   5.212   0.554 -0.6852 -1.5189  2.3168
 5775TIP3    H238817   0.461   5.183   0.566 -0.8685 -2.8107 -1.5155
 5776TIP3   OH238818   6.537   2.492   4.276  0.2097 -0.2102 -0.0093
 5776TIP3    H138819   6.566   2.522   4.190 -0.0632  2.3533  0.7177
 5776TIP3    H238820   6.610   2.441   4.310  0.1674 -1.6159 -1.8742
 5777TIP3   OH238821   4.874   2.505  17.061  0.2123  0.7647 -0.1697
 5777TIP3    H138822   4.845   2.479  16.973 -1.1017 -0.6900  0.6309
 5777TIP3    H238823   4.793   2.509  17.112  0.9315  1.7807  0.9413
 5778TIP3   OH238824   3.291   0.770   4.561 -0.3433  0.4818  0.1994
 5778TIP3    H138825   3.372   0.799   4.602 -0.1732  0.0213  0.2000
 5778TIP3    H238826   3.222   0.819   4.606 -0.0406  1.2000 -0.0967
 5779TIP3   OH238827   3.119   3.789   1.559  0.5990 -0.0329 -0.7085
 5779TIP3    H138828   3.127   3.847   1.635  0.4068  1.8663 -2.0633
 5779TIP3    H238829   3.208   3.762   1.540  0.5724 -1.2056  0.6443
 5780TIP3   OH238830   5.785   3.672  15.259 -0.3434 -0.2595  0.6212
 5780TIP3    H138831   5.757   3.704  15.345 -0.2453  1.1526  0.1591
 5780TIP3    H238832   5.757   3.581  15.257 -1.5362  0.0586  1.6243
 5781TIP3   OH238833   5.561   0.548  11.242 -0.1080  0.1692 -0.2983
 5781TIP3    H138834   5.524   0.525  11.327  0.8412 -3.0129 -0.5917
 5781TIP3    H238835   5.651   0.574  11.262  0.0212 -0.2775 -0.2877
 5782TIP3   OH238836   4.746   2.154   4.153  0.2378 -0.2289  0.2389
 5782TIP3    H138837   4.719   2.238   4.116 -0.1253 -0.1995  0.5761
 5782TIP3    H238838   4.766   2.173   4.245  0.4417 -0.4541  0.2444
 5783TIP3   OH238839   4.979   6.359   1.057  0.2992  0.0649 -0.8635
 5783TIP3    H138840   4.898   6.351   1.108  2.6026  0.4773  3.3558
 5783TIP3    H238841   5.006   6.269   1.041 -0.1434 -0.0865 -0.7687
 5784TIP3   OH238842   3.321   1.245  14.635 -0.7010 -0.3689  0.0911
 5784TIP3    H138843   3.268   1.198  14.699 -0.1557 -2.3607 -0.8386
 5784TIP3    H238844   3.407   1.255  14.676 -0.7832 -0.2901  0.2431
 5785TIP3   OH238845   4.952   0.227  17.116 -0.1791 -0.1230 -0.7923
 5785TIP3    H138846   4.866   0.225  17.158 -0.1542  1.6348 -0.5813
 5785TIP3    H238847   4.947   0.160  17.048 -0.6738 -2.1505  1.1109
 5786TIP3   OH238848   3.472   2.128  10.479 -0.0124 -0.8316  0.1000
 5786TIP3    H138849   3.540   2.076  10.522 -1.4136 -0.7837  2.5472
 5786TIP3    H238850   3.504   2.218  10.484  0.6500 -1.0270 -0.5894
 5787TIP3   OH238851   4.987   0.192   4.415 -0.3015 -0.4109 -0.0225
 5787TIP3    H138852   4.989   0.278   4.456 -1.2875 -0.3541 -0.0670
 5787TIP3    H238853   5.000   0.130   4.487 -1.1772 -0.2784  0.2627
 5788TIP3   OH238854   6.816   1.963  15.101 -0.3362  0.2681  0.0786
 5788TIP3    H138855   6.859   1.883  15.131  1.9822  1.5189  0.2614
 5788TIP3    H238856   6.774   1.938  15.019  1.4082 -0.8255 -0.5260
 5789TIP3   OH238857   4.673   5.138  12.407 -0.6992 -0.0749 -0.1380
 5789TIP3    H138858   4.580   5.154  12.390 -0.6497 -1.1128 -1.5583
 5789TIP3    H238859   4.718   5.190  12.340 -0.3927 -1.7975 -1.3493
 5790TIP3   OH238860   1.502   0.393   3.941  0.4825 -0.1807 -0.2167
 5790TIP3    H138861   1.566   0.329   3.971  0.8960 -0.3757 -1.4587
 5790TIP3    H238862   1.530   0.475   3.982 -0.2129 -0.8006  1.6054
 5791TIP3   OH238863   5.249   3.423  12.172  0.3129  0.4215  0.1818
 5791TIP3    H138864   5.200   3.498  12.207  2.0608  0.7314  2.1952
 5791TIP3    H238865   5.298   3.459  12.098 -0.6423  0.6739 -0.3417
 5792TIP3   OH238866   1.414   3.250   2.888  0.9350 -0.1304  0.6236
 5792TIP3    H138867   1.346   3.186   2.870  1.1689 -1.2557  3.3182
 5792TIP3    H238868   1.367   3.331   2.906  0.3295 -0.7263  1.7811
 5793TIP3   OH238869   4.386   5.916   3.695  0.4087 -0.0294 -0.1652
 5793TIP3    H138870   4.293   5.899   3.712  0.1760  1.0408 -0.2986
 5793TIP3    H238871   4.388   5.943   3.603  0.8255  0.1759 -0.0949
 5794TIP3   OH238872   4.418   6.717  11.817 -0.3487  0.0737  0.8657
 5794TIP3    H138873   4.327   6.749  11.815 -1.3434 -2.3577  2.2783
 5794TIP3    H238874   4.431   6.677  11.731  0.0737  1.9595 -0.0056
 5795TIP3   OH238875   5.225   4.866  13.176  0.4855  0.2431 -0.2115
 5795TIP3    H138876   5.299   4.920  13.148 -0.7897  2.2995  0.1526
 5795TIP3    H238877   5.147   4.915  13.147 -0.7749 -0.6151  1.5206
 5796TIP3   OH238878   0.281   3.981   4.572 -0.1072 -0.6075  0.1099
 5796TIP3    H138879   0.335   3.934   4.508  2.1233 -0.7168  1.9650
 5796TIP3    H238880   0.246   3.913   4.628  0.5190 -0.3041  0.8809
 5797TIP3   OH238881   4.873   3.874   5.299  0.4331 -0.3659  0.1506
 5797TIP3    H138882   4.880   3.808   5.229 -0.0055 -0.2995  0.0407
 5797TIP3    H238883   4.934   3.844   5.366  0.3339 -0.8186  0.0453
 5798TIP3   OH238884   5.578   1.883  16.299 -0.1646 -0.3036 -0.0130
 5798TIP3    H138885   5.496   1.872  16.347 -0.5359  0.4469 -0.4464
 5798TIP3    H238886   5.552   1.925  16.217  0.5124 -1.1785 -0.6881
 5799TIP3   OH238887   1.562   0.443   3.170 -0.8086 -0.1298  0.1102
 5799TIP3    H138888   1.552   0.436   3.265 -0.3928 -0.4188  0.1378
 5799TIP3    H238889   1.634   0.384   3.150  1.0851  2.0635 -0.0093
 5800TIP3   OH238890   0.892   4.237   0.217 -0.1301 -0.1578  0.1834
 5800TIP3    H138891   0.922   4.232   0.308 -1.1329 -1.7773  0.4457
 5800TIP3    H238892   0.883   4.331   0.201  2.7122  0.3137  0.8412
 5801TIP3   OH238893   3.660   0.684   0.863 -0.1135 -0.1922 -0.1182
 5801TIP3    H138894   3.704   0.637   0.792 -2.0004 -1.3049 -0.6109
 5801TIP3    H238895   3.569   0.692   0.834 -0.1991  2.5653  0.5833
 5802TIP3   OH238896   4.120   4.916   2.475 -0.1786  0.2176 -0.5707
 5802TIP3    H138897   4.095   4.922   2.382 -0.4006  0.3423 -0.5032
 5802TIP3    H238898   4.164   4.832   2.483  1.0710  0.7926 -1.0932
 5803TIP3   OH238899   4.699   1.001  11.491  0.1922 -0.5590 -0.5243
 5803TIP3    H138900   4.788   1.007  11.525 -0.2210  1.3127  0.3710
 5803TIP3    H238901   4.692   1.073  11.429 -0.6963 -0.7081 -0.6083
 5804TIP3   OH238902   6.057   5.018   2.763 -0.0427 -0.0880 -0.1384
 5804TIP3    H138903   6.023   4.959   2.696 -1.6144  0.1771  0.3763
 5804TIP3    H238904   6.114   4.964   2.816 -0.3592 -0.8017 -0.5113
 5805TIP3   OH238905   0.196   6.237   3.658  0.0272  0.1858 -0.5609
 5805TIP3    H138906   0.266   6.277   3.708 -1.3753  1.1574  0.6850
 5805TIP3    H238907   0.162   6.167   3.714 -0.7492  0.4675 -0.6677
 5806TIP3   OH238908   2.145   0.331  11.523  0.3966 -0.0852 -0.3469
 5806TIP3    H138909   2.063   0.374  11.545  1.8471  2.4322  0.5750
 5806TIP3    H238910   2.119   0.244  11.492 -2.5046  0.2558  0.8031
 5807TIP3   OH238911   3.359   1.389   5.583 -0.3612 -0.1953  0.0172
 5807TIP3    H138912   3.309   1.409   5.662 -2.4804 -1.1804 -0.9943
 5807TIP3    H238913   3.366   1.473   5.537 -3.4656 -0.3818 -1.0474
 5808TIP3   OH238914   6.391   5.604   4.065 -0.3505  0.1951  0.9203
 5808TIP3    H138915   6.346   5.582   4.147 -0.1587 -0.3201  0.8922
 5808TIP3    H238916   6.390   5.522   4.015  1.3689 -0.0794  1.2731
 5809TIP3   OH238917   3.126   0.311  12.372 -0.1398 -0.2625  0.0844
 5809TIP3    H138918   3.070   0.302  12.294 -1.2468  1.6140  0.6067
 5809TIP3    H238919   3.160   0.222  12.387 -1.1211 -0.9805 -1.6208
 5810TIP3   OH238920   2.824   6.319   4.162 -0.1316  0.0982  0.6488
 5810TIP3    H138921   2.757   6.252   4.172  0.1801 -0.1515  1.0949
 5810TIP3    H238922   2.863   6.302   4.076 -0.3200 -0.0470  0.5929
 5811TIP3   OH238923   0.248   3.419   2.872 -0.3264 -0.1104  0.3952
 5811TIP3    H138924   0.301   3.409   2.793 -0.9430 -0.0631 -0.0264
 5811TIP3    H238925   0.171   3.364   2.857 -0.2251 -0.4778  1.1661
 5812TIP3   OH238926   3.869   2.665  11.403 -0.2444 -0.4837 -0.7518
 5812TIP3    H138927   3.848   2.735  11.341  0.6325  0.2975 -0.1972
 5812TIP3    H238928   3.956   2.635  11.376  0.1564 -0.1191  0.0922
 5813TIP3   OH238929   4.967   4.305   0.941 -0.2085 -0.5411 -0.6224
 5813TIP3    H138930   4.950   4.239   0.873 -3.0587  0.2231 -0.7579
 5813TIP3    H238931   4.934   4.266   1.022  1.0861 -0.5304 -0.0625
 5814TIP3   OH238932   2.879   2.585   5.801  0.4947  0.4199 -0.5942
 5814TIP3    H138933   2.902   2.615   5.712 -1.6838  0.8099 -1.0719
 5814TIP3    H238934   2.894   2.662   5.856 -0.6923  1.0159 -1.0765
 5815TIP3   OH238935   2.370   1.789   4.308 -0.5202  1.0853 -0.4294
 5815TIP3    H138936   2.332   1.717   4.357 -0.5905  2.4645  1.6532
 5815TIP3    H238937   2.458   1.758   4.284 -0.7569  0.1028 -0.0644
 5816TIP3   OH238938   2.509   0.171  13.842  0.3241  0.7621 -0.2239
 5816TIP3    H138939   2.426   0.192  13.884  0.5404 -1.6416  1.5431
 5816TIP3    H238940   2.492   0.092  13.791  1.5158  0.2117  0.1850
 5817TIP3   OH238941   1.509   5.762   0.714  0.1609 -0.0624 -0.0338
 5817TIP3    H138942   1.564   5.686   0.695  0.5968 -0.0631  1.1652
 5817TIP3    H238943   1.500   5.807   0.630 -0.4486 -1.6459 -0.8592
 5818TIP3   OH238944   4.271   2.722  13.984  0.2481  0.0565  0.0231
 5818TIP3    H138945   4.286   2.657  13.916  0.9649  0.7927 -0.5351
 5818TIP3    H238946   4.356   2.733  14.026 -0.2734 -0.6838  1.3300
 5819TIP3   OH238947   5.806   3.127  16.012 -0.0295 -0.3651 -0.3592
 5819TIP3    H138948   5.887   3.080  15.996 -0.6279 -1.3336 -0.6291
 5819TIP3    H238949   5.769   3.143  15.924  0.4817  1.2129 -0.3186
 5820TIP3   OH238950   3.443   1.372  15.657  0.4167 -0.8679 -0.3101
 5820TIP3    H138951   3.446   1.393  15.563  3.3264 -1.3963 -0.4179
 5820TIP3    H238952   3.534   1.354  15.681 -0.1916 -0.5093  2.7042
 5821TIP3   OH238953   2.785   1.107   2.461 -0.0173  0.5203  0.0712
 5821TIP3    H138954   2.742   1.138   2.381  1.4543  0.7907 -0.6549
 5821TIP3    H238955   2.842   1.036   2.432  0.5621  0.6443  0.8625
 5822TIP3   OH238956   3.258   0.763  11.479  0.2411  0.5079 -0.7099
 5822TIP3    H138957   3.206   0.691  11.515  2.3332  0.1541  1.9275
 5822TIP3    H238958   3.279   0.817  11.555 -0.9492  3.7853 -2.5595
 5823TIP3   OH238959   3.763   4.676   6.091 -0.6267 -0.0059 -0.2322
 5823TIP3    H138960   3.713   4.652   6.169  1.8273 -1.2448  1.0633
 5823TIP3    H238961   3.773   4.594   6.043 -0.2562  0.3245 -0.7217
 5824TIP3   OH238962   2.259   3.645   0.295 -0.1864  0.5677 -0.5655
 5824TIP3    H138963   2.305   3.713   0.345 -0.4806  0.2422  0.1656
 5824TIP3    H238964   2.168   3.654   0.322 -0.1218 -0.5912  0.0983
 5825TIP3   OH238965   4.415   3.260   4.018 -0.3784 -0.5147 -0.3990
 5825TIP3    H138966   4.432   3.215   4.101  2.3564  1.1960  0.0660
 5825TIP3    H238967   4.376   3.343   4.043 -0.1244 -0.2502 -0.8618
 5826TIP3   OH238968   6.224   5.414   5.821 -0.1001  0.1712  0.8194
 5826TIP3    H138969   6.234   5.401   5.915  1.4109  1.1454  0.8325
 5826TIP3    H238970   6.207   5.508   5.812  0.4358  0.2099  0.1001
 5827TIP3   OH238971   6.692   0.710   0.118 -0.0319 -0.1413 -0.0042
 5827TIP3    H138972   6.643   0.792   0.122  1.0907  0.5056  1.9390
 5827TIP3    H238973   6.628   0.643   0.142 -1.4044 -0.1760 -3.2309
 5828TIP3   OH238974   0.901   1.710   3.879 -0.2923 -0.2888  0.1929
 5828TIP3    H138975   0.896   1.721   3.784  0.2742  0.5555  0.2531
 5828TIP3    H238976   0.994   1.694   3.897 -0.7743 -3.6132  0.3139
 5829TIP3   OH238977   2.790   5.353   5.293  0.5081 -0.1896 -0.0772
 5829TIP3    H138978   2.787   5.306   5.376  0.3219  0.3385  0.2226
 5829TIP3    H238979   2.700   5.379   5.277  0.3935 -1.0847 -0.9154
 5830TIP3   OH238980   6.624   1.569  16.145  0.0486  0.0200 -0.1008
 5830TIP3    H138981   6.630   1.526  16.230  1.7605  1.9098  0.8191
 5830TIP3    H238982   6.534   1.552  16.116 -1.4440  1.2872  3.2347
 5831TIP3   OH238983   0.866   2.682  15.744 -0.5497 -0.1684 -0.1284
 5831TIP3    H138984   0.782   2.637  15.752  0.0529 -1.5313 -1.0955
 5831TIP3    H238985   0.930   2.620  15.780  0.2261  0.1534 -0.9151
 5832TIP3   OH238986   3.661   1.421   3.123  0.1916  0.4657  0.0051
 5832TIP3    H138987   3.687   1.442   3.213 -2.2254  1.9214  0.4583
 5832TIP3    H238988   3.656   1.505   3.079 -3.4143  0.4098 -0.0061
 5833TIP3   OH238989   5.067   2.604  16.730 -0.1748 -0.5189  0.2247
 5833TIP3    H138990   5.049   2.548  16.806 -0.0027  2.3331  2.5158
 5833TIP3    H238991   5.040   2.691  16.757  0.0030  0.6801 -3.0153
 5834TIP3   OH238992   1.764   4.386   3.013 -0.2565  0.0899  0.6826
 5834TIP3    H138993   1.850   4.413   3.044  0.6459 -0.4892 -1.1679
 5834TIP3    H238994   1.718   4.467   2.996 -0.0369  0.4067  1.5495
 5835TIP3   OH238995   2.767   3.900   3.868 -0.1008 -0.6597 -0.2909
 5835TIP3    H138996   2.835   3.854   3.818 -0.3184 -1.2595 -0.0399
 5835TIP3    H238997   2.765   3.988   3.830  0.5671 -0.7473 -0.5384
 5836TIP3   OH238998   4.298   0.211   3.372 -0.2179 -0.0115 -0.1098
 5836TIP3    H138999   4.232   0.142   3.364  0.3571 -0.7598  1.2743
 5836TIP3    H239000   4.363   0.176   3.432  0.1000  1.7313  0.6393
 5837TIP3   OH239001   0.635   1.299  14.805 -0.0675 -0.2248 -0.4089
 5837TIP3    H139002   0.611   1.212  14.838 -0.8481  0.3242  0.5099
 5837TIP3    H239003   0.731   1.300  14.810  0.0229 -1.4235 -1.4738
 5838TIP3   OH239004   0.813   1.317  11.353  0.2515  0.9180  0.0987
 5838TIP3    H139005   0.892   1.363  11.326  1.0701 -0.1952  0.5294
 5838TIP3    H239006   0.780   1.366  11.428  1.5357  0.3936  1.0343
 5839TIP3   OH239007   5.636   6.325  16.850  0.2227 -0.1076 -0.0419
 5839TIP3    H139008   5.577   6.249  16.853  0.0038  0.0806  0.9537
 5839TIP3    H239009   5.628   6.358  16.761 -1.3362  0.0261  0.1137
 5840TIP3   OH239010   0.765   6.305  11.262 -0.2980 -0.2529  0.1631
 5840TIP3    H139011   0.733   6.395  11.272 -2.5918 -1.1295  1.4419
 5840TIP3    H239012   0.826   6.310  11.188 -1.5917  2.0502 -0.8615
 5841TIP3   OH239013   3.193   5.851  14.554  0.0896  0.1426  0.1970
 5841TIP3    H139014   3.154   5.768  14.580  1.8917 -0.6723  0.4278
 5841TIP3    H239015   3.280   5.851  14.594  0.6173  1.5824 -0.8430
 5842TIP3   OH239016   0.688   2.233   5.131  0.1329  0.3474 -0.0784
 5842TIP3    H139017   0.784   2.231   5.138  0.2083 -2.7481 -0.6182
 5842TIP3    H239018   0.658   2.201   5.216 -0.2903 -1.2872 -0.8187
 5843TIP3   OH239019   1.081   6.802  12.146 -0.7221  0.6577  0.5244
 5843TIP3    H139020   1.135   6.801  12.225 -0.8165  2.3041  0.6359
 5843TIP3    H239021   0.998   6.762  12.173 -0.3410  0.1078  0.9216
 5844TIP3   OH239022   4.733   5.304   3.559 -0.1899  0.1677 -0.6437
 5844TIP3    H139023   4.778   5.227   3.593 -2.7463 -1.4884 -0.7216
 5844TIP3    H239024   4.781   5.378   3.597  0.4993 -1.4860  2.0308
 5845TIP3   OH239025   3.300   6.190   5.296  0.0806  0.0493 -0.2967
 5845TIP3    H139026   3.238   6.119   5.284 -0.9657  0.6483  1.1813
 5845TIP3    H239027   3.377   6.149   5.334 -0.6835 -0.2684  0.9685
 5846TIP3   OH239028   4.128   2.024   0.516 -0.3127 -0.0409  0.6953
 5846TIP3    H139029   4.176   2.013   0.597 -1.2496 -0.1600  1.2464
 5846TIP3    H239030   4.132   2.119   0.498 -0.4099  0.0340  1.0684
 5847TIP3   OH239031   1.622   1.702   3.397 -0.3682  0.3774  0.2908
 5847TIP3    H139032   1.585   1.639   3.335  1.6315  1.0182 -1.7073
 5847TIP3    H239033   1.698   1.657   3.435  0.8184  1.3415 -0.8297
 5848TIP3   OH239034   6.620   1.075  11.213  0.0434 -0.1032 -0.2165
 5848TIP3    H139035   6.554   1.065  11.145  0.5633 -2.8556 -0.4175
 5848TIP3    H239036   6.644   0.986  11.238  1.2586  0.7989  2.2529
 5849TIP3   OH239037   3.638   0.322  17.256 -0.2317 -0.4566 -0.8396
 5849TIP3    H139038   3.587   0.242  17.250 -0.7500 -0.0365 -2.8415
 5849TIP3    H239039   3.704   0.304  17.322 -1.6511 -1.7624  0.2916
 5850TIP3   OH239040   3.022   1.348   6.811 -0.5679 -0.1293 -0.0540
 5850TIP3    H139041   3.036   1.441   6.829  0.3747 -0.0098 -1.2505
 5850TIP3    H239042   2.927   1.339   6.805 -0.6974  0.6457  0.5980
 5851TIP3   OH239043   3.846   0.745  12.352 -0.1765 -0.1660  0.2738
 5851TIP3    H139044   3.876   0.728  12.263 -0.5632  2.7028 -0.5063
 5851TIP3    H239045   3.752   0.758  12.344 -0.1912  0.2714  1.0464
 5852TIP3   OH239046   5.451   4.890   5.118  0.5505 -0.1628  0.1893
 5852TIP3    H139047   5.362   4.894   5.153  0.6242 -0.1414  0.3753
 5852TIP3    H239048   5.455   4.806   5.072  0.7722 -0.6576  1.1004
 5853TIP3   OH239049   0.024   6.103  11.549  0.8896 -0.4106 -0.5533
 5853TIP3    H139050   0.085   6.041  11.509  0.5497 -1.6045  0.7376
 5853TIP3    H239051  -0.010   6.154  11.475  2.9297 -0.1456 -1.3799
 5854TIP3   OH239052   2.548   4.681  14.179 -0.1448 -0.4761 -0.2040
 5854TIP3    H139053   2.508   4.753  14.227 -0.7817 -1.3042  0.5424
 5854TIP3    H239054   2.629   4.662  14.228  0.1731 -0.0892 -0.5701
 5855TIP3   OH239055   3.673   3.464   0.909 -0.0611  0.5351  0.3428
 5855TIP3    H139056   3.765   3.438   0.900  0.3208  2.0721 -0.4750
 5855TIP3    H239057   3.675   3.560   0.912 -1.5718  0.5660  1.2300
 5856TIP3   OH239058   6.748   4.945   3.824 -0.4957  0.0176  0.2310
 5856TIP3    H139059   6.703   4.997   3.891 -1.3630 -1.1225  0.5701
 5856TIP3    H239060   6.833   4.924   3.862 -0.7228 -0.0461  0.7088
 5857TIP3   OH239061   1.182   2.911   4.182  0.4955  0.7450  0.0050
 5857TIP3    H139062   1.245   2.960   4.235 -0.6546  1.5193  0.6733
 5857TIP3    H239063   1.109   2.970   4.170  0.1676  0.1035 -1.3613
 5858TIP3   OH239064   1.539   5.293   4.803 -0.3076 -0.6227  0.3385
 5858TIP3    H139065   1.591   5.331   4.874 -0.4889 -0.4145  0.3593
 5858TIP3    H239066   1.547   5.198   4.817  1.2551 -0.6568 -0.5071
 5859TIP3   OH239067   3.156   1.632   1.134 -0.1062 -0.0528 -0.6602
 5859TIP3    H139068   3.190   1.695   1.197  0.5049  1.1861 -2.1743
 5859TIP3    H239069   3.211   1.554   1.145 -1.5681 -0.8476  2.0088
 5860TIP3   OH239070   3.634   2.502   0.857  0.1641 -0.0528  0.2845
 5860TIP3    H139071   3.696   2.438   0.893  0.4454  0.0794  0.0410
 5860TIP3    H239072   3.662   2.585   0.894 -0.3871 -0.1057  0.8417
 5861TIP3   OH239073   5.319   3.454   2.634  0.0169 -0.2597 -0.0956
 5861TIP3    H139074   5.353   3.500   2.711 -1.7028 -0.4161  0.8065
 5861TIP3    H239075   5.304   3.365   2.664 -0.4848 -0.3738 -0.6640
 5862TIP3   OH239076   3.290   4.919   3.639  0.2714  0.7116  0.2417
 5862TIP3    H139077   3.339   4.989   3.596  1.5837 -0.3430 -0.0435
 5862TIP3    H239078   3.256   4.865   3.567 -0.1655  0.6710  0.4722
 5863TIP3   OH239079   1.588   3.111   4.584  1.0366 -0.0265  0.0076
 5863TIP3    H139080   1.672   3.142   4.618  0.0140  2.2625  0.6272
 5863TIP3    H239081   1.586   3.141   4.493  1.1419 -0.6519 -0.2074
 5864TIP3   OH239082   4.395   0.988   1.764 -0.0586 -0.0399 -0.1462
 5864TIP3    H139083   4.431   0.903   1.789 -1.9210 -1.2822 -1.5017
 5864TIP3    H239084   4.303   0.972   1.747  0.0648  1.6390 -3.1348
 5865TIP3   OH239085   0.673   3.874   0.242  0.0768 -0.0380  0.0566
 5865TIP3    H139086   0.643   3.800   0.189  0.1754  0.3099 -0.4879
 5865TIP3    H239087   0.668   3.949   0.184 -0.0495  0.3929  0.6171
 5866TIP3   OH239088   4.548   3.883  14.919 -0.3985 -0.1012 -0.3394
 5866TIP3    H139089   4.564   3.965  14.871  0.4731 -0.8114 -1.2930
 5866TIP3    H239090   4.632   3.837  14.917 -0.2626 -0.1123  2.0379
 5867TIP3   OH239091   5.447   3.119  13.606  0.0311 -0.1750 -0.1818
 5867TIP3    H139092   5.522   3.060  13.608  0.9900  0.9540 -1.1645
 5867TIP3    H239093   5.443   3.157  13.693  0.2965 -0.5958  0.0156
 5868TIP3   OH239094   1.728   5.773   3.219  0.0564 -0.1560  0.2233
 5868TIP3    H139095   1.639   5.747   3.243 -0.1104  0.3084  0.1078
 5868TIP3    H239096   1.717   5.825   3.139  0.4093  0.0950  0.3370
 5869TIP3   OH239097   1.754   4.833  13.850  0.1597  0.0048  0.5436
 5869TIP3    H139098   1.787   4.888  13.780  0.8634  1.4252  1.9323
 5869TIP3    H239099   1.823   4.768  13.865 -0.4257 -0.9347 -0.7162
 5870TIP3   OH239100   0.096   6.219   0.394 -0.3031 -0.2970 -0.0476
 5870TIP3    H139101   0.115   6.165   0.470 -0.0209  1.3320  1.0817
 5870TIP3    H239102   0.116   6.308   0.422 -1.7362  0.5337 -1.5103
 5871TIP3   OH239103   3.690   5.581   0.285 -0.2787  0.1310 -0.7930
 5871TIP3    H139104   3.780   5.612   0.297 -0.5151  0.9790 -1.1830
 5871TIP3    H239105   3.670   5.533   0.366 -0.3752  2.1708  0.4435
 5872TIP3   OH239106   6.106   3.601  11.563  0.0411 -0.3167 -0.2500
 5872TIP3    H139107   6.151   3.571  11.642 -0.4933  2.9440  1.4871
 5872TIP3    H239108   6.016   3.573  11.574  0.2678 -1.1325 -0.4396
 5873TIP3   OH239109   0.908   1.887  17.124  0.3214  0.0231 -0.5829
 5873TIP3    H139110   0.835   1.839  17.084 -0.8143 -0.0804  1.5057
 5873TIP3    H239111   0.866   1.955  17.176  1.7983  0.9703 -0.5641
 5874TIP3   OH239112   1.696   2.138   4.701  0.2965  0.3186 -0.1436
 5874TIP3    H139113   1.655   2.218   4.670  1.0871 -0.2391 -2.9952
 5874TIP3    H239114   1.774   2.167   4.748  0.9479  1.2636 -1.7236
 5875TIP3   OH239115   1.097   3.260   6.541  0.2487  0.1134 -0.2554
 5875TIP3    H139116   1.032   3.328   6.523  1.0139  1.1731  0.8290
 5875TIP3    H239117   1.179   3.296   6.509  1.1097  0.7973  2.4377
 5876TIP3   OH239118   3.432   2.414  16.424  0.7941 -0.0243 -0.0737
 5876TIP3    H139119   3.439   2.509  16.418  0.4267  0.0547  0.6714
 5876TIP3    H239120   3.341   2.398  16.449  0.3212 -0.6690 -2.0302
 5877TIP3   OH239121   1.305   3.333  16.443  0.2823 -0.0405 -0.0321
 5877TIP3    H139122   1.269   3.392  16.509  0.6039  1.4461 -1.1334
 5877TIP3    H239123   1.360   3.389  16.387 -1.4045 -0.8261 -2.6774
 5878TIP3   OH239124   5.929   4.831  13.111 -0.2402 -0.0879 -0.0056
 5878TIP3    H139125   5.999   4.823  13.175 -1.2356 -1.3166  0.9986
 5878TIP3    H239126   5.880   4.909  13.138  0.9166  1.0038 -0.9438
 5879TIP3   OH239127   2.688   6.547   4.061  0.1041  0.4656  0.0266
 5879TIP3    H139128   2.754   6.605   4.099 -0.2448 -0.0842  1.5558
 5879TIP3    H239129   2.726   6.459   4.070  0.5573  0.3881 -2.1030
 5880TIP3   OH239130   6.291   1.354  15.123  0.4269  0.1213  0.0159
 5880TIP3    H139131   6.363   1.416  15.132 -0.8576  1.7641 -0.6765
 5880TIP3    H239132   6.321   1.293  15.056  0.7727  1.4239 -1.0598
 5881TIP3   OH239133   2.621   0.769  16.847  0.5695 -0.1897 -0.6009
 5881TIP3    H139134   2.600   0.825  16.772  1.6205  0.1813 -0.6398
 5881TIP3    H239135   2.590   0.682  16.821  2.3208 -0.4070 -2.1646
 5882TIP3   OH239136   0.875   2.303   0.956  0.4071 -0.5320  0.1267
 5882TIP3    H139137   0.853   2.216   0.990  0.0936  0.2383  2.0220
 5882TIP3    H239138   0.816   2.363   1.002  1.1423  0.7698 -0.5533
 5883TIP3   OH239139   5.058   1.319  16.296 -0.0573  0.3117 -0.2106
 5883TIP3    H139140   4.993   1.269  16.344 -1.5029  1.5171 -0.8175
 5883TIP3    H239141   5.039   1.302  16.203 -0.0974  1.3497 -0.4100
 5884TIP3   OH239142   0.551   2.586   4.452  0.3256  0.3519  0.3464
 5884TIP3    H139143   0.591   2.638   4.382  0.7736 -0.7373 -0.2365
 5884TIP3    H239144   0.465   2.562   4.417  1.4859 -2.2779 -0.9538
 5885TIP3   OH239145   4.846   3.681   4.119  0.0728  0.0732 -0.5053
 5885TIP3    H139146   4.851   3.626   4.197 -1.1864 -0.1606 -0.5676
 5885TIP3    H239147   4.795   3.629   4.056  1.7421 -0.0917 -1.8017
 5886TIP3   OH239148   5.543   2.451   4.266  0.0584 -0.3905 -0.3060
 5886TIP3    H139149   5.457   2.443   4.307 -0.0467  1.0326 -0.1997
 5886TIP3    H239150   5.591   2.513   4.322  1.4122 -1.6880  0.0327
 5887TIP3   OH239151   3.632   1.606  15.206 -0.2932  0.4580 -0.4138
 5887TIP3    H139152   3.687   1.587  15.130 -1.4661 -0.5717 -1.0416
 5887TIP3    H239153   3.691   1.596  15.281  0.1962 -1.5597 -0.9887
 5888TIP3   OH239154   5.879   3.798   2.941  0.0944  0.1910  0.4473
 5888TIP3    H139155   5.935   3.737   2.893 -0.5150  0.7731 -1.0838
 5888TIP3    H239156   5.930   3.878   2.946  0.1428  0.1413  0.7474
 5889TIP3   OH239157   1.963   2.376  15.175  0.2647 -0.4224  0.1850
 5889TIP3    H139158   1.913   2.320  15.115 -0.2766  0.4860 -0.2391
 5889TIP3    H239159   2.054   2.358  15.154  0.1052  0.6234 -1.7098
 5890TIP3   OH239160   2.340   0.604  13.540  0.0785 -0.1007  0.1608
 5890TIP3    H139161   2.358   0.593  13.447 -0.2049 -2.9440  0.3307
 5890TIP3    H239162   2.267   0.666  13.544 -0.2218 -0.3005 -1.5459
 5891TIP3   OH239163   6.342   6.633   1.196  0.0052 -0.6862  0.5611
 5891TIP3    H139164   6.379   6.550   1.167 -0.9231 -0.3778 -1.6210
 5891TIP3    H239165   6.250   6.614   1.214 -0.2182 -0.1401  0.0245
 5892TIP3   OH239166   4.660   4.554  12.573  0.1045 -0.1484 -0.4309
 5892TIP3    H139167   4.598   4.524  12.507 -1.7531  0.0149  1.1495
 5892TIP3    H239168   4.745   4.553  12.529 -0.8444 -1.4505 -2.3435
 5893TIP3   OH239169   3.760   4.605   2.992 -0.4219 -0.2209  0.3086
 5893TIP3    H139170   3.669   4.625   3.016 -0.4820 -0.5390  0.3493
 5893TIP3    H239171   3.788   4.541   3.058 -0.0961  0.0454  0.4288
 5894TIP3   OH239172   3.381   2.137  17.272  0.2714  0.6014 -0.5669
 5894TIP3    H139173   3.338   2.222  17.287 -1.1738 -0.3980  1.5060
 5894TIP3    H239174   3.405   2.107  17.360  1.6113 -0.7306 -1.3534
 5895TIP3   OH239175   1.983   0.872  12.232  0.2441  0.1497  0.1350
 5895TIP3    H139176   2.067   0.909  12.205 -0.0443  0.7449  0.0324
 5895TIP3    H239177   1.929   0.948  12.252 -0.0733 -0.2434  0.8058
 5896TIP3   OH239178   2.032   6.643   4.959 -0.1340 -0.0013  0.4229
 5896TIP3    H139179   2.048   6.576   4.893 -2.8581 -0.2349 -0.1125
 5896TIP3    H239180   2.024   6.594   5.041 -0.8823 -0.2224  0.2271
 5897TIP3   OH239181   0.366   3.709  13.705  0.0642 -0.3867  0.0320
 5897TIP3    H139182   0.292   3.689  13.762 -0.9878 -1.3722 -1.5992
 5897TIP3    H239183   0.436   3.650  13.734 -1.0935 -2.3261 -0.8858
 5898TIP3   OH239184   2.699   4.251   5.620 -0.1484  0.1492  0.2290
 5898TIP3    H139185   2.643   4.194   5.673  1.4521 -0.4915  1.2963
 5898TIP3    H239186   2.723   4.322   5.679  1.0990 -0.2091  0.1749
 5899TIP3   OH239187   1.492   4.965   0.738 -0.2914 -0.3394  0.2157
 5899TIP3    H139188   1.412   4.987   0.785 -0.7581  0.9576 -1.0803
 5899TIP3    H239189   1.481   5.007   0.652  1.0473 -1.5538 -0.5981
 5900TIP3   OH239190   6.244   5.597  14.558  0.4234 -0.2284  0.3018
 5900TIP3    H139191   6.232   5.514  14.604  2.7318 -0.7761  0.0174
 5900TIP3    H239192   6.337   5.617  14.568  0.2447  1.4951 -1.0282
 5901TIP3   OH239193   4.040   3.048  16.476 -0.2606  0.1047  0.4523
 5901TIP3    H139194   4.077   2.961  16.493 -1.5396 -0.8365 -1.2848
 5901TIP3    H239195   3.946   3.033  16.468 -0.5749  1.7605  0.6614
 5902TIP3   OH239196   1.339   5.070   0.985  0.0780  0.0708  0.2482
 5902TIP3    H139197   1.342   5.121   1.066  0.4240  0.5236 -0.0421
 5902TIP3    H239198   1.308   4.984   1.012 -2.6424  1.0082  0.4414
 5903TIP3   OH239199   2.662   0.294   3.826 -0.2462  0.4223  0.4357
 5903TIP3    H139200   2.704   0.359   3.883  1.6888 -1.0108  0.7595
 5903TIP3    H239201   2.668   0.333   3.738 -1.8025  1.9416  0.9582
 5904TIP3   OH239202   3.923   5.076  12.274  0.0112 -0.1850  0.5357
 5904TIP3    H139203   3.987   5.097  12.342 -0.3217  1.3116  0.4290
 5904TIP3    H239204   3.956   4.996  12.233  2.1430  0.8411  0.0979
 5905TIP3   OH239205   4.409   1.390  11.526  0.1991  1.0913 -0.3642
 5905TIP3    H139206   4.475   1.460  11.519  0.4913  0.9076  0.5320
 5905TIP3    H239207   4.455   1.317  11.567 -0.3706  0.6987 -0.4108
 5906TIP3   OH239208   3.434   2.259   2.968 -0.1859  0.6587  0.1006
 5906TIP3    H139209   3.365   2.252   2.903  0.2050  1.6227 -0.4476
 5906TIP3    H239210   3.486   2.335   2.940  1.1036 -0.0391  0.4858
 5907TIP3   OH239211   0.005   2.258   2.703  0.2759  0.0262  0.6799
 5907TIP3    H139212   0.067   2.192   2.735  0.4725 -0.9400 -1.5377
 5907TIP3    H239213  -0.056   2.209   2.649 -3.1634  0.7565  3.5373
 5908TIP3   OH239214   0.232   1.322  13.484  0.3750  0.0866 -0.0050
 5908TIP3    H139215   0.234   1.307  13.578 -0.0756  0.3212  0.0475
 5908TIP3    H239216   0.288   1.254  13.447  0.1425 -0.3270  0.3910
 5909TIP3   OH239217   6.159   3.490  15.275 -0.3129 -0.0665  0.2274
 5909TIP3    H139218   6.194   3.456  15.194  2.2162 -0.0492  1.2221
 5909TIP3    H239219   6.120   3.575  15.251 -0.5541 -0.5341 -1.1009
 5910TIP3   OH239220   3.126   1.439   5.759  0.0739 -0.4920 -0.3577
 5910TIP3    H139221   3.133   1.535   5.757 -0.5268 -0.3915  1.0752
 5910TIP3    H239222   3.047   1.420   5.709 -0.8028 -0.0723  0.8007
 5911TIP3   OH239223   5.807   2.356   4.896  0.1383  0.0661  0.2910
 5911TIP3    H139224   5.727   2.309   4.920 -0.0649 -1.5247 -2.9232
 5911TIP3    H239225   5.777   2.441   4.865  0.0610  0.6634  1.9090
 5912TIP3   OH239226   1.764   4.545   4.535 -0.1760  0.1126 -0.2880
 5912TIP3    H139227   1.852   4.532   4.572 -0.3123  0.7668  0.2915
 5912TIP3    H239228   1.779   4.552   4.441  0.0342 -2.8161 -0.5573
 5913TIP3   OH239229   6.233   4.598  12.336 -0.2632  0.0167 -0.3196
 5913TIP3    H139230   6.291   4.554  12.398 -1.0959 -0.1862  0.3330
 5913TIP3    H239231   6.192   4.668  12.387  0.0989  0.7680 -1.0189
 5914TIP3   OH239232   5.979   4.923  12.593  0.3208 -0.1071 -0.0111
 5914TIP3    H139233   5.965   4.987  12.663  0.2964 -0.9174  0.7429
 5914TIP3    H239234   5.893   4.911  12.554  0.5389  1.1710 -0.9245
 5915TIP3   OH239235   1.103   4.119  13.089  0.1880 -0.3929 -0.2743
 5915TIP3    H139236   1.180   4.154  13.044  2.0008 -2.0824  1.3282
 5915TIP3    H239237   1.138   4.074  13.166 -2.6554  1.4804  2.3709
 5916TIP3   OH239238   6.322   2.335   4.377 -0.3096 -0.1130  0.6696
 5916TIP3    H139239   6.386   2.400   4.346 -0.3316  0.7532  2.3555
 5916TIP3    H239240   6.243   2.354   4.327 -0.4100  1.3999  1.3594
 5917TIP3   OH239241   1.065   2.531  11.736 -0.4135  0.0270  0.4257
 5917TIP3    H139242   1.044   2.600  11.673  0.0302 -0.4250 -0.2289
 5917TIP3    H239243   1.035   2.566  11.820 -1.9974  0.2056 -0.1708
 5918TIP3   OH239244   6.519   1.892   5.299 -0.3566 -0.5290  0.1408
 5918TIP3    H139245   6.497   1.969   5.245 -2.1691 -0.7598  0.4746
 5918TIP3    H239246   6.437   1.870   5.342  0.6735 -1.3438  1.7569
 5919TIP3   OH239247   6.398   3.456   2.667 -0.4408  0.3556 -0.2282
 5919TIP3    H139248   6.354   3.534   2.633 -0.4209  1.1442  1.4363
 5919TIP3    H239249   6.346   3.383   2.634 -0.8446  1.0953 -1.2862
 5920TIP3   OH239250   3.675   1.455   4.480  0.4299 -0.2654 -0.6448
 5920TIP3    H139251   3.690   1.535   4.531 -0.6217 -0.1269 -0.5329
 5920TIP3    H239252   3.632   1.485   4.400 -1.5782 -0.8672  0.1565
 5921TIP3   OH239253   5.332   5.131  16.228  0.4071  0.1210 -0.3512
 5921TIP3    H139254   5.274   5.055  16.215  2.2556 -1.3415 -0.4749
 5921TIP3    H239255   5.408   5.113  16.173 -0.0169  3.2054 -2.1401
 5922TIP3   OH239256   5.215   1.996   4.804 -0.2721  0.1343  0.3218
 5922TIP3    H139257   5.123   1.997   4.775 -0.1566  0.2494 -0.0514
 5922TIP3    H239258   5.265   2.002   4.723  0.0697 -0.0947  0.5154
 5923TIP3   OH239259   3.521   1.048   2.247 -0.3368 -0.3579 -0.1271
 5923TIP3    H139260   3.568   0.965   2.236  0.8269  0.0630  1.3029
 5923TIP3    H239261   3.590   1.113   2.261 -1.0678 -0.2375  5.6895
 5924TIP3   OH239262   3.931   6.355  11.502 -0.5206 -0.0367  0.1599
 5924TIP3    H139263   3.883   6.328  11.581 -1.8665 -3.3002 -1.5637
 5924TIP3    H239264   3.988   6.280  11.483 -0.4542  0.5338 -2.1035
 5925TIP3   OH239265   2.427   2.317   3.095 -0.5141  0.0300 -0.9012
 5925TIP3    H139266   2.420   2.229   3.132 -0.5990  0.4497  0.1119
 5925TIP3    H239267   2.362   2.369   3.143 -1.7036  0.2683 -2.6852
 5926TIP3   OH239268   4.605   3.080  15.366  0.0419 -0.3281 -0.1837
 5926TIP3    H139269   4.600   3.029  15.447  0.9772  0.0086  0.0962
 5926TIP3    H239270   4.650   3.023  15.304  0.0370 -0.2821 -0.2299
 5927TIP3   OH239271   4.053   6.016  12.741 -0.6546  0.1984 -0.5676
 5927TIP3    H139272   4.061   6.111  12.734 -2.0082  0.4374  0.7329
 5927TIP3    H239273   4.016   6.001  12.828  0.3024 -1.5788 -0.4182
 5928TIP3   OH239274   6.412   4.623   2.528  0.6058 -0.3238  0.1459
 5928TIP3    H139275   6.403   4.575   2.445  2.1516 -0.3766 -0.0143
 5928TIP3    H239276   6.440   4.557   2.591 -1.2568 -0.4310  0.9200
 5929TIP3   OH239277   1.747   1.358  15.625  0.1783 -0.0596  0.2786
 5929TIP3    H139278   1.670   1.302  15.619 -1.4058  2.1434 -2.2434
 5929TIP3    H239279   1.731   1.412  15.703 -1.2314  0.8290 -0.5847
 5930TIP3   OH239280   6.204   4.033  11.194  0.2927  0.4859 -0.4877
 5930TIP3    H139281   6.141   4.045  11.123  0.7854  2.1714 -0.6946
 5930TIP3    H239282   6.175   4.093  11.263 -0.0817 -1.0035  0.6962
 5931TIP3   OH239283   1.701   3.132  16.362 -0.4534 -0.3706  0.1298
 5931TIP3    H139284   1.712   3.194  16.290  0.7252  0.1027  0.6864
 5931TIP3    H239285   1.733   3.049  16.326  0.4025 -0.0745  0.1782
 5932TIP3   OH239286   3.763   3.414  16.065  0.0924  0.2322 -0.1127
 5932TIP3    H139287   3.730   3.357  16.135  0.9026  0.5689  0.5791
 5932TIP3    H239288   3.850   3.441  16.097  2.1276 -2.4081 -2.7812
 5933TIP3   OH239289   2.848   0.645  11.466  0.0019 -0.0118 -0.1890
 5933TIP3    H139290   2.773   0.597  11.501 -0.3739 -0.2541 -1.2627
 5933TIP3    H239291   2.889   0.686  11.542 -0.4459 -0.9605  0.5830
 5934TIP3   OH239292   5.969   6.428  11.742  0.0765  0.3731  0.2796
 5934TIP3    H139293   5.997   6.350  11.694 -0.1762  1.0013 -0.9535
 5934TIP3    H239294   6.042   6.490  11.730 -1.1281  1.5121 -1.7164
 5935TIP3   OH239295   4.735   6.781  11.567 -0.0161 -0.1897  0.4524
 5935TIP3    H139296   4.738   6.713  11.635  1.7745  0.3115  0.9500
 5935TIP3    H239297   4.730   6.732  11.485 -0.5998 -0.8594  0.8718
 5936TIP3   OH239298   5.020   2.184   2.164 -0.6470  0.7568 -0.5881
 5936TIP3    H139299   5.104   2.191   2.118 -1.1363  1.5673 -1.3845
 5936TIP3    H239300   5.009   2.269   2.206 -0.8631  0.4927 -0.1049
 5937TIP3   OH239301   1.886   4.615  14.631 -0.4705  0.0403  0.1281
 5937TIP3    H139302   1.936   4.547  14.585  0.3981  1.0188 -0.4098
 5937TIP3    H239303   1.936   4.632  14.711 -0.7553 -0.0406  0.3247
 5938TIP3   OH239304   2.276   2.992   2.030  0.2031 -0.7486  0.0781
 5938TIP3    H139305   2.189   2.983   1.990  0.2726  0.8210 -0.4946
 5938TIP3    H239306   2.258   3.012   2.122 -0.0460 -0.2954 -0.0677
 5939TIP3   OH239307   3.784   6.648   3.989 -0.7260 -0.1985 -0.2645
 5939TIP3    H139308   3.780   6.555   3.966  0.2355  0.3700 -3.1286
 5939TIP3    H239309   3.877   6.669   3.991 -0.8412  0.4003  2.0916
 5940TIP3   OH239310   3.627   0.956   2.666 -0.3960  0.4065 -0.4955
 5940TIP3    H139311   3.653   0.875   2.710  0.0042  0.4159 -0.7196
 5940TIP3    H239312   3.533   0.944   2.648 -0.1940 -0.2645 -1.1060
 5941TIP3   OH239313   4.391   5.322  13.327  0.3911 -0.0925 -0.4439
 5941TIP3    H139314   4.339   5.243  13.338  1.4315 -0.4880  2.4570
 5941TIP3    H239315   4.328   5.393  13.331 -0.4034 -0.6857 -1.7917
 5942TIP3   OH239316   0.064   6.187  11.944  0.2818 -0.4524 -0.2930
 5942TIP3    H139317   0.115   6.268  11.933  2.3938 -1.4905  1.1649
 5942TIP3    H239318  -0.027   6.216  11.948  1.0123  1.9088  0.6712
 5943TIP3   OH239319   3.350   3.896  16.404  0.2262  0.1855  0.4178
 5943TIP3    H139320   3.355   3.949  16.484  0.6644 -1.9322  1.8844
 5943TIP3    H239321   3.258   3.870  16.397  0.3970 -0.5805  0.9161
 5944TIP3   OH239322   0.606   3.358   1.801 -0.1450 -0.8758 -0.3599
 5944TIP3    H139323   0.684   3.355   1.746  0.2543 -0.5827  0.1773
 5944TIP3    H239324   0.548   3.292   1.765  0.2171 -0.8609 -0.9734
 5945TIP3   OH239325   4.600   6.698  14.382 -0.2323  0.1192  0.3883
 5945TIP3    H139326   4.610   6.603  14.384  0.5867  0.2049  1.1068
 5945TIP3    H239327   4.506   6.713  14.390 -0.3888 -0.6335  0.0343
 5946TIP3   OH239328   2.894   4.406  12.722 -0.3302  0.1821  0.5773
 5946TIP3    H139329   2.956   4.354  12.671  0.2359  0.2625  1.1695
 5946TIP3    H239330   2.905   4.376  12.812  0.5247  1.7853  1.0570
 5947TIP3   OH239331   2.649   5.817  11.888  0.0588 -0.4114  0.1727
 5947TIP3    H139332   2.572   5.792  11.837 -0.6939 -0.6229  1.3742
 5947TIP3    H239333   2.616   5.834  11.976  1.5210 -1.5437  1.0019
 5948TIP3   OH239334   0.953   1.111   5.027  0.1952 -0.1469  0.4462
 5948TIP3    H139335   0.904   1.060   5.091  1.2111 -1.4026  0.2768
 5948TIP3    H239336   1.044   1.107   5.058  0.5793 -0.0785 -0.6230
 5949TIP3   OH239337   1.716   5.862   2.464  0.1380  0.4843  0.0046
 5949TIP3    H139338   1.703   5.904   2.549  0.2799  0.6781 -0.0702
 5949TIP3    H239339   1.720   5.768   2.485  0.0047  0.5176  0.1909
 5950TIP3   OH239340   6.031   3.813  11.222  0.2054 -0.1019  0.2675
 5950TIP3    H139341   6.091   3.849  11.156 -0.1020  1.1441  0.6487
 5950TIP3    H239342   6.008   3.726  11.188  1.3052 -0.1314 -0.4610
 5951TIP3   OH239343   5.211   3.177  15.394 -0.8256  0.4899  0.4765
 5951TIP3    H139344   5.199   3.265  15.430  0.5925  1.6328 -1.6516
 5951TIP3    H239345   5.132   3.130  15.419 -2.8977  3.1717 -0.6137
 5952TIP3   OH239346   2.365   2.780  15.508  0.3337  0.1999 -0.0675
 5952TIP3    H139347   2.278   2.820  15.509  0.3127  0.1567 -0.1993
 5952TIP3    H239348   2.350   2.688  15.526  0.3725  0.2313  0.1256
 5953TIP3   OH239349   0.200   3.871  16.423 -0.5587 -0.6179 -0.4091
 5953TIP3    H139350   0.174   3.961  16.404  1.2361  0.1491  0.4643
 5953TIP3    H239351   0.271   3.880  16.487 -0.0820 -2.6408 -0.5894
 5954TIP3   OH239352   2.051   4.281  15.774  0.3863 -0.1155 -0.2629
 5954TIP3    H139353   2.137   4.254  15.804  0.2306  0.9067  1.1553
 5954TIP3    H239354   2.002   4.199  15.764  1.8010 -0.8118 -2.1764
 5955TIP3   OH239355   6.628   6.675   5.654  0.5494  0.6362 -0.3918
 5955TIP3    H139356   6.617   6.737   5.582  0.1015 -2.3276 -3.1264
 5955TIP3    H239357   6.538   6.652   5.680  0.6059 -0.6671 -1.2205
 5956TIP3   OH239358   3.313   3.739   0.043 -0.0201  0.1047  0.8113
 5956TIP3    H139359   3.327   3.724   0.136 -1.1723 -0.8696  0.8506
 5956TIP3    H239360   3.309   3.651   0.005  1.4941  0.4824 -0.3509
 5957TIP3   OH239361   4.468   0.736  13.991 -0.2090  0.0030  0.2026
 5957TIP3    H139362   4.514   0.723  14.073 -1.1623 -0.4286  0.6830
 5957TIP3    H239363   4.377   0.751  14.016 -0.4853  0.0494 -0.7616
 5958TIP3   OH239364   1.148   2.291  11.648 -0.6501  0.0682 -0.1289
 5958TIP3    H139365   1.134   2.381  11.676  1.0793 -0.0768  1.3449
 5958TIP3    H239366   1.224   2.295  11.589 -0.2941 -0.4536  0.2764
 5959TIP3   OH239367   5.831   6.159   1.713  0.0908 -0.5336 -0.2914
 5959TIP3    H139368   5.858   6.248   1.738 -1.0269  0.3679 -2.1182
 5959TIP3    H239369   5.778   6.129   1.787  1.4726 -0.1972  0.8918
 5960TIP3   OH239370   5.331   0.865  11.251 -0.3679  0.8284 -0.2395
 5960TIP3    H139371   5.296   0.776  11.244 -0.9706  1.1003 -0.8275
 5960TIP3    H239372   5.399   0.870  11.184 -0.1913  0.7530 -0.0688
 5961TIP3   OH239373   4.270   0.191  13.542  0.0962 -0.0295  0.3766
 5961TIP3    H139374   4.289   0.145  13.624  1.7819  0.9394  0.5673
 5961TIP3    H239375   4.200   0.252  13.564  1.0185  0.7291  1.3120
 5962TIP3   OH239376   5.757   6.014  11.245 -0.3973 -0.0514 -0.4184
 5962TIP3    H139377   5.714   6.094  11.273 -2.0628 -0.8530 -0.5988
 5962TIP3    H239378   5.756   6.017  11.150  2.9364  1.4358 -0.5465
 5963TIP3   OH239379   0.243   0.586   1.526 -0.3151  0.1947  0.2803
 5963TIP3    H139380   0.176   0.574   1.459  0.1036  0.8361 -0.2588
 5963TIP3    H239381   0.299   0.509   1.518  0.9708  1.2321 -1.5651
 5964TIP3   OH239382   5.884   2.603   6.835  0.6002 -0.0206  0.1893
 5964TIP3    H139383   5.962   2.638   6.791  0.4557 -0.4233 -0.4025
 5964TIP3    H239384   5.815   2.608   6.768  0.2127 -0.0398  0.5806
 5965TIP3   OH239385   5.276   2.474  14.606 -0.6904  0.1954 -0.0459
 5965TIP3    H139386   5.192   2.433  14.585 -0.5033 -0.1701 -0.1034
 5965TIP3    H239387   5.336   2.439  14.540 -0.6684  1.0921 -0.5131
 5966TIP3   OH239388   6.153   2.987  12.290 -0.1252  0.1970 -0.7963
 5966TIP3    H139389   6.105   2.924  12.342 -0.2024  2.0611  1.5704
 5966TIP3    H239390   6.088   3.028  12.233 -0.8058  0.6487  0.2835
 5967TIP3   OH239391   5.617   4.118   0.303  0.1376  0.0149 -0.2602
 5967TIP3    H139392   5.597   4.025   0.308 -0.3625  0.0877 -0.7752
 5967TIP3    H239393   5.628   4.146   0.394  1.6344 -0.8246 -0.1586
 5968TIP3   OH239394   2.227   0.325  13.555  0.2806  0.5449 -0.2807
 5968TIP3    H139395   2.249   0.418  13.557 -0.1290  0.6637  2.8987
 5968TIP3    H239396   2.312   0.281  13.547  0.5684  1.1669 -0.7361
 5969TIP3   OH239397   1.286   1.015   2.081 -0.1390  0.1329 -0.2540
 5969TIP3    H139398   1.325   1.079   2.140 -0.5569  0.5055 -0.3697
 5969TIP3    H239399   1.191   1.024   2.095 -0.1961 -2.7441  2.1167
 5970TIP3   OH239400   2.883   2.912   0.388  0.0498 -0.4442 -0.4823
 5970TIP3    H139401   2.972   2.882   0.405 -0.2510 -0.7266  0.6810
 5970TIP3    H239402   2.873   2.990   0.443 -1.2804 -1.9574  1.5919
 5971TIP3   OH239403   1.472   3.417  17.263  0.0135 -0.3646  0.2771
 5971TIP3    H139404   1.522   3.412  17.344 -0.9698  0.7031  0.9941
 5971TIP3    H239405   1.423   3.499  17.270  1.1730  0.6376 -2.1563
 5972TIP3   OH239406   6.791   0.987  12.068  0.0753 -0.0731  0.5351
 5972TIP3    H139407   6.878   0.950  12.080  0.0354 -0.2164  0.3697
 5972TIP3    H239408   6.786   1.009  11.975 -0.6872 -1.6207  0.1849
 5973TIP3   OH239409   5.175   4.436   0.437  0.3612  0.3269 -0.4242
 5973TIP3    H139410   5.244   4.486   0.393  0.9855 -3.0564 -3.8561
 5973TIP3    H239411   5.221   4.369   0.487 -0.3192 -1.0297 -1.5303
 5974TIP3   OH239412   6.600   0.235   0.070 -0.2795 -0.1414  0.1382
 5974TIP3    H139413   6.658   0.298   0.027  0.6602  1.0053  2.8225
 5974TIP3    H239414   6.514   0.277   0.068 -0.1716  0.0613 -0.3151
 5975TIP3   OH239415   5.872   1.586  16.843  0.0627 -0.0359  0.2586
 5975TIP3    H139416   5.796   1.576  16.900 -1.3341  0.2228 -1.4773
 5975TIP3    H239417   5.945   1.550  16.894 -1.1927 -0.2903  1.9724
 5976TIP3   OH239418   6.652   3.918  15.801 -0.2325  0.2454 -0.3159
 5976TIP3    H139419   6.724   3.906  15.863 -1.9649  1.1081  2.0056
 5976TIP3    H239420   6.612   3.831  15.793 -0.7396  0.3693  0.7748
 5977TIP3   OH239421   1.442   3.540   5.932  0.2393  0.6514 -0.3948
 5977TIP3    H139422   1.453   3.570   5.841  1.9360  0.0597 -0.4227
 5977TIP3    H239423   1.489   3.605   5.984 -0.9196  1.1132  0.1180
 5978TIP3   OH239424   2.280   6.122   3.502  0.1579 -0.2418 -0.4582
 5978TIP3    H139425   2.253   6.179   3.574  0.6465  0.5846 -0.9147
 5978TIP3    H239426   2.334   6.055   3.544  3.0497  1.9303 -0.3427
 5979TIP3   OH239427   4.470   0.340   1.450 -0.6998 -0.2266  0.4829
 5979TIP3    H139428   4.560   0.329   1.420 -0.7809 -0.2425  0.2406
 5979TIP3    H239429   4.478   0.376   1.538 -0.4413 -1.1806  0.8630
 5980TIP3   OH239430   5.720   6.237   3.298 -0.2743  0.1095  0.5748
 5980TIP3    H139431   5.764   6.172   3.352 -0.3398 -1.0144 -0.6619
 5980TIP3    H239432   5.713   6.195   3.212  1.1802  2.3763 -0.7377
 5981TIP3   OH239433   5.859   1.939  16.473  0.0928  0.0535  0.1106
 5981TIP3    H139434   5.816   2.021  16.447  1.3818  1.1536  1.3186
 5981TIP3    H239435   5.948   1.947  16.440  0.8048  0.0536  1.9101
 5982TIP3   OH239436   0.317   6.796  12.251 -0.0194  0.0452  0.6017
 5982TIP3    H139437   0.404   6.793  12.291  0.5027  3.1552 -0.0091
 5982TIP3    H239438   0.260   6.833  12.319 -0.0653  1.2327 -0.0422
 5983TIP3   OH239439   4.476   2.209   6.486 -0.1561  0.0474  0.0961
 5983TIP3    H139440   4.484   2.115   6.467  0.6269  0.1561 -0.1193
 5983TIP3    H239441   4.493   2.252   6.403 -2.0883  0.3454 -0.1849
 5984TIP3   OH239442   2.525   0.512  17.005 -0.3758  0.2818 -0.0317
 5984TIP3    H139443   2.466   0.576  16.965 -0.8531  0.4008  0.8487
 5984TIP3    H239444   2.555   0.553  17.085 -0.0424 -0.2749  0.1336
 5985TIP3   OH239445   0.237   4.365   0.258 -0.0579 -0.9343 -0.1041
 5985TIP3    H139446   0.231   4.358   0.353 -0.6333 -1.1158 -0.1446
 5985TIP3    H239447   0.284   4.286   0.230 -0.7649 -1.3873 -0.0433
 5986TIP3   OH239448   0.736   3.043  17.186  0.5699 -0.0053 -0.2123
 5986TIP3    H139449   0.741   3.133  17.219  0.9738 -0.0114 -0.2581
 5986TIP3    H239450   0.827   3.017  17.172  0.5868 -1.1378  1.7062
 5987TIP3   OH239451   3.303   5.162   4.295 -0.6475  0.5367  0.2763
 5987TIP3    H139452   3.372   5.210   4.249 -1.7009  2.0894  0.2285
 5987TIP3    H239453   3.248   5.126   4.225 -0.4456  0.1240  0.3233
 5988TIP3   OH239454   2.808   2.934   4.429 -0.0492 -0.2980  0.2116
 5988TIP3    H139455   2.750   3.005   4.457  2.4509  2.2044 -0.4934
 5988TIP3    H239456   2.763   2.894   4.354 -2.0276 -0.2593  1.3168
 5989TIP3   OH239457   0.919   2.393  14.169 -0.5965 -0.1477  0.5098
 5989TIP3    H139458   0.909   2.335  14.093 -0.0924  0.0039  0.3228
 5989TIP3    H239459   0.922   2.334  14.244 -0.0422 -0.3708  0.3164
 5990TIP3   OH239460   1.210   6.439   3.128  0.1771  0.4317 -0.1585
 5990TIP3    H139461   1.259   6.472   3.204 -0.6275 -0.5634  0.8298
 5990TIP3    H239462   1.143   6.506   3.112 -0.7590 -0.1418  1.1456
 5991TIP3   OH239463   2.154   5.601  12.578 -0.4834  0.2423  0.1547
 5991TIP3    H139464   2.126   5.663  12.511  1.2214  0.7793 -0.1026
 5991TIP3    H239465   2.201   5.533  12.530  1.9612  1.3381  0.8553
 5992TIP3   OH239466   3.254   2.108   0.990  0.0078 -0.4617 -0.1359
 5992TIP3    H139467   3.303   2.142   1.065 -2.1754  0.7454  0.8461
 5992TIP3    H239468   3.221   2.186   0.945 -0.5087 -1.2078 -1.0995
 5993TIP3   OH239469   6.744   1.714  12.983  0.4352  0.1451 -0.7685
 5993TIP3    H139470   6.679   1.695  12.914  0.5492 -0.3418 -0.7498
 5993TIP3    H239471   6.699   1.691  13.064  0.4923  0.1888 -0.7252
 5994TIP3   OH239472   2.430   0.978  11.443  0.0391  0.0883 -0.0700
 5994TIP3    H139473   2.504   0.974  11.504 -0.6482 -1.0170  0.7323
 5994TIP3    H239474   2.388   1.061  11.461  1.2075  0.8532 -0.7098
 5995TIP3   OH239475   3.145   1.510  11.744 -0.0177  0.4460  0.4010
 5995TIP3    H139476   3.077   1.566  11.782 -1.7999 -0.7694 -0.8016
 5995TIP3    H239477   3.148   1.434  11.802 -0.5489 -0.0228 -0.1696
 5996TIP3   OH239478   1.110   2.085  15.220 -0.3494 -0.7143 -0.3381
 5996TIP3    H139479   1.121   2.004  15.171  0.6134 -1.6728  1.3617
 5996TIP3    H239480   1.030   2.072  15.270  1.1700 -1.8081  1.9711
 5997TIP3   OH239481   1.858   0.023   5.712  0.1052 -0.5845 -0.2156
 5997TIP3    H139482   1.877   0.113   5.740  0.2292 -1.3017  2.2037
 5997TIP3    H239483   1.942  -0.011   5.682  0.9441 -1.0073  2.3679
 5998TIP3   OH239484   3.058   1.470  13.498 -0.1949  0.4127  0.2169
 5998TIP3    H139485   3.002   1.392  13.488 -0.5899  0.5906  0.9377
 5998TIP3    H239486   3.064   1.482  13.592 -0.4043  1.4456  0.1077
 5999TIP3   OH239487   4.968   0.399   3.912 -0.0729 -0.0031  0.5731
 5999TIP3    H139488   4.912   0.432   3.842 -3.2845 -0.9407  2.4559
 5999TIP3    H239489   5.004   0.478   3.953 -2.0639  0.8486  0.7869
 6000TIP3   OH239490   3.379   5.452  10.520 -0.7330  0.0275 -0.3365
 6000TIP3    H139491   3.286   5.477  10.515 -1.0294 -1.2237 -1.9112
 6000TIP3    H239492   3.380   5.359  10.496  1.1609  0.6183 -3.0179
 6001TIP3   OH239493   2.293   4.381  14.649  0.3255 -0.0108 -0.5726
 6001TIP3    H139494   2.277   4.427  14.731  0.0766  0.5578 -0.9349
 6001TIP3    H239495   2.206   4.359  14.616  0.4469 -1.5014  0.0037
 6002TIP3   OH239496   6.443   3.945  16.097  0.3693  0.1082  0.0470
 6002TIP3    H139497   6.520   3.914  16.048  0.3944 -0.9542  0.7250
 6002TIP3    H239498   6.374   3.883  16.074  0.1780  0.0540  0.7478
 6003TIP3   OH239499   6.354   0.530  13.212  0.2618 -0.0580  0.3694
 6003TIP3    H139500   6.449   0.544  13.202 -0.2055  2.4534 -1.4181
 6003TIP3    H239501   6.317   0.618  13.217 -1.8790 -0.9818  3.1329
 6004TIP3   OH239502   0.090   3.532  16.879  0.1335 -0.2296  0.3386
 6004TIP3    H139503   0.013   3.478  16.897  0.3496  0.0003  2.1686
 6004TIP3    H239504   0.069   3.617  16.918  2.1433 -0.8196  2.9926
 6005TIP3   OH239505   3.399   5.718   3.500 -0.1303  0.1624  0.1931
 6005TIP3    H139506   3.485   5.678   3.485 -0.3547 -0.4035  0.3619
 6005TIP3    H239507   3.381   5.766   3.420  0.1920 -0.0021  0.0178
 6006TIP3   OH239508   5.224   5.273   3.607  0.3620  0.1314  0.3767
 6006TIP3    H139509   5.168   5.327   3.663 -2.2385 -0.8795 -1.0363
 6006TIP3    H239510   5.231   5.322   3.525 -1.2747 -1.1010 -0.5951
 6007TIP3   OH239511   3.898   3.522  15.389  0.5209 -0.4757  0.4154
 6007TIP3    H139512   3.898   3.614  15.413 -0.1126 -0.8385  1.9815
 6007TIP3    H239513   3.812   3.490  15.417  1.1703 -1.7879  1.0503
 6008TIP3   OH239514   6.044   0.711   6.428 -0.5378 -0.1095  0.2586
 6008TIP3    H139515   6.006   0.659   6.358  1.2145 -1.1384  0.0030
 6008TIP3    H239516   6.001   0.680   6.508 -1.4887  0.0321 -0.1931
 6009TIP3   OH239517   6.322   5.345   3.969  0.1085  0.1749  0.6614
 6009TIP3    H139518   6.384   5.281   4.005  0.8582  0.1527 -0.6047
 6009TIP3    H239519   6.318   5.324   3.875 -0.5238  1.2552  0.4323
 6010TIP3   OH239520   0.603   0.434   1.671 -0.1114 -0.1102  0.0935
 6010TIP3    H139521   0.649   0.406   1.592 -0.3367 -0.4045  0.0613
 6010TIP3    H239522   0.648   0.390   1.742 -0.2628 -0.3036  0.0727
 6011TIP3   OH239523   5.870   3.544   0.101  0.7219  0.3875 -0.1381
 6011TIP3    H139524   5.828   3.607   0.160  0.0234 -1.2465  1.1918
 6011TIP3    H239525   5.867   3.586   0.015 -1.2339  1.4782  0.3960
 6012TIP3   OH239526   2.361   3.094   4.531  0.0671  0.3198  0.8073
 6012TIP3    H139527   2.341   3.001   4.532 -5.6251  1.0409 -2.9143
 6012TIP3    H239528   2.402   3.109   4.446  1.1345  1.2415  1.4576
 6013TIP3   OH239529   6.306   1.628  16.306  0.5152  0.1973  0.7641
 6013TIP3    H139530   6.367   1.672  16.365  1.1002  1.1601 -0.5192
 6013TIP3    H239531   6.243   1.696  16.282  0.0469 -0.2933  0.5733
 6014TIP3   OH239532   0.518   0.110   3.734 -0.6653 -0.0763 -0.6565
 6014TIP3    H139533   0.492   0.202   3.727 -0.8333 -0.0814 -0.1613
 6014TIP3    H239534   0.576   0.096   3.659  1.3195  1.0970  0.5772
 6015TIP3   OH239535   0.087   0.289  12.651 -0.2469 -0.1796 -0.2054
 6015TIP3    H139536   0.014   0.324  12.600 -2.6110 -1.3735  2.1018
 6015TIP3    H239537   0.164   0.306  12.597 -1.8748  3.2572 -1.7707
 6016TIP3   OH239538   1.710   4.689   0.175  0.4056 -0.4758  0.6627
 6016TIP3    H139539   1.739   4.738   0.252  0.6798 -0.3823  0.5041
 6016TIP3    H239540   1.616   4.678   0.187 -0.1837  2.3295 -0.5054
 6017TIP3   OH239541   1.715   2.574  16.935  0.2053  0.0844 -0.1157
 6017TIP3    H139542   1.722   2.555  17.028 -1.4632  0.6856  0.1636
 6017TIP3    H239543   1.752   2.661  16.925  1.5707 -0.4841 -0.2626
 6018TIP3   OH239544   5.405   5.572   5.279  0.2573 -0.6658 -0.0418
 6018TIP3    H139545   5.482   5.523   5.308  0.9473  0.0039 -0.7097
 6018TIP3    H239546   5.427   5.603   5.191 -0.2359  0.6647  0.2791
 6019TIP3   OH239547   4.756   4.039  15.528  0.1241  0.5632  0.7576
 6019TIP3    H139548   4.662   4.028  15.543 -0.7603  3.8351 -1.3413
 6019TIP3    H239549   4.788   4.083  15.607 -0.2055  0.1077  1.1578
 6020TIP3   OH239550   6.097   4.416   1.208  0.1364 -0.0515  0.3440
 6020TIP3    H139551   6.051   4.452   1.284  0.6408 -0.9688  1.1090
 6020TIP3    H239552   6.109   4.323   1.229  0.4626 -0.2713 -0.7710
 6021TIP3   OH239553   6.691   1.177   2.773 -0.1014  0.5977 -0.3481
 6021TIP3    H139554   6.659   1.092   2.742  1.1501 -0.4098  1.0098
 6021TIP3    H239555   6.647   1.189   2.858  0.2945  0.9540 -0.1921
 6022TIP3   OH239556   6.260   0.461  13.966 -0.1881 -0.0048 -0.1378
 6022TIP3    H139557   6.341   0.417  13.944 -0.6613 -0.7558 -0.4088
 6022TIP3    H239558   6.255   0.535  13.905 -0.4704 -0.8724 -1.1921
 6023TIP3   OH239559   5.071   5.654  15.448 -0.4326  0.9880  0.1669
 6023TIP3    H139560   5.032   5.634  15.533  0.3831  3.1330  1.1237
 6023TIP3    H239561   4.997   5.664  15.389 -0.9855 -1.2182  0.3997
 6024TIP3   OH239562   4.350   1.276   3.210 -0.4605  0.1341 -0.0695
 6024TIP3    H139563   4.388   1.211   3.151  1.4368 -1.0201  2.2381
 6024TIP3    H239564   4.274   1.309   3.163  0.1465 -1.6647 -2.5546
 6025TIP3   OH239565   2.031   0.173  13.657 -0.4973  0.4884  0.2195
 6025TIP3    H139566   2.099   0.232  13.624 -0.7500  0.6121 -0.0964
 6025TIP3    H239567   1.955   0.230  13.671  0.3206  0.9463  3.5380
 6026TIP3   OH239568   4.411   1.070   2.287 -0.5681 -0.0639  0.1623
 6026TIP3    H139569   4.331   1.103   2.328 -0.7756  0.5924 -0.7197
 6026TIP3    H239570   4.435   0.993   2.338 -0.9607  0.5600  1.3158
 6027TIP3   OH239571   1.184   6.129  15.181  0.1329  0.2338 -0.1027
 6027TIP3    H139572   1.262   6.088  15.218 -0.7365  0.2078  1.8057
 6027TIP3    H239573   1.214   6.213  15.148  1.1003 -0.1139 -0.1456
 6028TIP3   OH239574   0.536   6.394   2.245  0.0780 -0.1581 -0.0870
 6028TIP3    H139575   0.565   6.485   2.237 -1.4568  0.5462  1.8484
 6028TIP3    H239576   0.610   6.349   2.287  0.7446  0.2189 -0.8226
 6029TIP3   OH239577   0.213   3.287   5.431 -0.1699  0.2260  0.1464
 6029TIP3    H139578   0.248   3.372   5.456 -0.3763 -0.0930  1.6512
 6029TIP3    H239579   0.251   3.269   5.345  1.2694  1.0529  0.5784
 6030TIP3   OH239580   5.721   3.245   1.542 -0.3743  0.8217  0.1104
 6030TIP3    H139581   5.681   3.170   1.500 -0.2751  0.8442 -0.0258
 6030TIP3    H239582   5.689   3.243   1.632 -1.6843  1.5629 -0.3107
 6031TIP3   OH239583   1.139   3.558   1.985 -0.3471  0.1671  0.1574
 6031TIP3    H139584   1.077   3.491   1.957  0.8014 -1.0285  0.3675
 6031TIP3    H239585   1.085   3.636   2.001 -1.4445  0.0307 -2.3352
 6032TIP3   OH239586   6.084   5.636  15.154 -0.0294  0.5393  0.0879
 6032TIP3    H139587   6.147   5.585  15.103 -1.6929  0.8469 -2.4375
 6032TIP3    H239588   6.018   5.571  15.181 -0.7726  0.8723 -0.8747
 6033TIP3   OH239589   6.738   2.441  17.132 -0.3992  0.2177 -0.0109
 6033TIP3    H139590   6.701   2.358  17.162 -0.4172  0.6668  1.3015
 6033TIP3    H239591   6.830   2.437  17.161 -0.2123  0.3535 -0.5832
 6034TIP3   OH239592   2.126   0.364  17.002  0.2974  0.2389  0.3479
 6034TIP3    H139593   2.155   0.451  16.974  0.6258 -0.5494 -1.9750
 6034TIP3    H239594   2.080   0.328  16.925  0.4790 -1.7763  1.1228
 6035TIP3   OH239595   0.694   4.052   0.443  0.0754  0.1560  0.2025
 6035TIP3    H139596   0.746   4.109   0.386 -0.5445  0.1207 -0.4045
 6035TIP3    H239597   0.690   3.969   0.396  0.3545 -0.1724  0.7458
 6036TIP3   OH239598   0.584   0.831  16.076 -0.4272 -0.1478  0.3183
 6036TIP3    H139599   0.603   0.757  16.019  1.8489  0.0534  0.7282
 6036TIP3    H239600   0.590   0.908  16.019  0.7326 -0.0395  0.5506
 6037TIP3   OH239601   3.793   1.861  13.996 -0.3313 -0.5494  0.0225
 6037TIP3    H139602   3.707   1.821  13.989 -0.3724 -0.6075  0.7239
 6037TIP3    H239603   3.845   1.821  13.927 -0.9352 -0.3222 -0.5782
 6038TIP3   OH239604   3.334   3.770   2.259 -0.3023  0.3224  0.0364
 6038TIP3    H139605   3.279   3.706   2.303  0.2614 -0.0631  0.1834
 6038TIP3    H239606   3.408   3.783   2.318 -0.8880  1.8630  0.4840
 6039TIP3   OH239607   1.718   1.993  12.376  0.0097 -0.1861 -0.0256
 6039TIP3    H139608   1.774   2.030  12.307  1.0673 -1.1657  0.2683
 6039TIP3    H239609   1.654   1.941  12.329  0.2094 -0.1771 -0.3108
 6040TIP3   OH239610   4.233   2.753  11.540  0.2566 -0.3158 -0.5931
 6040TIP3    H139611   4.181   2.720  11.467  0.2568 -0.2029 -0.6442
 6040TIP3    H239612   4.321   2.765  11.503  0.1001  0.3680 -0.7474
 6041TIP3   OH239613   3.648   4.436  16.706  0.2664 -0.3027 -0.0774
 6041TIP3    H139614   3.740   4.423  16.730 -0.0729 -0.0229  1.4617
 6041TIP3    H239615   3.611   4.348  16.706  0.5838 -0.4490 -0.9979
 6042TIP3   OH239616   0.402   1.671  15.570  0.1340  0.1491  0.5333
 6042TIP3    H139617   0.328   1.609  15.574 -0.3940  0.8028  1.2992
 6042TIP3    H239618   0.371   1.747  15.619  0.5686  1.2402 -0.8331
 6043TIP3   OH239619   0.968   3.987   1.109 -0.4101  0.2329 -0.3771
 6043TIP3    H139620   1.063   3.982   1.101 -0.2833 -1.0671  1.3558
 6043TIP3    H239621   0.952   4.074   1.145  0.2562  0.0248  0.4683
 6044TIP3   OH239622   6.537   3.827   3.985  0.1972  0.2663  0.1902
 6044TIP3    H139623   6.554   3.772   4.062  1.1560 -0.4778 -0.5383
 6044TIP3    H239624   6.502   3.908   4.022 -1.5792 -0.9157  1.2670
 6045TIP3   OH239625   2.921   1.936  12.314 -0.5745  0.1221 -0.2708
 6045TIP3    H139626   2.994   1.930  12.253 -1.5567  0.9209 -1.5739
 6045TIP3    H239627   2.931   2.021  12.356  0.6386 -0.8201  1.4436
 6046TIP3   OH239628   5.444   1.600  12.086 -0.3959  0.0944 -0.2820
 6046TIP3    H139629   5.418   1.552  12.008 -0.3628  0.7708 -0.7134
 6046TIP3    H239630   5.474   1.533  12.147  0.3425 -0.3595 -1.1425
 6047TIP3   OH239631   1.171   3.096  11.144 -0.7160  0.3113  0.1174
 6047TIP3    H139632   1.133   3.011  11.166  1.6745 -0.5319  1.3219
 6047TIP3    H239633   1.141   3.154  11.213 -1.9483  0.3906 -0.4365
 6048TIP3   OH239634   0.206   0.390  14.532 -0.3683  0.0722  0.2247
 6048TIP3    H139635   0.164   0.414  14.614  2.1459  0.4489  1.5056
 6048TIP3    H239636   0.293   0.429  14.536  0.5699 -1.5565 -1.7389
 6049TIP3   OH239637   1.588   1.303  14.530 -0.3620  0.2400  0.0983
 6049TIP3    H139638   1.531   1.313  14.606 -0.5612  0.8834 -0.1288
 6049TIP3    H239639   1.675   1.328  14.562 -0.5749  1.2385 -0.0593
 6050TIP3   OH239640   6.412   1.874   4.973 -0.0384 -0.1130  0.2263
 6050TIP3    H139641   6.502   1.848   4.956  0.2967  2.0350 -1.8460
 6050TIP3    H239642   6.396   1.946   4.912 -2.5989  0.7469  1.7443
 6051TIP3   OH239643   3.471   0.640  14.888 -0.1280 -0.2207 -0.4734
 6051TIP3    H139644   3.566   0.631  14.879  0.1134  2.2138 -1.0353
 6051TIP3    H239645   3.438   0.550  14.885  2.1347 -1.1318 -0.2614
 6052TIP3   OH239646   4.760   1.132   4.459 -0.2413 -0.4039 -0.1962
 6052TIP3    H139647   4.734   1.083   4.381 -2.1585 -0.5249  0.4596
 6052TIP3    H239648   4.681   1.132   4.514  0.1925  2.0432  0.5303
 6053TIP3   OH239649   6.200   3.850   1.333  0.1553 -0.7316  0.2120
 6053TIP3    H139650   6.246   3.890   1.406 -0.2366  1.7842 -0.8246
 6053TIP3    H239651   6.116   3.821   1.370  0.2891 -0.2262  0.9170
 6054TIP3   OH239652   0.707   1.206  16.079 -0.1125  0.3290  0.1293
 6054TIP3    H139653   0.769   1.133  16.072 -0.7883 -0.1285 -1.5780
 6054TIP3    H239654   0.751   1.270  16.135  1.6993 -0.1902 -0.6314
 6055TIP3   OH239655   0.813   4.109  16.318 -0.3805  0.4589 -0.6516
 6055TIP3    H139656   0.864   4.190  16.307  1.5723 -0.9186 -2.4624
 6055TIP3    H239657   0.878   4.040  16.328 -1.9635 -0.8021  2.9451
 6056TIP3   OH239658   3.699   4.367  12.390  0.2132 -0.2463 -0.0339
 6056TIP3    H139659   3.707   4.335  12.480  1.2658  0.9820  0.3481
 6056TIP3    H239660   3.781   4.415  12.375 -0.8950  1.5023 -0.8270
 6057TIP3   OH239661   0.865   6.138   4.561 -0.1934  0.1131 -0.5663
 6057TIP3    H139662   0.777   6.168   4.585 -0.9606 -1.1136 -1.6554
 6057TIP3    H239663   0.884   6.066   4.622  0.2546  0.6749 -0.0397
 6058TIP3   OH239664   2.102   0.693  15.289  0.5967 -0.6598 -0.1505
 6058TIP3    H139665   2.075   0.743  15.212  0.4191 -1.2994 -0.5170
 6058TIP3    H239666   2.070   0.604  15.271  2.1113 -1.2228 -0.1624
 6059TIP3   OH239667   2.801   2.791  16.650 -0.1748 -0.1185 -0.5925
 6059TIP3    H139668   2.883   2.801  16.602  1.3271 -0.9659  1.6218
 6059TIP3    H239669   2.776   2.699  16.636  0.9170 -0.7184  1.0943
 6060TIP3   OH239670   3.951   2.815   5.245  0.2244 -0.2682  0.5312
 6060TIP3    H139671   4.039   2.782   5.227  0.6446 -0.6178  2.8955
 6060TIP3    H239672   3.912   2.826   5.158  3.3653  2.1774 -0.7995
 6061TIP3   OH239673   3.387   1.419   3.918 -0.1964 -0.2098  0.0813
 6061TIP3    H139674   3.467   1.422   3.866 -0.0319 -0.3678  0.3217
 6061TIP3    H239675   3.340   1.500   3.897 -0.4400 -0.5712 -0.8007
 6062TIP3   OH239676   3.104   3.088   3.392  0.2870  0.0648 -0.2098
 6062TIP3    H139677   3.025   3.035   3.395  0.2305  0.1485 -0.2279
 6062TIP3    H239678   3.084   3.160   3.333  0.4779 -0.0758 -0.4483
 6063TIP3   OH239679   1.128   3.865   0.839  0.1067 -0.1755  0.2925
 6063TIP3    H139680   1.170   3.868   0.924 -0.8840 -0.0504  0.7922
 6063TIP3    H239681   1.093   3.776   0.832 -2.8894  0.7636  1.5970
 6064TIP3   OH239682   2.966   0.043  11.104  0.2089 -0.0995  1.0001
 6064TIP3    H139683   2.877   0.068  11.077  1.0063 -0.5280 -2.5459
 6064TIP3    H239684   3.017   0.123  11.092  0.7465 -0.5227  0.3607
 6065TIP3   OH239685   2.793   3.768  16.999  0.5280 -0.2806  0.3141
 6065TIP3    H139686   2.737   3.810  17.064 -0.1180 -1.2493  0.4019
 6065TIP3    H239687   2.745   3.690  16.972  1.3699 -0.5803 -0.3800
 6066TIP3   OH239688   4.417   1.306  16.109  0.2934 -0.3883 -0.1511
 6066TIP3    H139689   4.367   1.382  16.080 -0.5507 -0.4935  0.9638
 6066TIP3    H239690   4.441   1.326  16.200 -0.3296 -1.6320  0.3054
 6067TIP3   OH239691   2.450   2.050  14.132  0.2443  0.3448  0.1316
 6067TIP3    H139692   2.497   1.995  14.070 -1.0420  1.3347 -1.8159
 6067TIP3    H239693   2.504   2.049  14.211  1.8269 -1.1419 -0.9130
 6068TIP3   OH239694   4.424   0.147   1.087  0.2924 -0.0016 -0.2867
 6068TIP3    H139695   4.488   0.117   1.022 -0.2804  0.3553 -1.0191
 6068TIP3    H239696   4.350   0.179   1.036  0.2726  1.2939  0.5157
 6069TIP3   OH239697   1.344   6.192  13.999  0.8019  0.2975  0.0430
 6069TIP3    H139698   1.334   6.286  14.008  2.4276  0.3304  2.3241
 6069TIP3    H239699   1.255   6.159  13.991  0.2017  1.9755 -0.6984
 6070TIP3   OH239700   0.068   0.767  11.501 -0.1989 -0.3115  0.4931
 6070TIP3    H139701   0.156   0.798  11.480  0.0108 -1.9875 -1.4820
 6070TIP3    H239702   0.010   0.837  11.472  0.4068 -0.0721 -0.1643
 6071TIP3   OH239703   5.832   1.375   0.522 -0.2372  0.0611  0.3738
 6071TIP3    H139704   5.911   1.428   0.515  0.5511 -1.0806  0.3891
 6071TIP3    H239705   5.770   1.416   0.461  0.8848  0.0964 -0.7802
 6072TIP3   OH239706   0.272   5.406   5.613  0.3487  0.3219  0.0539
 6072TIP3    H139707   0.339   5.347   5.579 -0.0281  0.4696 -0.9934
 6072TIP3    H239708   0.191   5.355   5.607 -0.0135  0.9868 -1.0434
 6073TIP3   OH239709   2.932   4.514   3.319 -0.0275  0.1620  0.1137
 6073TIP3    H139710   3.016   4.493   3.277 -0.1123  0.9762 -0.4773
 6073TIP3    H239711   2.940   4.606   3.344 -0.2680 -0.1036  1.2225
 6074TIP3   OH239712   1.861   4.259  15.347 -0.5220 -0.1788 -0.4756
 6074TIP3    H139713   1.821   4.260  15.433  1.4020 -0.2969  0.4750
 6074TIP3    H239714   1.945   4.304  15.359  0.6171 -1.8047 -1.8258
 6075TIP3   OH239715   0.868   4.588   3.763  0.2576 -0.3594 -0.2235
 6075TIP3    H139716   0.911   4.673   3.767  1.3867 -0.9400  0.7133
 6075TIP3    H239717   0.884   4.557   3.675  0.5990  0.0160 -0.2947
 6076TIP3   OH239718   6.684   3.801   2.620 -0.2167 -0.1675  0.3272
 6076TIP3    H139719   6.756   3.747   2.587  0.2910 -0.1447  1.3547
 6076TIP3    H239720   6.726   3.879   2.654 -0.4561 -1.0244  2.8039
 6077TIP3   OH239721   5.400   4.979  13.956  0.0487  0.1501 -0.1021
 6077TIP3    H139722   5.356   5.061  13.936  0.2022  0.0408 -0.9341
 6077TIP3    H239723   5.491   4.993  13.930 -0.3456 -0.9680 -2.3689
 6078TIP3   OH239724   6.633   3.017  16.000 -0.2226  0.3762  0.3482
 6078TIP3    H139725   6.691   3.061  15.937  3.7589 -2.5195  1.6112
 6078TIP3    H239726   6.659   3.051  16.085  0.8790 -2.0441  1.0730
 6079TIP3   OH239727   2.085   0.895  11.176  0.2833  0.5383 -0.4171
 6079TIP3    H139728   2.001   0.874  11.218  0.4378  0.6190 -0.0660
 6079TIP3    H239729   2.151   0.862  11.236  0.5035 -1.0681 -1.4917
 6080TIP3   OH239730   4.388   5.836  11.386  0.0937 -0.2563  0.2912
 6080TIP3    H139731   4.429   5.784  11.456  0.1374  1.3583  1.5249
 6080TIP3    H239732   4.459   5.855  11.326  0.2488 -0.9259  0.2501
 6081TIP3   OH239733   0.788   5.586  16.558  0.1303  0.2853  0.0371
 6081TIP3    H139734   0.837   5.581  16.641  0.9122 -0.3542 -0.4447
 6081TIP3    H239735   0.804   5.501  16.517  1.4045  1.3082 -1.6893
 6082TIP3   OH239736   2.746   3.872  11.439  0.2660  0.0091  0.3514
 6082TIP3    H139737   2.691   3.950  11.451  0.0320 -0.1667  0.4291
 6082TIP3    H239738   2.762   3.868  11.345 -0.4009 -0.3083  0.2485
 6083TIP3   OH239739   6.212   2.934  16.598  0.0864 -0.0008 -0.4498
 6083TIP3    H139740   6.246   2.899  16.681 -1.5018 -1.6009 -0.4180
 6083TIP3    H239741   6.238   3.026  16.599  0.1024  0.0260  1.8381
 6084TIP3   OH239742   2.253   5.182   5.965  0.0983 -0.8023  0.4556
 6084TIP3    H139743   2.263   5.142   6.052  0.9876  0.4200  0.9461
 6084TIP3    H239744   2.298   5.266   5.972 -3.0803  1.0948 -0.0392
 6085TIP3   OH239745   0.774   3.361  14.639  0.2899  0.1794 -0.0336
 6085TIP3    H139746   0.803   3.442  14.681 -1.1039  0.4453  0.4618
 6085TIP3    H239747   0.679   3.368  14.637  0.0227 -2.1201  1.4207
 6086TIP3   OH239748   3.216   0.192   0.737 -0.5320  0.1882 -0.1102
 6086TIP3    H139749   3.121   0.182   0.743 -0.5282  0.5499  0.7728
 6086TIP3    H239750   3.241   0.231   0.821  0.5516 -1.1068  0.2074
 6087TIP3   OH239751   2.150   0.134   3.148 -0.2624 -0.5409  0.0772
 6087TIP3    H139752   2.217   0.115   3.213 -0.3148 -0.6869  0.0889
 6087TIP3    H239753   2.190   0.199   3.090 -0.4162  0.0150  0.5827
 6088TIP3   OH239754   4.236   3.095  12.916 -0.4499  0.2630 -0.1035
 6088TIP3    H139755   4.229   3.099  13.011 -1.0569  1.2621 -0.1776
 6088TIP3    H239756   4.329   3.083  12.899 -0.2880  0.4901  0.6031
 6089TIP3   OH239757   0.747   4.394   4.836 -0.1039  0.1916 -0.5059
 6089TIP3    H139758   0.734   4.477   4.791  0.2947  1.8636  2.2270
 6089TIP3    H239759   0.841   4.392   4.856  0.0458 -1.3382 -1.1879
 6090TIP3   OH239760   5.165   5.639  14.263 -0.6382 -0.7922  0.6448
 6090TIP3    H139761   5.190   5.578  14.193 -1.1088  1.7897 -1.9739
 6090TIP3    H239762   5.094   5.595  14.309 -1.2273 -2.0884 -1.3753
 6091TIP3   OH239763   0.114   2.121   1.804 -0.2148  0.3266 -0.3103
 6091TIP3    H139764   0.091   2.043   1.855  0.2757  0.5328  0.2333
 6091TIP3    H239765   0.072   2.107   1.719  1.2219 -1.3235 -0.8179
 6092TIP3   OH239766   5.333   6.213  16.365 -0.0946 -0.4521  0.4171
 6092TIP3    H139767   5.348   6.292  16.418 -1.2874 -0.9235  1.5407
 6092TIP3    H239768   5.313   6.145  16.430 -1.3907 -1.1137 -0.6167
 6093TIP3   OH239769   1.836   2.772  10.805  0.5075 -0.2879  0.1130
 6093TIP3    H139770   1.902   2.755  10.738 -1.3446 -2.9470 -1.2417
 6093TIP3    H239771   1.829   2.688  10.852 -0.8608  0.3943  1.1703
 6094TIP3   OH239772   3.957   5.804  17.200 -0.4276 -0.5774 -0.3421
 6094TIP3    H139773   3.889   5.741  17.175  1.2587 -3.2633  1.2552
 6094TIP3    H239774   3.981   5.847  17.118 -1.0895 -2.6797 -1.7317
 6095TIP3   OH239775   6.269   6.773  11.989  0.2018  0.5546  0.0414
 6095TIP3    H139776   6.189   6.720  11.983  0.3892  0.3038 -0.2683
 6095TIP3    H239777   6.323   6.744  11.916  1.4688 -0.7448  1.4387
 6096TIP3   OH239778   2.187   3.902   2.097  0.3642 -0.8702  0.2182
 6096TIP3    H139779   2.104   3.901   2.145  0.7052  0.0857  0.8681
 6096TIP3    H239780   2.191   3.817   2.054 -0.5662 -1.2472  0.8397
 6097TIP3   OH239781   1.641   3.469  16.085 -0.5055 -0.1713 -0.0091
 6097TIP3    H139782   1.702   3.512  16.143 -0.0360 -0.0649 -0.5715
 6097TIP3    H239783   1.693   3.401  16.041 -0.5375  0.5429 -1.1912
 6098TIP3   OH239784   4.394   1.963  15.530 -0.1789  0.0563  0.4052
 6098TIP3    H139785   4.361   1.873  15.525 -1.4592  0.5496 -0.6795
 6098TIP3    H239786   4.344   2.003  15.602 -0.5995  0.2761 -0.0057
 6099TIP3   OH239787   0.224   0.999  14.681  0.7943 -0.2553  0.4697
 6099TIP3    H139788   0.140   0.970  14.718  1.3769 -1.2307  1.0643
 6099TIP3    H239789   0.215   1.094  14.673 -0.8888 -0.4732 -0.8127
 6100TIP3   OH239790   5.094   2.414   3.799  0.4466  0.2613 -0.2767
 6100TIP3    H139791   5.189   2.410   3.783  0.6252  0.5884  0.6441
 6100TIP3    H239792   5.074   2.330   3.840  0.5248  0.5949  0.4524
 6101TIP3   OH239793   2.361   2.889  14.836 -0.4247 -0.3149  0.0861
 6101TIP3    H139794   2.324   2.804  14.811  0.0552 -1.2812  2.3369
 6101TIP3    H239795   2.378   2.880  14.930  2.0725  1.3413 -0.1025
 6102TIP3   OH239796   5.616   6.737  16.765 -0.8215  0.1621  0.2980
 6102TIP3    H139797   5.611   6.662  16.824 -1.2991 -0.5224 -0.5943
 6102TIP3    H239798   5.666   6.802  16.814 -3.4127  0.6378  2.5910
 6103TIP3   OH239799   6.258   2.881  17.205  0.0992  0.2858 -0.4873
 6103TIP3    H139800   6.259   2.833  17.123  0.2431  0.8739 -0.8329
 6103TIP3    H239801   6.282   2.816  17.271  2.5439  0.3682 -1.1984
 6104TIP3   OH239802   1.523   3.888   2.633 -0.0063  0.0086  0.0330
 6104TIP3    H139803   1.507   3.982   2.627 -1.7808 -0.3593 -2.1086
 6104TIP3    H239804   1.438   3.847   2.615  1.1218 -2.0182 -1.1009
 6105TIP3   OH239805   0.537   4.558  13.578  0.0629 -0.3122  0.1124
 6105TIP3    H139806   0.546   4.535  13.671 -1.7554  1.3459  0.7490
 6105TIP3    H239807   0.578   4.644  13.571  1.5799 -1.0668 -1.0167
 6106TIP3   OH239808   6.077   1.419   0.328 -0.1881  0.1475  0.0327
 6106TIP3    H139809   6.131   1.465   0.264 -0.7484 -0.6540 -1.0495
 6106TIP3    H239810   6.113   1.445   0.413  1.2357  0.4268 -0.6245
 6107TIP3   OH239811   6.329   2.320  15.874 -0.0067  0.3504 -0.1330
 6107TIP3    H139812   6.386   2.396  15.886 -0.4682  0.6085  0.5349
 6107TIP3    H239813   6.255   2.337  15.932 -0.4753 -0.2611 -0.5388
 6108TIP3   OH239814   1.509   0.835   2.004  0.2943  0.1701 -0.3080
 6108TIP3    H139815   1.442   0.902   2.016  0.0031 -0.1735 -0.0131
 6108TIP3    H239816   1.503   0.781   2.082  0.4328 -0.2861 -0.6125
 6109TIP3   OH239817   5.982   1.195   1.910  0.1483  0.4125 -0.0941
 6109TIP3    H139818   5.891   1.181   1.935 -0.3868  1.5585 -1.2612
 6109TIP3    H239819   5.980   1.201   1.814  1.3659  1.0481 -0.1015
 6110TIP3   OH239820   4.115   0.153   1.947 -0.1338 -0.0086 -0.2298
 6110TIP3    H139821   4.020   0.159   1.934 -0.2385 -0.8101  0.1276
 6110TIP3    H239822   4.128   0.176   2.039 -0.1696 -1.5790  0.1834
 6111TIP3   OH239823   3.072   2.280  12.397 -0.5625  0.1270 -0.0249
 6111TIP3    H139824   3.080   2.324  12.313 -1.9163  0.4757  0.0025
 6111TIP3    H239825   3.141   2.214  12.396 -1.1587 -0.5410 -1.8283
 6112TIP3   OH239826   0.495   4.345   2.544  0.3361  0.3250 -0.4590
 6112TIP3    H139827   0.438   4.405   2.592  2.9262  1.3259  1.6347
 6112TIP3    H239828   0.450   4.261   2.547 -0.0505  0.5080  3.2157
 6113TIP3   OH239829   4.418   5.496  11.793  0.8430 -0.9756  0.2235
 6113TIP3    H139830   4.474   5.473  11.868  0.0601 -0.0079  1.1300
 6113TIP3    H239831   4.397   5.411  11.753  1.2223 -1.5232  1.1376
 6114TIP3   OH239832   6.586   2.983   2.725 -1.1435  0.1259  0.0723
 6114TIP3    H139833   6.508   2.930   2.713 -0.6409 -0.5107 -0.4271
 6114TIP3    H239834   6.589   3.040   2.648  0.1727 -1.5258 -1.1683
 6115TIP3   OH239835   2.717   1.201   3.643 -0.6636 -0.5856 -0.2802
 6115TIP3    H139836   2.643   1.214   3.702  0.0771 -0.4227  0.6335
 6115TIP3    H239837   2.678   1.200   3.555 -1.5080  1.5173  0.0167
 6116TIP3   OH239838   5.974   4.818   2.498 -0.2070 -0.5197 -0.3512
 6116TIP3    H139839   5.982   4.724   2.516 -2.0428 -0.9024 -1.3134
 6116TIP3    H239840   5.909   4.824   2.428 -0.3382  1.4986 -0.1215
 6117TIP3   OH239841   4.303   6.775   1.873  0.4973  0.0475  0.1515
 6117TIP3    H139842   4.214   6.765   1.907 -0.1405 -1.2892 -1.7566
 6117TIP3    H239843   4.305   6.864   1.838 -0.5480 -0.3018 -0.8948
 6118TIP3   OH239844   6.495   5.596  13.521  0.0831  0.4916 -0.5758
 6118TIP3    H139845   6.574   5.562  13.562 -0.1286  0.0165 -0.5526
 6118TIP3    H239846   6.523   5.676  13.478  0.4078  0.7653  0.1188
 6119TIP3   OH239847   3.772   3.144   4.747 -0.3542 -0.2483 -0.5308
 6119TIP3    H139848   3.705   3.141   4.679 -1.0096  2.5624 -0.1104
 6119TIP3    H239849   3.806   3.233   4.743 -1.3211  0.5050  3.5869
 6120TIP3   OH239850   1.940   6.806  15.596 -0.7885 -0.0702  0.0934
 6120TIP3    H139851   2.000   6.836  15.528 -2.1823  0.8537 -0.7749
 6120TIP3    H239852   1.888   6.884  15.618 -2.4141 -1.0763 -0.0003
 6121TIP3   OH239853   5.879   1.433  17.212  0.1336 -0.2202  0.1958
 6121TIP3    H139854   5.849   1.506  17.156 -0.4164 -0.6462 -0.0740
 6121TIP3    H239855   5.890   1.473  17.298 -1.3639 -0.0672  0.3457
 6122TIP3   OH239856   3.878   2.595  12.626 -0.5387  0.0854  1.0562
 6122TIP3    H139857   3.845   2.663  12.684 -0.0846 -0.2454  1.7178
 6122TIP3    H239858   3.903   2.642  12.546 -3.2635  0.2446  0.2009
 6123TIP3   OH239859   2.473   2.505  15.197  0.0756  0.1244 -0.3996
 6123TIP3    H139860   2.532   2.439  15.160  0.4122  0.7050 -0.9222
 6123TIP3    H239861   2.514   2.588  15.174  0.4233  0.5210  1.4775
 6124TIP3   OH239862   5.230   5.169   1.261  0.1451 -0.2308  0.5217
 6124TIP3    H139863   5.200   5.079   1.272 -0.9182  0.1230  0.6293
 6124TIP3    H239864   5.285   5.185   1.336  3.1766 -1.8743 -1.1589
 6125TIP3   OH239865   2.746   4.377  15.977 -0.1401  0.0227  0.1665
 6125TIP3    H139866   2.700   4.438  15.919  0.7337  0.1807 -0.3770
 6125TIP3    H239867   2.828   4.422  15.998  0.4903 -0.9327 -0.1899
 6126TIP3   OH239868   1.573   1.810  13.320 -0.2709 -0.1954  0.4835
 6126TIP3    H139869   1.558   1.793  13.413  0.1804 -0.4077  0.5208
 6126TIP3    H239870   1.656   1.858  13.317 -0.2377 -0.2688  0.1847
 6127TIP3   OH239871   6.156   6.103  15.424  0.0371  0.0108 -0.3246
 6127TIP3    H139872   6.104   6.169  15.379  0.4980 -0.2365 -1.2370
 6127TIP3    H239873   6.204   6.152  15.491  0.9550  0.7480 -1.4851
 6128TIP3   OH239874   5.420   0.363   0.100 -0.2656 -0.0096 -0.1162
 6128TIP3    H139875   5.364   0.289   0.126 -1.0990  0.6899  0.1195
 6128TIP3    H239876   5.475   0.379   0.177 -1.2189  0.6480  0.4547
 6129TIP3   OH239877   5.151   3.758   5.754 -0.2231 -0.0007 -0.1867
 6129TIP3    H139878   5.081   3.823   5.759  0.3688  0.5742  1.1547
 6129TIP3    H239879   5.179   3.759   5.663  0.0181  1.9005 -0.1122
 6130TIP3   OH239880   1.664   1.764  16.595 -0.9624  0.7460  0.5006
 6130TIP3    H139881   1.748   1.724  16.572 -0.5229  0.5702  2.2823
 6130TIP3    H239882   1.611   1.755  16.516 -0.2407 -1.6370  0.2066
 6131TIP3   OH239883   1.332   2.706  11.593  0.0698 -0.2185  0.1394
 6131TIP3    H139884   1.237   2.714  11.590  0.0659  0.6766  1.7343
 6131TIP3    H239885   1.357   2.691  11.502 -1.6050 -0.7395 -0.2721
 6132TIP3   OH239886   4.798   5.945  13.126  0.4186 -0.5727  0.0999
 6132TIP3    H139887   4.817   5.868  13.072 -0.8695 -0.4635 -0.5652
 6132TIP3    H239888   4.831   5.923  13.212  2.5521 -0.7518 -0.6994
 6133TIP3   OH239889   5.790   0.855  13.791 -0.5040  0.3463  0.2739
 6133TIP3    H139890   5.814   0.860  13.884  1.5713  0.8757 -0.2428
 6133TIP3    H239891   5.865   0.891  13.745 -1.3108 -0.3239 -1.6604
 6134TIP3   OH239892   5.058   0.986  14.849 -0.1704 -0.2016 -0.4039
 6134TIP3    H139893   5.062   0.891  14.859  2.0663 -0.1690 -0.6546
 6134TIP3    H239894   5.082   1.021  14.935 -0.2482  0.1460 -0.5178
 6135TIP3   OH239895   6.150   5.759  12.936 -0.1668  0.3168 -0.0651
 6135TIP3    H139896   6.182   5.782  12.848 -1.2462  1.7963 -0.1060
 6135TIP3    H239897   6.055   5.750  12.925 -0.2206 -0.2852  0.8088
 6136TIP3   OH239898   4.772   3.837  15.731 -0.4081 -0.1881 -0.0655
 6136TIP3    H139899   4.828   3.915  15.734 -1.6860  0.7523  0.4450
 6136TIP3    H239900   4.683   3.872  15.726 -1.1035 -1.6069  1.5489
 6137TIP3   OH239901   1.124   4.854   1.547  0.5436  0.1260 -0.5976
 6137TIP3    H139902   1.148   4.868   1.455 -0.5511 -0.2917 -0.9701
 6137TIP3    H239903   1.130   4.940   1.587  1.3741  0.2522 -0.9732
 6138TIP3   OH239904   2.220   3.627   4.508 -0.3053 -0.3734 -0.0082
 6138TIP3    H139905   2.230   3.665   4.595 -2.8120  0.3465  0.0464
 6138TIP3    H239906   2.219   3.533   4.523 -1.5466 -0.2372  0.8862
 6139TIP3   OH239907   0.696   3.709  12.828 -0.0245  0.0789  0.2721
 6139TIP3    H139908   0.714   3.687  12.920  0.3560  0.7781  0.3722
 6139TIP3    H239909   0.775   3.755  12.798 -0.7588  1.2454  0.0656
 6140TIP3   OH239910   1.471   1.804   5.909  0.0583 -0.1886 -0.0898
 6140TIP3    H139911   1.522   1.874   5.868 -0.0444  0.7573  1.3254
 6140TIP3    H239912   1.516   1.787   5.991  0.7022 -2.5800 -0.8510
 6141TIP3   OH239913   2.877   1.520   5.629 -0.8054 -0.1869 -0.2778
 6141TIP3    H139914   2.832   1.483   5.704  1.1005  1.1264  1.6319
 6141TIP3    H239915   2.868   1.454   5.560 -1.0921 -2.2565  1.6436
 6142TIP3   OH239916   2.186   2.883   1.497  0.2021  0.0494  0.2780
 6142TIP3    H139917   2.145   2.803   1.530 -0.0519 -0.2595 -0.7411
 6142TIP3    H239918   2.280   2.868   1.510  0.1346 -0.2551  0.4383
 6143TIP3   OH239919   0.813   0.008   2.583 -0.0887  0.0466 -0.5633
 6143TIP3    H139920   0.898  -0.025   2.555  0.0461 -0.1834  0.0899
 6143TIP3    H239921   0.779   0.055   2.508 -0.2762 -1.5571 -1.5407
 6144TIP3   OH239922   1.311   3.445  14.378 -0.1796 -0.2072 -0.0336
 6144TIP3    H139923   1.270   3.472  14.460  0.2741 -1.1407  0.5199
 6144TIP3    H239924   1.391   3.401  14.405  1.3737  1.7940 -1.0858
 6145TIP3   OH239925   1.322   4.042  15.562 -0.4575  0.1317  0.5508
 6145TIP3    H139926   1.406   4.040  15.608 -0.8344 -0.4742  1.2350
 6145TIP3    H239927   1.345   4.048  15.470  0.3560 -0.5151  0.6998
 6146TIP3   OH239928   6.389   0.102  16.680 -0.2146  0.0618  0.2961
 6146TIP3    H139929   6.402   0.142  16.766  1.4139 -1.6243  0.9040
 6146TIP3    H239930   6.356   0.014  16.700  0.7784 -0.5685 -0.7573
 6147TIP3   OH239931   5.445   4.243  11.473 -0.4242 -0.0530  0.1376
 6147TIP3    H139932   5.502   4.208  11.542 -0.2598 -0.0535  0.0031
 6147TIP3    H239933   5.472   4.195  11.394 -0.6609 -0.1034  0.0877
 6148TIP3   OH239934   2.055   1.743   5.489  0.2663  0.6384 -0.5526
 6148TIP3    H139935   1.974   1.745   5.437  1.6246  0.5296 -2.7873
 6148TIP3    H239936   2.065   1.651   5.513  0.0311  0.5568 -0.7588
 6149TIP3   OH239937   5.937   0.877  15.217 -0.1088 -0.0040 -0.1595
 6149TIP3    H139938   5.890   0.848  15.295  0.3142  0.1319  0.1460
 6149TIP3    H239939   5.869   0.917  15.162 -0.5232 -0.6707 -0.1524
 6150TIP3   OH239940   1.804   2.311  16.815  0.2743  0.4989 -0.1801
 6150TIP3    H139941   1.723   2.309  16.764  0.9205  0.2522 -1.2460
 6150TIP3    H239942   1.799   2.393  16.865 -0.1803  1.0071 -1.0259
 6151TIP3   OH239943   3.227   2.627  12.541  0.0468  0.3990 -0.4126
 6151TIP3    H139944   3.251   2.535  12.535  1.7585  0.9068 -2.2713
 6151TIP3    H239945   3.251   2.652  12.631 -0.1024 -0.8531 -0.0010
 6152TIP3   OH239946   0.917   4.781  15.730  0.0048 -0.5578 -0.1942
 6152TIP3    H139947   0.852   4.728  15.683 -1.0312 -0.4262  1.0322
 6152TIP3    H239948   0.893   4.871  15.711 -0.0292 -0.5096  0.0802
 6153TIP3   OH239949   4.370   1.346   3.905  0.2751  0.2020  0.1381
 6153TIP3    H139950   4.286   1.391   3.911 -0.2417 -0.6910 -0.0886
 6153TIP3    H239951   4.380   1.304   3.991 -1.0644 -2.2560 -0.7727
 6154TIP3   OH239952   5.942   5.219   4.944  0.1450  0.7214  0.1364
 6154TIP3    H139953   5.897   5.137   4.924  0.5709  0.7585 -1.0782
 6154TIP3    H239954   5.988   5.202   5.026  0.5811 -0.3937 -0.3296
 6155TIP3   OH239955   0.289   6.684   1.961 -0.7736 -0.0387 -0.0916
 6155TIP3    H139956   0.290   6.768   1.915 -0.9641 -0.4335 -0.8376
 6155TIP3    H239957   0.335   6.624   1.901  2.1924  0.1854  1.7386
 6156TIP3   OH239958   2.428   4.781   2.243 -0.1150 -0.0817  0.1532
 6156TIP3    H139959   2.518   4.814   2.239  0.3108 -1.2229 -0.2352
 6156TIP3    H239960   2.386   4.817   2.165  0.0639  0.2883  0.2242
 6157TIP3   OH239961   5.265   6.156   6.060  0.1636 -0.2922  0.0948
 6157TIP3    H139962   5.277   6.234   6.005 -1.3956 -0.2089 -0.1807
 6157TIP3    H239963   5.286   6.186   6.148  0.3991  0.2065 -0.1258
 6158TIP3   OH239964   5.950   4.149   0.661  0.1967  0.6472  0.1069
 6158TIP3    H139965   5.943   4.240   0.687  0.5943  0.3740  1.2243
 6158TIP3    H239966   6.034   4.143   0.615  1.2022  0.4452  1.8825
 6159TIP3   OH239967   4.617   5.820  11.776  0.3173 -0.5526  0.0577
 6159TIP3    H139968   4.580   5.767  11.705 -4.3083  2.4774 -0.2896
 6159TIP3    H239969   4.561   5.801  11.851  0.7013  1.2515  0.8563
 6160TIP3   OH239970   4.122   1.492   3.901  0.1792  0.0925  0.2415
 6160TIP3    H139971   4.061   1.514   3.830 -1.8262 -1.3462  1.3837
 6160TIP3    H239972   4.095   1.548   3.974  1.2058  0.4638  0.3456
 6161TIP3   OH239973   3.435   3.687   5.345 -0.4763  0.4489 -0.3561
 6161TIP3    H139974   3.467   3.695   5.435  1.1230  1.4946 -0.9690
 6161TIP3    H239975   3.459   3.597   5.320  0.1302  0.5319 -0.1039
 6162TIP3   OH239976   3.070   0.785  13.651  0.4298 -0.2109  0.5057
 6162TIP3    H139977   3.105   0.724  13.587  1.0132 -0.4461  1.0269
 6162TIP3    H239978   2.986   0.813  13.616  1.3595  0.7628 -1.0634
 6163TIP3   OH239979   6.500   3.760  13.027 -0.3515 -0.0127 -0.3715
 6163TIP3    H139980   6.518   3.705  13.103  1.0650  1.1632  0.1890
 6163TIP3    H239981   6.579   3.754  12.973 -1.6607 -1.5318 -2.2588
 6164TIP3   OH239982   2.276   3.662   4.878  0.1827 -0.5828 -0.2454
 6164TIP3    H139983   2.265   3.668   4.973 -0.2489 -0.8729 -0.2719
 6164TIP3    H239984   2.231   3.580   4.854  0.5679 -0.6802 -0.6559
 6165TIP3   OH239985   3.833   5.925   2.432 -0.2569  0.3676 -0.1176
 6165TIP3    H139986   3.794   5.858   2.489  0.5698  0.6562  0.8131
 6165TIP3    H239987   3.788   5.915   2.348 -0.5931 -0.9218  0.2041
 6166TIP3   OH239988   3.509   4.063  16.259  0.0909 -0.1309 -0.5197
 6166TIP3    H139989   3.467   4.019  16.332  0.5959 -0.9382 -0.7055
 6166TIP3    H239990   3.450   4.052  16.186 -0.3579  0.5728 -0.2765
 6167TIP3   OH239991   2.123   4.314  13.632  0.2097 -0.4535 -0.2276
 6167TIP3    H139992   2.209   4.354  13.648 -0.4996  1.4121 -0.8478
 6167TIP3    H239993   2.117   4.309  13.536  0.1949 -1.9577 -0.1760
 6168TIP3   OH239994   2.554   5.094  12.427  0.0349  0.2331 -0.0716
 6168TIP3    H139995   2.614   5.022  12.445 -0.2559  0.1288  0.5167
 6168TIP3    H239996   2.599   5.172  12.459  0.5639  0.3958 -1.1629
 6169TIP3   OH239997   6.289   6.627  10.385 -0.1264 -0.1263 -0.2993
 6169TIP3    H139998   6.379   6.596  10.369 -0.0435 -0.0247 -0.0338
 6169TIP3    H239999   6.249   6.560  10.439 -0.2914 -0.2918 -0.6245
 6170TIP3   OH240000   3.872   4.722   4.992  0.7365  0.1780  0.0702
 6170TIP3    H140001   3.871   4.695   5.084  1.5830  0.2592  0.1171
 6170TIP3    H240002   3.829   4.807   4.991 -0.8930 -0.6076  0.1039
 6171TIP3   OH240003   0.834   0.048  11.750 -0.0065 -0.2088 -0.2137
 6171TIP3    H140004   0.888   0.073  11.676  2.9281 -0.5913  1.6273
 6171TIP3    H240005   0.894   0.003  11.810 -2.2160 -0.0571  2.3308
 6172TIP3   OH240006   4.537   0.458  13.570  0.6635  0.0336 -0.5077
 6172TIP3    H140007   4.584   0.498  13.496 -0.3423  1.3024 -0.5043
 6172TIP3    H240008   4.537   0.526  13.637 -1.9246  0.4581 -0.8495
 6173TIP3   OH240009   0.816   2.815   2.743 -0.2864 -0.0311 -0.4857
 6173TIP3    H140010   0.870   2.754   2.693 -1.4526 -0.6120 -1.0875
 6173TIP3    H240011   0.726   2.792   2.720 -1.0342 -1.6487  3.3359
 6174TIP3   OH240012   0.162   0.589   5.191  0.1254 -0.3664 -0.1080
 6174TIP3    H140013   0.203   0.545   5.116 -1.0524  0.4586 -1.2928
 6174TIP3    H240014   0.216   0.667   5.205 -0.1916 -0.0192 -0.7475
 6175TIP3   OH240015   2.629   3.704  11.169 -0.0570  0.2682 -0.4768
 6175TIP3    H140016   2.580   3.778  11.206 -0.5792 -0.6625  0.7626
 6175TIP3    H240017   2.568   3.630  11.174  1.3069 -0.8320  0.7547
 6176TIP3   OH240018   1.268   0.668  10.658  0.0575 -0.0023 -0.4332
 6176TIP3    H140019   1.206   0.623  10.715 -1.4685  2.8186  0.3212
 6176TIP3    H240020   1.351   0.665  10.705 -0.8004  0.8709  1.2176
 6177TIP3   OH240021   4.361   6.294   3.745  0.4324  0.5018 -0.2901
 6177TIP3    H140022   4.278   6.274   3.788  0.0496  0.6846 -0.9124
 6177TIP3    H240023   4.343   6.375   3.697  1.2195  0.9880  0.2281
 6178TIP3   OH240024   4.835   6.188  15.973 -0.2098 -0.0518 -0.5205
 6178TIP3    H140025   4.854   6.106  15.927 -0.6957 -0.4807  0.0273
 6178TIP3    H240026   4.780   6.237  15.913 -0.7104 -0.5426 -0.4711
 6179TIP3   OH240027   2.851   2.535  12.969  0.6741 -0.4187  0.0425
 6179TIP3    H140028   2.901   2.519  13.049 -0.6997 -0.5105  0.9185
 6179TIP3    H240029   2.877   2.622  12.942 -0.2475  0.4306  1.7102
 6180TIP3   OH240030   2.622   2.511   4.298  0.3217  0.2001  0.5559
 6180TIP3    H140031   2.603   2.438   4.357 -0.0779 -1.2059 -1.2407
 6180TIP3    H240032   2.698   2.554   4.338  0.6715 -1.2740  1.5851
 6181TIP3   OH240033   2.892   1.358   3.956  0.1664 -0.2720  0.0066
 6181TIP3    H140034   2.922   1.345   3.866  1.3038 -0.3757  0.3830
 6181TIP3    H240035   2.955   1.309   4.009 -0.3495 -0.0105  0.8723
 6182TIP3   OH240036   5.360   0.750   4.831  0.6403  0.4089  0.2564
 6182TIP3    H140037   5.434   0.811   4.842  1.3897 -0.0606 -1.7925
 6182TIP3    H240038   5.284   0.800   4.859  1.4246  1.7952  0.0224
 6183TIP3   OH240039   3.725   3.571   4.196 -0.1424  0.2311  0.6781
 6183TIP3    H140040   3.679   3.655   4.187  1.4089  1.1583  1.0528
 6183TIP3    H240041   3.805   3.582   4.145 -0.3576 -1.3951 -0.0596
 6184TIP3   OH240042   2.742   0.463   2.085  0.4851  0.0074 -0.3812
 6184TIP3    H140043   2.816   0.471   2.025  1.2971  0.2159  0.6253
 6184TIP3    H240044   2.763   0.388   2.140  1.9306  2.3448  2.5167
 6185TIP3   OH240045   1.754   0.265   2.534 -0.2017  0.1686 -0.6571
 6185TIP3    H140046   1.662   0.257   2.562 -0.0989 -0.7761 -0.5666
 6185TIP3    H240047   1.800   0.198   2.585  0.3099 -0.2677 -1.6717
 6186TIP3   OH240048   2.030   0.432   0.125  0.0024 -0.2414  0.3834
 6186TIP3    H140049   1.942   0.429   0.163 -0.6641 -0.2960 -1.1043
 6186TIP3    H240050   2.086   0.456   0.199 -1.1704 -0.7591  1.4927
 6187TIP3   OH240051   4.204   3.966  11.433 -0.3721 -0.2908  0.4674
 6187TIP3    H140052   4.283   3.946  11.383  0.6004  1.1350  1.3839
 6187TIP3    H240053   4.160   3.881  11.442  1.7253 -1.3786  1.0701
 6188TIP3   OH240054   3.508   5.545   1.334 -0.1900 -0.6683  0.4015
 6188TIP3    H140055   3.568   5.530   1.261 -1.7468  1.7319 -1.5371
 6188TIP3    H240056   3.548   5.617   1.384 -0.2280 -0.7631  0.5686
 6189TIP3   OH240057   2.845   1.056  12.140  0.9824 -0.2273 -0.0676
 6189TIP3    H140058   2.756   1.056  12.103  0.6435  1.3017  0.6743
 6189TIP3    H240059   2.837   1.104  12.222  2.6636  0.7480 -0.4230
 6190TIP3   OH240060   3.159   5.746  13.900  0.2128 -0.3329  0.1581
 6190TIP3    H140061   3.214   5.807  13.949  0.9992 -0.0827 -0.9961
 6190TIP3    H240062   3.210   5.665  13.895  1.2706  0.3857 -2.2854
 6191TIP3   OH240063   1.972   2.465  14.296 -0.6922 -0.3325 -0.1107
 6191TIP3    H140064   1.959   2.373  14.316 -1.6154 -0.3156 -0.5515
 6191TIP3    H240065   2.058   2.469  14.254 -1.3200 -1.2568 -1.5821
 6192TIP3   OH240066   4.829   1.145  16.257  0.1679  0.7105 -0.0032
 6192TIP3    H140067   4.743   1.108  16.236 -0.2172  1.3685  0.3423
 6192TIP3    H240068   4.878   1.141  16.176 -0.4241  0.9320 -0.3788
 6193TIP3   OH240069   6.648   4.204   4.979  0.4093  0.2746 -0.3217
 6193TIP3    H140070   6.559   4.184   5.009  0.5043  1.8263  1.1616
 6193TIP3    H240071   6.704   4.153   5.036  0.4976 -1.2661 -1.7276
 6194TIP3   OH240072   5.639   4.240  15.783 -0.9118 -0.1217  0.3195
 6194TIP3    H140073   5.700   4.167  15.794  1.1939  1.2240 -1.4150
 6194TIP3    H240074   5.599   4.225  15.697 -1.9688 -0.2351  0.8194
 6195TIP3   OH240075   5.815   4.300  15.283  0.1716  0.2338 -0.5138
 6195TIP3    H140076   5.751   4.230  15.271  0.6081 -0.1451 -0.6318
 6195TIP3    H240077   5.771   4.362  15.343 -0.6586  0.4292 -1.2995
 6196TIP3   OH240078   6.021   3.350  15.020 -0.2326  0.5069 -0.5069
 6196TIP3    H140079   6.110   3.375  15.044  0.1868  0.9907 -2.4099
 6196TIP3    H240080   5.989   3.424  14.967 -0.6662 -0.8869 -2.2928
 6197TIP3   OH240081   0.187   5.675   3.009  0.0519  0.0169 -0.2169
 6197TIP3    H140082   0.123   5.663   3.079 -0.8230 -0.2067 -1.0289
 6197TIP3    H240083   0.248   5.601   3.019 -0.2113 -0.1508  0.1514
 6198TIP3   OH240084   6.717   2.490   3.088  0.5352 -0.4810  0.3278
 6198TIP3    H140085   6.683   2.402   3.102  1.1977 -0.9558 -0.9316
 6198TIP3    H240086   6.642   2.539   3.053  0.5289 -0.9036 -0.2513
 6199TIP3   OH240087   5.908   6.785  13.626  0.2601  0.4840 -1.1167
 6199TIP3    H140088   5.898   6.715  13.690  0.0349  1.0816 -0.4761
 6199TIP3    H240089   6.002   6.794  13.614  0.3350  0.8395 -0.3199
 6200TIP3   OH240090   4.283   1.878   4.954 -0.1753  0.3781 -0.2034
 6200TIP3    H140091   4.261   1.922   4.871  0.8432  0.2506 -0.5589
 6200TIP3    H240092   4.206   1.826   4.975 -0.6276  0.7758 -0.8294
 6201TIP3   OH240093   6.375   6.627  12.827 -0.1843 -0.2666  0.0798
 6201TIP3    H140094   6.350   6.542  12.864  0.4081 -1.5336 -2.2175
 6201TIP3    H240095   6.298   6.682  12.839 -0.3990 -0.9418  2.0896
 6202TIP3   OH240096   0.555   0.790  15.557 -0.0591 -0.6148 -0.2321
 6202TIP3    H140097   0.473   0.836  15.540 -1.7285 -3.3389 -0.1203
 6202TIP3    H240098   0.600   0.789  15.473  0.6905  2.2440  0.0436
 6203TIP3   OH240099   4.161   1.039  12.934 -0.5299  0.1404  0.0194
 6203TIP3    H140100   4.249   1.074  12.921 -0.8918  1.1465  0.1658
 6203TIP3    H240101   4.122   1.039  12.847  0.1574 -1.9029 -0.3380
 6204TIP3   OH240102   6.637   1.060  12.972  0.2394 -0.9305  0.2897
 6204TIP3    H140103   6.631   0.972  12.934  0.7099  0.1124 -2.3896
 6204TIP3    H240104   6.725   1.090  12.949 -0.4460  0.8033 -0.2406
 6205TIP3   OH240105   4.727   6.107  12.256  0.0130 -0.4245 -0.0503
 6205TIP3    H140106   4.771   6.153  12.185  0.5340  0.5046  0.8531
 6205TIP3    H240107   4.634   6.106  12.231  0.2401 -0.4178 -0.8931
 6206TIP3   OH240108   1.376   4.656  16.383 -0.0628  0.8934  0.1293
 6206TIP3    H140109   1.424   4.703  16.314 -0.7670  1.5792  0.0981
 6206TIP3    H240110   1.297   4.709  16.397 -1.5046 -0.9184 -0.7671
 6207TIP3   OH240111   4.527   2.530  11.605  0.0369 -0.1963  0.2398
 6207TIP3    H140112   4.534   2.625  11.613  0.3533 -0.1599 -0.3964
 6207TIP3    H240113   4.538   2.513  11.511 -0.2414 -0.8406  0.3170
 6208TIP3   OH240114   0.605   2.160   0.725  0.2571  0.0091  0.0649
 6208TIP3    H140115   0.559   2.155   0.641 -0.3076 -0.9446  0.4161
 6208TIP3    H240116   0.535   2.161   0.790  0.7044 -2.2735  0.6430
 6209TIP3   OH240117   3.765   0.586   3.646  0.1386  0.0042  0.2913
 6209TIP3    H140118   3.715   0.508   3.623  0.9988  0.1061 -2.2432
 6209TIP3    H240119   3.842   0.554   3.691  0.0975 -0.5488 -0.0294
 6210TIP3   OH240120   6.105   3.717   3.190  0.0732  0.1521 -0.0590
 6210TIP3    H140121   6.148   3.787   3.237 -1.8006  1.6362 -0.4344
 6210TIP3    H240122   6.145   3.719   3.103  0.2056  0.5956  0.0089
 6211TIP3   OH240123   4.718   3.795   0.875  0.2421 -0.6983 -0.2322
 6211TIP3    H140124   4.692   3.864   0.935 -0.9644 -0.4982 -0.9676
 6211TIP3    H240125   4.703   3.714   0.924  0.2810 -0.5003  0.1090
 6212TIP3   OH240126   4.078   1.874  12.922 -0.2714 -0.3913 -0.1834
 6212TIP3    H140127   4.113   1.963  12.917 -1.8873  0.3650  0.9628
 6212TIP3    H240128   4.155   1.818  12.915  1.3145  1.1708  2.6666
 6213TIP3   OH240129   5.738   2.689   4.736  0.0485  0.1947  0.6319
 6213TIP3    H140130   5.725   2.761   4.673 -0.2454  0.4151  0.9413
 6213TIP3    H240131   5.659   2.691   4.791 -0.3946 -0.9524  0.0695
 6214TIP3   OH240132   5.000   4.921   5.929 -0.5922  0.2732  0.8662
 6214TIP3    H140133   5.038   4.839   5.962  0.2596  0.1469 -0.3393
 6214TIP3    H240134   4.906   4.904   5.924 -0.3087 -1.1798 -0.6784
 6215TIP3   OH240135   3.709   4.418   5.977 -0.2873 -0.3133 -0.0725
 6215TIP3    H140136   3.753   4.366   5.911 -1.3940 -1.0503 -0.2578
 6215TIP3    H240137   3.708   4.363   6.055  1.4322  0.7359  0.7343
 6216TIP3   OH240138   0.567   5.156  14.175 -0.9685 -0.6591 -0.3873
 6216TIP3    H140139   0.650   5.194  14.204 -1.8274  0.2402  0.9811
 6216TIP3    H240140   0.593   5.086  14.116  0.7340  0.6848 -1.3457
 6217TIP3   OH240141   5.196   2.411  15.603  0.7254  0.3750  0.0815
 6217TIP3    H140142   5.168   2.502  15.611  2.8508  1.0213  0.8057
 6217TIP3    H240143   5.286   2.416  15.571  0.4681 -1.5336 -1.0762
 6218TIP3   OH240144   0.498   0.464  14.396  0.2397 -0.0309 -0.9558
 6218TIP3    H140145   0.551   0.416  14.459 -0.6076 -0.2021 -0.3620
 6218TIP3    H240146   0.543   0.548  14.386 -0.3170  0.5266  0.8963
 6219TIP3   OH240147   5.000   6.231   2.622  0.5363 -0.3685 -0.3814
 6219TIP3    H140148   5.033   6.181   2.697 -1.3251  0.1835  0.8852
 6219TIP3    H240149   4.964   6.311   2.661 -1.0981 -0.3861 -1.7616
 6220TIP3   OH240150   1.995   1.179  15.780 -0.4057  0.2171  0.5829
 6220TIP3    H140151   2.039   1.260  15.753 -1.3597  0.6359  0.2327
 6220TIP3    H240152   2.028   1.113  15.719 -0.8794  0.6999 -0.2196
 6221TIP3   OH240153   5.541   1.372   4.622  0.1683  0.0834  0.4314
 6221TIP3    H140154   5.488   1.447   4.648 -1.9243 -0.4546 -1.9664
 6221TIP3    H240155   5.629   1.409   4.609 -0.6804  2.0175 -0.1780
 6222TIP3   OH240156   6.641   2.727  15.471 -0.4365 -0.5761  0.1105
 6222TIP3    H140157   6.598   2.776  15.401 -0.8488 -1.0739  0.0035
 6222TIP3    H240158   6.619   2.775  15.551  1.2515  0.8389 -0.2153
 6223TIP3   OH240159   2.467   2.534  12.494  0.2773 -0.2850  0.4471
 6223TIP3    H140160   2.546   2.555  12.444  0.1018 -1.1824 -0.2449
 6223TIP3    H240161   2.439   2.617  12.532  0.7756  0.3038 -0.4475
 6224TIP3   OH240162   0.059   3.118   5.052  0.4587  0.2229 -0.2020
 6224TIP3    H140163   0.066   3.046   5.116  0.1517  0.1145 -0.2857
 6224TIP3    H240164   0.007   3.081   4.981 -0.3261  0.7563  0.0843
 6225TIP3   OH240165   5.292   3.490   1.637 -0.0340 -0.2817  0.0957
 6225TIP3    H140166   5.337   3.414   1.599 -1.1781 -1.1354  0.3929
 6225TIP3    H240167   5.200   3.465   1.640 -0.6746  1.6942 -1.1331
 6226TIP3   OH240168   1.232   3.611   3.240  0.7113  0.1338 -0.4331
 6226TIP3    H140169   1.264   3.558   3.168 -3.3272 -0.9827 -1.6201
 6226TIP3    H240170   1.182   3.681   3.199 -0.2904  0.4650  1.2362
 6227TIP3   OH240171   6.037   0.754  15.837 -0.5716 -0.0807  0.0679
 6227TIP3    H140172   6.066   0.795  15.756 -0.2123  2.5289  1.4366
 6227TIP3    H240173   6.095   0.678  15.848  1.0234  0.9642 -0.8508
 6228TIP3   OH240174   0.960   2.743  16.093 -0.0695 -0.1297  0.5267
 6228TIP3    H140175   0.898   2.703  16.153 -0.3137  1.2849  1.2596
 6228TIP3    H240176   0.936   2.836  16.091  1.8376  0.4201  0.6464
 6229TIP3   OH240177   3.964   5.769  16.252 -0.3572  0.0288  0.6609
 6229TIP3    H140178   4.033   5.708  16.225 -0.9940 -0.4827  0.1568
 6229TIP3    H240179   4.004   5.821  16.321  0.6617 -0.0093  0.1208
 6230TIP3   OH240180   3.612   5.368  10.709  0.1153  0.3190 -0.1046
 6230TIP3    H140181   3.619   5.332  10.797  0.0249 -0.4707 -0.4115
 6230TIP3    H240182   3.518   5.383  10.696 -0.0234 -0.8996 -0.5784
 6231TIP3   OH240183   1.144   5.096   3.144 -0.1430 -0.0038  0.0315
 6231TIP3    H140184   1.120   5.008   3.172 -0.9698  0.2446  0.1393
 6231TIP3    H240185   1.069   5.150   3.168 -0.3213  0.4564 -1.4489
 6232TIP3   OH240186   4.024   6.246  16.185  0.2669 -0.0963  0.0655
 6232TIP3    H140187   4.014   6.341  16.179 -1.4607 -0.1969  0.8400
 6232TIP3    H240188   4.023   6.216  16.094  0.7891  0.6199 -0.1815
 6233TIP3   OH240189   2.927   2.882   4.132 -0.2248  0.4645  0.6291
 6233TIP3    H140190   3.015   2.884   4.171  0.2182  1.2118 -0.3572
 6233TIP3    H240191   2.908   2.973   4.111 -0.6674  0.1561 -0.3981
 6234TIP3   OH240192   2.113   6.672   0.173 -0.2790  0.3182  0.2395
 6234TIP3    H140193   2.019   6.657   0.184 -0.4992  0.1671 -1.5780
 6234TIP3    H240194   2.124   6.683   0.078  1.3538  1.6087  0.5509
 6235TIP3   OH240195   5.596   0.256   5.529  0.2251  0.4657  0.6243
 6235TIP3    H140196   5.578   0.190   5.597  1.4138 -0.8010 -0.2371
 6235TIP3    H240197   5.516   0.258   5.477 -0.5093  1.0793  1.7208
 6236TIP3   OH240198   0.546   3.663   0.031  0.0565  0.2474 -0.0877
 6236TIP3    H140199   0.565   3.728  -0.036  3.2153  0.4682  0.8384
 6236TIP3    H240200   0.576   3.580  -0.006 -1.5712 -0.2876 -0.2812
 6237TIP3   OH240201   1.959   1.115   3.784 -0.0809  0.1977 -0.3158
 6237TIP3    H140202   1.901   1.041   3.797 -0.9120  0.7853 -0.5724
 6237TIP3    H240203   1.990   1.138   3.871 -2.2546  1.4545  0.2077
 6238TIP3   OH240204   5.917   1.740  13.828  0.4765  0.5664 -0.5261
 6238TIP3    H140205   5.938   1.804  13.760 -1.9387  1.7363 -0.2923
 6238TIP3    H240206   5.990   1.745  13.889  1.6183  1.1251 -1.8729
 6239TIP3   OH240207   0.777   1.013   6.018  0.0235 -0.2769  0.5140
 6239TIP3    H140208   0.698   0.964   6.041  0.3659 -0.8143  0.5684
 6239TIP3    H240209   0.847   0.947   6.016  0.5237  0.2276  0.7321
 6240TIP3   OH240210   5.042   6.106   3.164 -0.3710  0.5916  0.5276
 6240TIP3    H140211   4.985   6.031   3.177  2.1479 -1.1190  2.8165
 6240TIP3    H240212   4.983   6.180   3.151 -2.9723 -1.6576 -1.5182
 6241TIP3   OH240213   1.218   3.041   5.211 -0.4480 -0.2599  0.2627
 6241TIP3    H140214   1.300   3.065   5.253 -0.3680  0.0415 -0.0632
 6241TIP3    H240215   1.234   3.054   5.117 -1.9339  3.3350  0.3299
 6242TIP3   OH240216   3.201   4.168  11.220  0.1065 -0.2089  0.4182
 6242TIP3    H140217   3.157   4.164  11.135 -2.5840  2.6593  1.4584
 6242TIP3    H240218   3.267   4.237  11.210 -0.3156  0.2373  0.6609
 6243TIP3   OH240219   2.332   5.847  13.702  0.4554  0.4679  0.0477
 6243TIP3    H140220   2.401   5.904  13.736  1.2534  0.2243 -1.1204
 6243TIP3    H240221   2.368   5.811  13.621 -1.5500  1.3860 -1.3266
 6244TIP3   OH240222   6.458   5.749  16.591 -0.5366 -0.7956  0.1578
 6244TIP3    H140223   6.459   5.697  16.672  1.9580  1.5771  1.8183
 6244TIP3    H240224   6.525   5.709  16.536  0.8215  0.0967  1.1084
 6245TIP3   OH240225   5.465   1.207  12.593 -0.7461 -0.4424 -0.6020
 6245TIP3    H140226   5.399   1.205  12.662 -0.1896 -2.3406 -0.0456
 6245TIP3    H240227   5.416   1.190  12.512 -1.1447 -0.1537 -0.4265
 6246TIP3   OH240228   5.885   4.557  11.002 -0.3918 -0.0808  0.0943
 6246TIP3    H140229   5.953   4.576  10.937 -1.7999 -0.1937 -1.4800
 6246TIP3    H240230   5.806   4.599  10.967 -1.3572 -0.7520  1.3934
 6247TIP3   OH240231   5.066   2.435   0.212 -0.1775  0.2194 -0.2702
 6247TIP3    H140232   4.982   2.419   0.168  0.6482 -1.3178 -1.3843
 6247TIP3    H240233   5.124   2.368   0.177  1.1522  0.3712  1.5380
 6248TIP3   OH240234   4.918   0.393  14.928  0.3944  1.0059 -0.0452
 6248TIP3    H140235   4.925   0.310  14.880 -0.3853  1.7731 -1.5620
 6248TIP3    H240236   5.008   0.421  14.940  0.6225  0.6374 -0.8079
 6249TIP3   OH240237   0.321   5.050  16.416 -0.1222 -0.2536  0.5263
 6249TIP3    H140238   0.396   4.995  16.391 -0.1821 -0.3492  0.5535
 6249TIP3    H240239   0.245   4.993  16.405 -0.2961  0.1725 -0.5323
 6250TIP3   OH240240   3.390   2.993  12.173  0.3471  0.3238  0.0118
 6250TIP3    H140241   3.414   2.971  12.263  1.8232  1.9112  0.0541
 6250TIP3    H240242   3.299   2.963  12.164  0.4736 -0.6826  1.7129
 6251TIP3   OH240243   3.627   2.394   0.611 -0.0511 -0.1692  0.1960
 6251TIP3    H140244   3.658   2.442   0.688  0.6834  0.5336 -0.5144
 6251TIP3    H240245   3.630   2.302   0.638 -3.0949  0.1663  2.1511
 6252TIP3   OH240246   2.291   5.962  11.790  0.2514  0.0069  0.3290
 6252TIP3    H140247   2.197   5.950  11.805 -0.1815  1.0639 -1.3156
 6252TIP3    H240248   2.315   5.891  11.730  0.0776  0.7754 -0.6824
 6253TIP3   OH240249   5.904   3.515  12.561 -0.3408  0.2741 -0.7142
 6253TIP3    H140250   5.955   3.461  12.501 -0.0038 -0.3489  0.1110
 6253TIP3    H240251   5.963   3.586  12.586 -0.0749 -0.1022 -0.2447
 6254TIP3   OH240252   2.391   4.100  12.231 -0.4027  0.0871 -0.4049
 6254TIP3    H140253   2.454   4.059  12.172  1.7264 -0.0184  1.7884
 6254TIP3    H240254   2.395   4.193  12.209  0.3896  0.0553 -0.4160
 6255TIP3   OH240255   1.143   4.870   0.693 -0.5338 -0.3660  0.4684
 6255TIP3    H140256   1.142   4.873   0.789 -1.2348 -0.5769  0.4713
 6255TIP3    H240257   1.140   4.777   0.672 -0.6329 -0.3089  0.2373
 6256TIP3   OH240258   4.496   3.567  12.825  0.1647  0.0516 -0.0933
 6256TIP3    H140259   4.584   3.582  12.860  0.8340 -1.2994 -1.1392
 6256TIP3    H240260   4.467   3.485  12.865 -0.4111  0.2093 -0.1741
 6257TIP3   OH240261   0.467   1.154  15.567 -0.6862 -0.3784 -0.0775
 6257TIP3    H140262   0.378   1.169  15.535 -0.7881  0.4768  0.5529
 6257TIP3    H240263   0.520   1.219  15.521 -0.9240  1.2520  1.7980
 6258TIP3   OH240264   3.197   4.696   3.327 -0.0037  0.4059 -0.0873
 6258TIP3    H140265   3.134   4.690   3.254 -0.7308 -0.0769  0.5689
 6258TIP3    H240266   3.228   4.787   3.324  0.7042  0.1435 -1.5864
 6259TIP3   OH240267   0.821   1.985  13.831  0.0873 -0.5690 -0.1664
 6259TIP3    H140268   0.901   2.036  13.846 -0.5962  0.5520 -0.2032
 6259TIP3    H240269   0.751   2.051  13.827 -0.8509 -1.5311 -0.0638
 6260TIP3   OH240270   4.383   5.796   2.218  0.4816  0.2445 -0.2872
 6260TIP3    H140271   4.312   5.734   2.235  0.5092 -0.3125 -2.0192
 6260TIP3    H240272   4.391   5.846   2.299  0.3700 -1.9226  1.1414
 6261TIP3   OH240273   1.897   4.823  15.705 -0.0021  0.3825  0.1237
 6261TIP3    H140274   1.862   4.773  15.779  1.3229 -0.1071  0.4499
 6261TIP3    H240275   1.832   4.892  15.690 -0.3671  0.4139  1.6605
 6262TIP3   OH240276   2.745   0.376   6.250  0.0860 -0.1086  0.7180
 6262TIP3    H140277   2.701   0.377   6.335 -1.9241  0.3885 -0.2515
 6262TIP3    H240278   2.836   0.394   6.270  0.2155 -2.5581  3.0125
 6263TIP3   OH240279   4.268   1.838   2.271 -0.0491  0.6577  0.1497
 6263TIP3    H140280   4.331   1.796   2.330 -2.3474 -1.3421  1.3222
 6263TIP3    H240281   4.204   1.879   2.328 -0.8960  0.9741 -0.9931
 6264TIP3   OH240282   6.661   1.431  10.954 -0.4590 -0.3406 -0.5339
 6264TIP3    H140283   6.722   1.407  10.884 -0.8202  0.0625 -1.0048
 6264TIP3    H240284   6.594   1.363  10.952  0.4648 -1.3162  0.6279
 6265TIP3   OH240285   4.344   4.287  11.516  0.9974 -0.9324 -0.6334
 6265TIP3    H140286   4.404   4.237  11.570  2.3216  0.7058 -0.4936
 6265TIP3    H240287   4.381   4.376  11.515 -0.2351 -0.3794 -2.3391
 6266TIP3   OH240288   6.422   2.349   2.903  0.0625  0.2574 -0.0939
 6266TIP3    H140289   6.394   2.257   2.908  1.6447 -0.2769 -0.6267
 6266TIP3    H240290   6.517   2.345   2.898  0.1943  1.9760  0.5346
 6267TIP3   OH240291   3.164   1.922  12.487 -0.1820  0.1613  0.5840
 6267TIP3    H140292   3.117   1.855  12.437  1.7713 -2.4098  1.9325
 6267TIP3    H240293   3.213   1.872  12.553  2.6592  2.7869  0.6653
 6268TIP3   OH240294   6.441   5.355   1.235 -0.4263  1.0975 -0.2217
 6268TIP3    H140295   6.373   5.289   1.252 -0.4349  0.9996 -0.6319
 6268TIP3    H240296   6.515   5.305   1.201 -1.1195  1.5008 -2.4474
 6269TIP3   OH240297   0.544   4.843   4.362 -0.0905 -0.6490 -0.2633
 6269TIP3    H140298   0.572   4.904   4.430 -0.4256 -0.0471 -0.6558
 6269TIP3    H240299   0.461   4.878   4.331  0.2677 -0.6604 -1.2796
 6270TIP3   OH240300   1.648   3.073  10.408 -0.2655 -0.4701  0.1298
 6270TIP3    H140301   1.679   3.045  10.494  0.1450 -0.8135 -0.1249
 6270TIP3    H240302   1.553   3.079  10.418 -0.1091  1.0599  1.0596
 6271TIP3   OH240303   3.779   3.676   0.138  0.3751  0.1615  0.5635
 6271TIP3    H140304   3.859   3.683   0.086  0.2224 -0.0220  0.3021
 6271TIP3    H240305   3.767   3.762   0.177  1.6238 -0.2609  1.9718
 6272TIP3   OH240306   0.839   3.798   2.882 -0.7043  0.3793  0.0117
 6272TIP3    H140307   0.923   3.777   2.841 -0.2039  0.0932  1.1579
 6272TIP3    H240308   0.799   3.713   2.899 -0.0741  0.3929  1.7772
 6273TIP3   OH240309   6.196   3.256  16.637 -0.3687 -0.2742 -0.1472
 6273TIP3    H140310   6.130   3.293  16.696 -1.0902 -1.4276 -0.2151
 6273TIP3    H240311   6.276   3.302  16.661 -1.2769  1.5913 -0.4588
 6274TIP3   OH240312   5.179   4.345  13.104  0.3197 -0.3525  0.3024
 6274TIP3    H140313   5.118   4.385  13.041  0.8698  1.2941  0.7542
 6274TIP3    H240314   5.187   4.411  13.174  1.0644 -1.4030  1.2402
 6275TIP3   OH240315   2.638   6.417  14.163 -0.3950  0.5093 -0.2162
 6275TIP3    H140316   2.627   6.349  14.229  0.0971  1.1919  0.5985
 6275TIP3    H240317   2.591   6.493  14.199 -0.1755  0.8682 -0.6799
 6276TIP3   OH240318   3.206   5.952  11.572 -0.4396 -0.2454 -0.1520
 6276TIP3    H140319   3.274   5.899  11.531 -0.9835 -1.0719 -0.0131
 6276TIP3    H240320   3.248   5.988  11.651 -0.1632 -0.7529 -0.0604
 6277TIP3   OH240321   2.244   6.365  15.241  0.0062 -0.1900 -0.1319
 6277TIP3    H140322   2.161   6.362  15.194 -0.5843 -2.4328  0.9167
 6277TIP3    H240323   2.282   6.278  15.230  1.6433  0.4057  0.4287
 6278TIP3   OH240324   2.858   5.045   0.752  0.2255 -0.3102  0.4123
 6278TIP3    H140325   2.921   5.091   0.808 -1.3081  0.8091  1.3029
 6278TIP3    H240326   2.788   5.109   0.737  0.0908 -0.9429 -1.9603
 6279TIP3   OH240327   4.801   2.823  13.335  0.5392  0.8564 -0.8722
 6279TIP3    H140328   4.811   2.729  13.320 -1.6827  0.8334 -2.5982
 6279TIP3    H240329   4.829   2.864  13.253  1.7613  1.7742 -0.0412
 6280TIP3   OH240330   0.526   2.509  11.885  0.4020 -0.1101 -0.0597
 6280TIP3    H140331   0.529   2.421  11.921 -2.3583  0.1746  1.1258
 6280TIP3    H240332   0.575   2.504  11.803  0.5446 -2.6481  0.1144
 6281TIP3   OH240333   5.678   5.888  14.289  0.3437 -0.0929  0.1609
 6281TIP3    H140334   5.756   5.835  14.272  0.2326 -0.0417 -0.5434
 6281TIP3    H240335   5.654   5.922  14.203 -0.4973 -0.1670  0.3634
 6282TIP3   OH240336   4.942   6.110  15.116 -0.5890  0.3247 -0.1352
 6282TIP3    H140337   4.872   6.070  15.066  0.9888 -3.4493  0.2766
 6282TIP3    H240338   5.023   6.078  15.075  0.8194  1.2529  1.7197
 6283TIP3   OH240339   4.511   5.136   1.142  0.7301  0.1785  0.0720
 6283TIP3    H140340   4.501   5.147   1.048  0.5807  0.1634  0.0860
 6283TIP3    H240341   4.492   5.043   1.158 -2.6435  0.8190  0.5464
 6284TIP3   OH240342   4.442   1.604   2.053 -0.8206 -0.1524 -0.3047
 6284TIP3    H140343   4.380   1.547   2.008 -1.0792  0.5982 -0.9432
 6284TIP3    H240344   4.411   1.610   2.143 -0.8515 -0.9172 -0.2654
 6285TIP3   OH240345   5.829   6.137   1.353 -0.2390  0.2858  0.6384
 6285TIP3    H140346   5.795   6.225   1.334 -0.7868 -0.1406 -0.4558
 6285TIP3    H240347   5.892   6.151   1.423 -2.5777  1.1321  2.7283
 6286TIP3   OH240348   4.332   4.299   3.138 -0.2882  0.1606 -0.0156
 6286TIP3    H140349   4.273   4.365   3.176 -0.3844 -0.2211  0.5009
 6286TIP3    H240350   4.369   4.253   3.213  0.2559  0.0318 -0.3549
 6287TIP3   OH240351   3.122   3.735  15.731  0.1721  0.2461 -0.0404
 6287TIP3    H140352   3.190   3.675  15.761 -1.0249 -0.7773  0.7447
 6287TIP3    H240353   3.053   3.728  15.797 -0.2497  2.0944 -0.2210
 6288TIP3   OH240354   4.134   3.980   3.424 -0.2237 -0.2987 -0.1288
 6288TIP3    H140355   4.184   3.978   3.343  0.0562 -2.4255  0.0400
 6288TIP3    H240356   4.184   3.925   3.485  0.5959  2.6732  2.1645
 6289TIP3   OH240357   6.636   0.338   4.353  0.3368 -0.7344 -0.1830
 6289TIP3    H140358   6.724   0.331   4.316 -0.3045 -0.4808 -1.8616
 6289TIP3    H240359   6.578   0.303   4.285 -0.9748  0.4366  0.2625
 6290TIP3   OH240360   1.976   3.511   3.769  0.6871 -0.4983  0.2072
 6290TIP3    H140361   1.928   3.429   3.768 -0.6251  0.2290  0.9863
 6290TIP3    H240362   2.047   3.498   3.705 -1.0424 -1.3030 -1.6559
 6291TIP3   OH240363   6.346   3.092   0.898 -0.4813 -0.0210 -0.6414
 6291TIP3    H140364   6.301   3.019   0.857 -0.3074 -0.4874 -0.0162
 6291TIP3    H240365   6.281   3.162   0.902 -1.8622 -1.2749  2.0255
 6292TIP3   OH240366   2.826   6.429   6.182  0.3975  0.2098  0.4467
 6292TIP3    H140367   2.835   6.493   6.253 -0.6685  0.0562  0.7385
 6292TIP3    H240368   2.912   6.429   6.139  0.7440  1.0507  1.0999
 6293TIP3   OH240369   6.364   2.752  15.852  0.3564  0.4881  0.3151
 6293TIP3    H140370   6.422   2.678  15.867 -0.0973  0.0772  0.0670
 6293TIP3    H240371   6.316   2.762  15.934 -1.5783 -1.2758 -0.5088
 6294TIP3   OH240372   4.103   1.022  12.612  0.2650 -0.1168  0.2313
 6294TIP3    H140373   4.097   1.110  12.649 -0.9335 -0.1159  0.0835
 6294TIP3    H240374   4.190   1.018  12.573 -0.5590  1.9774 -2.0928
 6295TIP3   OH240375   2.293   5.753   0.417 -0.2042  0.0206  0.1877
 6295TIP3    H140376   2.315   5.820   0.482  0.5590 -0.2001  0.1616
 6295TIP3    H240377   2.264   5.678   0.468 -0.4774  0.1613  0.2392
 6296TIP3   OH240378   6.497   0.636  15.040 -0.0378  0.6102  0.3241
 6296TIP3    H140379   6.520   0.725  15.014 -0.2031  0.8179  0.8733
 6296TIP3    H240380   6.419   0.647  15.094  1.8126  0.4886  3.2195
 6297TIP3   OH240381   0.534   1.419   0.545  0.0308  0.4588  0.1393
 6297TIP3    H140382   0.600   1.377   0.490 -1.1494  0.1230 -1.0765
 6297TIP3    H240383   0.539   1.512   0.524  1.8657  0.8502  1.9937
 6298TIP3   OH240384   5.730   2.194  16.344 -0.6896 -0.0006 -0.1884
 6298TIP3    H140385   5.725   2.140  16.265 -0.5316  0.4048 -0.4785
 6298TIP3    H240386   5.651   2.247  16.341 -1.4209 -0.9936  0.6794
 6299TIP3   OH240387   1.087   4.223   4.858  0.4104  0.0028  0.8967
 6299TIP3    H140388   1.032   4.149   4.835  0.1505  0.3048  0.5346
 6299TIP3    H240389   1.165   4.184   4.897  0.5988 -0.5024  0.0430
 6300TIP3   OH240390   1.320   2.120   6.744  0.1326 -0.3234 -0.6464
 6300TIP3    H140391   1.284   2.208   6.752  1.4983  0.1150  1.2291
 6300TIP3    H240392   1.311   2.099   6.651 -1.5910  1.1713 -0.8694
 6301TIP3   OH240393   2.865   2.548   3.427  0.2241 -0.1924  0.3885
 6301TIP3    H140394   2.853   2.468   3.377 -0.1356 -0.8362  1.4518
 6301TIP3    H240395   2.885   2.518   3.516  2.3679  0.8940  0.3465
 6302TIP3   OH240396   4.720   2.921   1.878 -0.2387 -0.5467  0.2430
 6302TIP3    H140397   4.721   2.916   1.783 -0.7093 -2.1395  0.2978
 6302TIP3    H240398   4.795   2.976   1.900  0.7305 -1.3408 -0.9853
 6303TIP3   OH240399   0.277   1.958   5.440 -0.3534  0.5841 -0.0418
 6303TIP3    H140400   0.307   1.912   5.519 -0.3261  0.8998  0.1323
 6303TIP3    H240401   0.186   1.932   5.431  0.0409 -0.6241 -0.7462
 6304TIP3   OH240402   3.440   0.200  11.154  0.1075 -0.2167  0.1891
 6304TIP3    H140403   3.433   0.192  11.059  1.4431  0.7474 -0.0087
 6304TIP3    H240404   3.410   0.288  11.173  1.5677  0.2602  0.4271
 6305TIP3   OH240405   5.129   6.080  11.567 -0.2029 -0.1926  0.2312
 6305TIP3    H140406   5.184   6.026  11.511 -1.1872 -0.4888 -0.4800
 6305TIP3    H240407   5.068   6.123  11.507 -1.6632 -0.9614  1.0933
 6306TIP3   OH240408   0.793   2.885  14.074 -0.6866 -0.3575  0.4538
 6306TIP3    H140409   0.816   2.804  14.119  0.4036 -0.3107  0.0013
 6306TIP3    H240410   0.838   2.880  13.990 -0.5274  0.7514  0.4590
 6307TIP3   OH240411   6.033   4.593  10.495 -0.0887 -0.1134 -0.5946
 6307TIP3    H140412   6.120   4.564  10.467 -0.5451 -1.0838 -1.0666
 6307TIP3    H240413   5.988   4.616  10.414  0.0053  1.2608 -0.2854
 6308TIP3   OH240414   5.471   5.952   2.104 -0.3120  0.0925 -0.3735
 6308TIP3    H140415   5.431   6.021   2.157 -1.1462 -0.8239  0.2342
 6308TIP3    H240416   5.397   5.914   2.056  0.1464 -0.3548 -0.7337
 6309TIP3   OH240417   2.990   4.869   4.417  0.0054 -0.2946 -0.3002
 6309TIP3    H140418   3.010   4.949   4.466 -0.7765 -0.6539  0.6356
 6309TIP3    H240419   3.075   4.825   4.408  0.5580  0.9429 -1.4127
 6310TIP3   OH240420   2.054   6.310   3.593 -0.4511  0.1383 -0.9248
 6310TIP3    H140421   1.978   6.254   3.603  0.6505 -1.3799 -0.6761
 6310TIP3    H240422   2.107   6.293   3.671  0.0713  1.2751 -1.0101
 6311TIP3   OH240423   5.385   3.479  14.453  0.0375 -0.5137  0.1769
 6311TIP3    H140424   5.348   3.468  14.541 -1.4071  3.2008  0.2188
 6311TIP3    H240425   5.475   3.507  14.468 -0.2729  0.3332  0.5409
 6312TIP3   OH240426   1.887   2.241   1.829  0.0608  0.3811  0.9460
 6312TIP3    H140427   1.858   2.257   1.919 -0.6331  1.3799  0.5689
 6312TIP3    H240428   1.982   2.255   1.831  0.1675 -0.4016  1.6812
 6313TIP3   OH240429   5.747   1.433   1.648 -0.0622 -0.3278  0.3092
 6313TIP3    H140430   5.688   1.461   1.579  0.8692 -0.7342 -0.6813
 6313TIP3    H240431   5.692   1.382   1.708 -1.0612  0.8116  0.3727
 6314TIP3   OH240432   0.202   0.178   3.983 -0.1203  0.6578 -0.1138
 6314TIP3    H140433   0.273   0.238   3.961 -0.5869  1.0036 -0.7148
 6314TIP3    H240434   0.182   0.132   3.902 -1.4160  1.4736 -0.2922
 6315TIP3   OH240435   5.564   5.537  13.914  0.4935 -0.3582  0.1122
 6315TIP3    H140436   5.579   5.554  14.007 -2.2710  2.1286  0.2441
 6315TIP3    H240437   5.609   5.609  13.869  0.6044 -0.7374 -0.3930
 6316TIP3   OH240438   0.420   1.081  15.145  0.1314  0.2947 -0.1162
 6316TIP3    H140439   0.437   1.173  15.166  0.0689  0.3707 -0.3968
 6316TIP3    H240440   0.481   1.062  15.073  0.6244 -0.0754  0.3938
 6317TIP3   OH240441   6.407   6.503  14.917 -0.1683 -0.0115  0.4575
 6317TIP3    H140442   6.359   6.448  14.979 -2.4383 -0.4842 -1.5605
 6317TIP3    H240443   6.466   6.443  14.872  1.1242  0.2440  1.7342
 6318TIP3   OH240444   2.316   1.821  11.302 -0.3896  0.1786  0.3776
 6318TIP3    H140445   2.304   1.916  11.309  2.3817  0.6100  0.3296
 6318TIP3    H240446   2.268   1.797  11.222 -1.9481  1.3236  0.9052
 6319TIP3   OH240447   0.983   5.201  10.726  0.3174 -0.2324  0.7509
 6319TIP3    H140448   0.972   5.245  10.641 -1.2386  1.4596  1.7457
 6319TIP3    H240449   1.077   5.190  10.735  0.6341  1.1497 -0.4459
 6320TIP3   OH240450   5.284   0.746  16.140 -0.5513  0.0467 -0.4817
 6320TIP3    H140451   5.243   0.716  16.222 -0.2568  2.2852  0.5706
 6320TIP3    H240452   5.377   0.723  16.150 -0.2812  1.3867  0.4259
 6321TIP3   OH240453   0.458   3.870  13.199 -0.1879  0.1896 -0.0559
 6321TIP3    H140454   0.461   3.826  13.284  1.4789  0.5589  0.1162
 6321TIP3    H240455   0.536   3.926  13.198  0.4096 -0.5655 -2.2270
 6322TIP3   OH240456   5.264   3.493  15.377  0.1163 -0.0208 -0.5621
 6322TIP3    H140457   5.327   3.550  15.422  1.1529 -1.1155 -0.5681
 6322TIP3    H240458   5.179   3.517  15.414  0.8487 -0.4473  1.5390
 6323TIP3   OH240459   4.406   3.319   4.433  0.2427 -0.4315 -0.1108
 6323TIP3    H140460   4.357   3.373   4.495  1.4500 -1.2856  1.6495
 6323TIP3    H240461   4.476   3.377   4.402  1.0057 -0.6599  1.1064
 6324TIP3   OH240462   6.785   0.440   2.100  0.4467  0.1822  0.0240
 6324TIP3    H140463   6.867   0.488   2.089  0.3988 -0.0672 -1.8229
 6324TIP3    H240464   6.805   0.351   2.071  0.3187 -0.7830  2.6132
 6325TIP3   OH240465   5.514   1.199   4.954  0.1776 -0.2119 -0.3949
 6325TIP3    H140466   5.500   1.107   4.976 -1.0059 -0.3040 -1.4504
 6325TIP3    H240467   5.551   1.197   4.866 -3.3062  0.3473 -2.0496
 6326TIP3   OH240468   3.437   3.669   3.844  0.3513 -0.3382 -0.0061
 6326TIP3    H140469   3.419   3.742   3.903  0.5199 -0.6220  0.4052
 6326TIP3    H240470   3.480   3.604   3.900 -2.6644 -2.1151  0.4321
 6327TIP3   OH240471   1.062   6.648  17.256 -0.0575 -0.1910  0.1307
 6327TIP3    H140472   0.979   6.633  17.211  0.1157 -0.1752 -0.1955
 6327TIP3    H240473   1.073   6.743  17.257  0.0966 -0.2054 -0.0842
 6328TIP3   OH240474   6.247   4.353  14.343  0.2519  0.1438 -0.5251
 6328TIP3    H140475   6.229   4.385  14.254 -0.1241  0.0894 -0.4696
 6328TIP3    H240476   6.199   4.414  14.400 -1.5311 -1.2324 -0.4661
 6329TIP3   OH240477   5.798   3.619  12.843 -0.4557 -0.6142  0.0009
 6329TIP3    H140478   5.886   3.631  12.807 -0.5745  2.1738  0.4267
 6329TIP3    H240479   5.740   3.629  12.767 -0.5126  1.1020  0.2291
 6330TIP3   OH240480   1.929   0.214   3.316 -0.5540  0.0407  0.2411
 6330TIP3    H140481   2.007   0.193   3.264  0.3560  1.8842  0.7653
 6330TIP3    H240482   1.861   0.233   3.251 -0.7489 -1.9957 -0.2208
 6331TIP3   OH240483   2.366   3.601   5.850 -0.3265  0.0400 -0.2601
 6331TIP3    H140484   2.376   3.509   5.825  3.0868  0.6522 -1.7599
 6331TIP3    H240485   2.328   3.643   5.772 -0.2803  0.1728 -0.2114
 6332TIP3   OH240486   2.764   2.600   0.186  0.2485  0.2526  0.1834
 6332TIP3    H140487   2.715   2.556   0.117  2.0033  1.2094 -1.7755
 6332TIP3    H240488   2.741   2.692   0.178  0.4302  0.3719  0.9269
 6333TIP3   OH240489   0.907   0.941   2.758  0.3479  0.3428 -0.2539
 6333TIP3    H140490   0.907   1.012   2.823  0.5057  0.0703  0.0482
 6333TIP3    H240491   0.992   0.898   2.770 -0.4646 -1.0366  0.8304
 6334TIP3   OH240492   6.053   3.451  17.145  0.3895 -0.1553 -0.3211
 6334TIP3    H140493   6.122   3.399  17.187 -0.1885 -0.6256  0.0657
 6334TIP3    H240494   5.977   3.393  17.143 -0.0051  0.3671 -0.7131
 6335TIP3   OH240495   1.190   0.949  14.206 -0.4646  0.5596 -0.1763
 6335TIP3    H140496   1.141   1.013  14.257 -1.1189 -0.8543  1.0400
 6335TIP3    H240497   1.275   0.944  14.249 -0.3295  0.7854 -0.4169
 6336TIP3   OH240498   5.046   5.035  15.635  0.3522 -0.4226 -0.0022
 6336TIP3    H140499   5.111   5.071  15.573  0.1787  1.7332  0.9703
 6336TIP3    H240500   5.000   5.112  15.668 -0.3307 -1.6063  1.9586
 6337TIP3   OH240501   6.506   3.250  14.279 -0.7604  0.3988 -0.5428
 6337TIP3    H140502   6.496   3.155  14.287  0.5063  0.2706 -0.3049
 6337TIP3    H240503   6.517   3.265  14.185  0.5079  0.1292 -0.4572
 6338TIP3   OH240504   1.256   5.066   0.192 -0.2247  0.1180  0.5826
 6338TIP3    H140505   1.191   5.087   0.259  0.4665  0.2665  1.2082
 6338TIP3    H240506   1.217   5.100   0.111 -1.5791 -1.0642  0.6969
 6339TIP3   OH240507   3.881   1.945  10.616  0.8239  0.1842 -0.4397
 6339TIP3    H140508   3.835   1.862  10.602  0.4391  0.1859  0.7421
 6339TIP3    H240509   3.966   1.920  10.654  1.2296  0.2675 -1.2690
 6340TIP3   OH240510   6.700   4.261  11.134 -0.6434 -0.1160 -0.6503
 6340TIP3    H140511   6.765   4.330  11.138 -0.8238  0.0060  2.4271
 6340TIP3    H240512   6.695   4.237  11.041  0.2178  3.1858 -1.6631
 6341TIP3   OH240513   0.830   1.790  16.782 -1.2612 -0.5340 -0.3657
 6341TIP3    H140514   0.811   1.754  16.695 -0.8260  0.5048 -0.9142
 6341TIP3    H240515   0.755   1.765  16.836 -1.7428 -0.8294 -1.1555
 6342TIP3   OH240516   1.071   3.557  10.630  0.3854  0.0900 -0.1645
 6342TIP3    H140517   1.067   3.602  10.714  0.9007  0.0520 -0.1184
 6342TIP3    H240518   1.055   3.625  10.565  0.4826  0.2118 -0.0607
 6343TIP3   OH240519   5.573   5.317  15.852 -0.2649 -0.0964  0.0892
 6343TIP3    H140520   5.492   5.335  15.805 -1.0495 -1.8473  0.7007
 6343TIP3    H240521   5.638   5.375  15.811 -1.4196  0.0791 -1.5875
 6344TIP3   OH240522   4.533   6.521   0.028 -0.0867  0.0782 -0.5885
 6344TIP3    H140523   4.521   6.429   0.051  3.1697 -0.4078 -0.3757
 6344TIP3    H240524   4.519   6.568   0.110 -0.3063 -0.3641 -0.3692
 6345TIP3   OH240525   1.874   1.171  14.240 -0.3732 -0.3285  0.3520
 6345TIP3    H140526   1.938   1.149  14.172 -0.9372 -0.7903 -0.0332
 6345TIP3    H240527   1.924   1.222  14.304  0.5713 -1.3723  0.4603
 6346TIP3   OH240528   0.781   6.163  11.499  0.2570 -0.1064 -0.0300
 6346TIP3    H140529   0.853   6.195  11.554 -0.3405  0.2003  0.5922
 6346TIP3    H240530   0.787   6.215  11.419  2.9538 -2.5440 -1.5946
 6347TIP3   OH240531   4.933   5.076   0.186  0.5732 -0.7764  0.7239
 6347TIP3    H140532   4.862   5.041   0.240  0.5587 -1.3449  0.3483
 6347TIP3    H240533   4.931   5.023   0.106 -1.3462  1.9546 -1.2172
 6348TIP3   OH240534   1.900   6.074   3.836  0.6392  0.0343  0.4092
 6348TIP3    H140535   1.888   6.056   3.742 -1.4555  0.0522  0.6276
 6348TIP3    H240536   1.844   6.010   3.879 -0.7274  1.8916  1.5271
 6349TIP3   OH240537   0.504   6.668   0.010 -0.4782 -0.1003  0.0648
 6349TIP3    H140538   0.500   6.573   0.010  0.5409 -0.1630 -0.9543
 6349TIP3    H240539   0.586   6.689   0.055 -0.5394  0.2869  0.0034
 6350TIP3   OH240540   0.508   1.680  12.899 -0.1767  0.3132 -0.1089
 6350TIP3    H140541   0.467   1.754  12.855 -0.9135 -0.2425 -0.3766
 6350TIP3    H240542   0.452   1.664  12.976 -1.5142 -1.5075 -1.3589
 6351TIP3   OH240543   0.095   3.142  11.671  0.1892  0.1147 -0.1462
 6351TIP3    H140544   0.177   3.173  11.709 -0.4981  0.6151  0.9862
 6351TIP3    H240545   0.106   3.154  11.577  1.3478  0.3064 -0.0067
 6352TIP3   OH240546   1.268   0.088  17.198 -0.1351  0.1100  0.2931
 6352TIP3    H140547   1.302   0.177  17.194 -2.1138  1.1123  3.1055
 6352TIP3    H240548   1.237   0.070  17.109 -0.2609  2.4591 -0.1854
 6353TIP3   OH240549   4.778   2.982   0.865  0.2333 -0.0192 -0.0742
 6353TIP3    H140550   4.721   3.054   0.840  3.8001  3.3777  0.4868
 6353TIP3    H240551   4.822   3.012   0.944  1.0094 -3.4901  1.0154
 6354TIP3   OH240552   4.746   4.030  12.438 -0.1223 -0.8148  0.1854
 6354TIP3    H140553   4.656   3.997  12.446 -1.1423  1.0491 -2.3896
 6354TIP3    H240554   4.755   4.090  12.512 -1.6175  0.2244 -0.4359
 6355TIP3   OH240555   6.192   5.648  17.267 -0.1313 -0.1233 -0.0501
 6355TIP3    H140556   6.137   5.666  17.343  1.0999 -0.6303  0.9994
 6355TIP3    H240557   6.133   5.605  17.204 -0.7938 -1.2827  1.3087
 6356TIP3   OH240558   2.604   5.857   0.880  0.1180  0.4582  0.2697
 6356TIP3    H140559   2.611   5.786   0.944  1.1490  1.3286  1.1663
 6356TIP3    H240560   2.516   5.849   0.845 -0.9570  0.6848  2.6897
 6357TIP3   OH240561   2.472   2.495  15.499  0.0816 -0.5907  0.2285
 6357TIP3    H140562   2.465   2.415  15.447  1.8873 -0.5889 -0.0514
 6357TIP3    H240563   2.491   2.563  15.434 -3.1351  0.4828  0.1959
 6358TIP3   OH240564   1.388   2.397  14.576  0.2870  0.1188 -0.1722
 6358TIP3    H140565   1.477   2.389  14.542  0.1998  0.2735 -0.4355
 6358TIP3    H240566   1.399   2.401  14.671  0.5039 -0.7168 -0.1497
 6359TIP3   OH240567   0.210   1.111   2.719 -0.3601  0.0353  0.0585
 6359TIP3    H140568   0.258   1.141   2.642 -1.5390  0.8915 -0.3767
 6359TIP3    H240569   0.119   1.105   2.689 -0.8982  0.7479  1.4740
 6360TIP3   OH240570   6.632   1.633  16.693  0.1931  0.2102 -0.2567
 6360TIP3    H140571   6.696   1.618  16.763 -0.9164 -0.8708  0.5680
 6360TIP3    H240572   6.579   1.553  16.692 -1.4063  1.2285 -0.6258
 6361TIP3   OH240573   4.601   5.352  13.943  0.3010  0.5201  0.3095
 6361TIP3    H140574   4.594   5.349  14.039  1.7778  0.6889  0.4471
 6361TIP3    H240575   4.663   5.283  13.922  0.9986  1.3521 -0.4053
 6362TIP3   OH240576   6.236   3.563  10.500 -0.2991  0.0134  0.1957
 6362TIP3    H140577   6.233   3.468  10.484 -1.6900 -0.3326  2.1398
 6362TIP3    H240578   6.153   3.582  10.544  1.2315  1.5699  2.6462
 6363TIP3   OH240579   1.854   4.161   1.690 -0.3669  0.5919 -0.9117
 6363TIP3    H140580   1.910   4.164   1.768 -1.3005 -1.3310 -0.1064
 6363TIP3    H240581   1.827   4.252   1.677  1.0074  1.1818  0.1013
 6364TIP3   OH240582   1.823   3.186   3.481 -1.1433  0.4380 -0.1953
 6364TIP3    H140583   1.915   3.209   3.466 -0.7948  0.0270  1.1273
 6364TIP3    H240584   1.818   3.170   3.576 -1.7736 -2.8965 -0.6540
 6365TIP3   OH240585   6.010   6.462   5.137 -0.3921 -0.0677  0.4589
 6365TIP3    H140586   5.996   6.376   5.178  0.0584  0.3579  1.5456
 6365TIP3    H240587   6.087   6.451   5.082 -1.3655 -0.8159 -0.8045
 6366TIP3   OH240588   2.122   6.257  12.196  0.0068 -0.3688  0.2183
 6366TIP3    H140589   2.141   6.255  12.290  1.9213 -0.2265 -0.1372
 6366TIP3    H240590   2.125   6.165  12.169 -1.4401 -0.5097  0.4155
 6367TIP3   OH240591   1.453   2.489  16.905  0.3167 -0.0959 -0.3262
 6367TIP3    H140592   1.542   2.521  16.896  0.9991 -2.2215 -1.9390
 6367TIP3    H240593   1.460   2.416  16.967 -0.4983  0.3035  0.2617
 6368TIP3   OH240594   2.714   4.231  13.542  0.0103  0.0597 -0.2897
 6368TIP3    H140595   2.783   4.228  13.477 -0.3397 -0.3022 -0.6535
 6368TIP3    H240596   2.719   4.319  13.579  2.5589 -0.8295  1.8013
 6369TIP3   OH240597   4.500   2.661   0.941 -0.2001  0.3230 -0.0159
 6369TIP3    H140598   4.410   2.664   0.908  0.1314  2.3096 -0.9061
 6369TIP3    H240599   4.492   2.682   1.034 -0.6045  1.4766 -0.2954
 6370TIP3   OH240600   5.318   0.730   3.492  0.0213 -0.7101 -0.0649
 6370TIP3    H140601   5.372   0.798   3.451  0.6870 -0.4113  1.2587
 6370TIP3    H240602   5.231   0.742   3.454  0.2289  0.6140 -0.1676
 6371TIP3   OH240603   1.710   0.747   6.344 -0.6297 -0.1503 -0.5662
 6371TIP3    H140604   1.688   0.816   6.406 -1.0436  0.1903 -1.0872
 6371TIP3    H240605   1.801   0.724   6.365 -1.4793 -1.6935  1.7059
 6372TIP3   OH240606   6.496   1.260  14.353 -0.5176  0.1122 -0.0908
 6372TIP3    H140607   6.520   1.202  14.426 -0.7710  2.1077  1.6648
 6372TIP3    H240608   6.536   1.219  14.276  1.4377 -1.0641  1.4450
 6373TIP3   OH240609   5.944   5.509   3.882 -0.0737 -0.3070  0.0494
 6373TIP3    H140610   5.990   5.446   3.937  0.4831 -0.2584 -0.3473
 6373TIP3    H240611   6.003   5.585   3.878  0.7129 -0.9374 -1.9631
 6374TIP3   OH240612   6.585   3.920   1.771 -0.8128 -0.3391  0.6058
 6374TIP3    H140613   6.502   3.963   1.754 -1.4842 -1.8372 -0.0898
 6374TIP3    H240614   6.645   3.957   1.707 -0.7608  1.1460  1.4576
 6375TIP3   OH240615   1.027   0.993   2.185 -0.4907 -0.6926  0.1785
 6375TIP3    H140616   0.964   1.032   2.124  0.3815 -1.9455 -1.6055
 6375TIP3    H240617   1.024   1.050   2.262 -2.5364  0.2456 -0.5262
 6376TIP3   OH240618   4.097   3.970  16.973  0.6755  0.4069  0.0072
 6376TIP3    H140619   4.121   3.931  17.057 -2.2573 -1.9756 -0.0760
 6376TIP3    H240620   4.180   3.982  16.927  2.0778 -2.5966  1.4856
 6377TIP3   OH240621   0.116   2.689  13.485 -0.0811 -0.3761  0.2250
 6377TIP3    H140622   0.114   2.717  13.577 -1.2011  1.6843 -0.3668
 6377TIP3    H240623   0.031   2.649  13.471 -0.1569 -0.1213 -0.0590
 6378TIP3   OH240624   6.487   3.026  15.000  0.7186 -0.8858 -0.7746
 6378TIP3    H140625   6.493   3.021  14.904  0.0989 -0.7135 -0.8220
 6378TIP3    H240626   6.394   3.039  15.018  0.9493  0.0467 -0.1871
 6379TIP3   OH240627   2.126   1.579  14.721  0.0961 -0.3637  0.5882
 6379TIP3    H140628   2.035   1.593  14.747  0.2920 -1.0593  1.7513
 6379TIP3    H240629   2.176   1.604  14.799  0.7912 -1.4858  0.5098
 6380TIP3   OH240630   3.590   5.144   0.316  0.1201  0.4748 -0.3984
 6380TIP3    H140631   3.543   5.222   0.290 -0.5207  0.5355  0.8839
 6380TIP3    H240632   3.526   5.073   0.308 -0.4027  0.6351  1.8405
 6381TIP3   OH240633   2.708   4.054  12.604  0.6676 -0.0043 -0.4247
 6381TIP3    H140634   2.698   4.099  12.688  2.1243 -0.7137  0.1622
 6381TIP3    H240635   2.618   4.037  12.576  0.1038 -1.2259  1.8254
 6382TIP3   OH240636   0.280   2.416   5.798  0.2389 -0.3329  0.2796
 6382TIP3    H140637   0.209   2.444   5.741  0.0148 -0.9995  0.2238
 6382TIP3    H240638   0.241   2.413   5.886  0.6124  0.8000  0.4908
 6383TIP3   OH240639   4.776   6.070  16.439 -0.1226  0.6445 -0.1985
 6383TIP3    H140640   4.806   6.037  16.354 -0.8319 -0.2399 -0.1150
 6383TIP3    H240641   4.790   6.164  16.434  0.7945  0.4833 -0.9150
 6384TIP3   OH240642   0.773   3.435   0.368  0.0276  0.0528 -0.0829
 6384TIP3    H140643   0.739   3.522   0.389 -1.6422 -0.2719 -1.3028
 6384TIP3    H240644   0.696   3.380   0.358  1.0572 -1.5984  0.6398
 6385TIP3   OH240645   4.083   4.577  17.110 -0.0993 -0.7771 -0.1927
 6385TIP3    H140646   4.152   4.616  17.163 -0.1890 -1.7821  0.6859
 6385TIP3    H240647   4.099   4.611  17.022  1.6237 -1.1111 -0.0510
 6386TIP3   OH240648   3.896   0.449   2.111  0.7331 -0.1035  0.5012
 6386TIP3    H140649   3.888   0.472   2.018 -2.3496  1.9858  1.1165
 6386TIP3    H240650   3.981   0.484   2.137  1.0907  0.4196 -1.2360
 6387TIP3   OH240651   4.240   6.143  12.045  0.1994 -0.2897  0.2211
 6387TIP3    H140652   4.287   6.225  12.055  3.4740 -1.9824  0.1891
 6387TIP3    H240653   4.200   6.126  12.130 -0.7203  1.3760  0.1539
 6388TIP3   OH240654   2.059   1.782  12.628  0.5650  0.0722 -0.0034
 6388TIP3    H140655   2.114   1.854  12.597  0.1810  0.5681  0.4524
 6388TIP3    H240656   2.029   1.738  12.548 -0.1914  1.1609 -0.3306
 6389TIP3   OH240657   0.725   3.275  13.691  0.1688  0.1607  0.6642
 6389TIP3    H140658   0.698   3.278  13.783 -0.8472  1.9949  0.3583
 6389TIP3    H240659   0.696   3.358  13.655  2.0373  0.1879 -0.9396
 6390TIP3   OH240660   1.085   6.705   4.871  0.0886 -0.2101 -0.2722
 6390TIP3    H140661   1.046   6.645   4.808 -0.8355 -0.2842  0.3582
 6390TIP3    H240662   1.116   6.779   4.818 -1.8133  0.3230 -0.7169
 6391TIP3   OH240663   1.328   4.655  13.281  0.5457  0.0625  0.0334
 6391TIP3    H140664   1.407   4.696  13.245  0.6138  0.2779  0.4255
 6391TIP3    H240665   1.304   4.589  13.216  2.0624 -1.2497  0.7102
 6392TIP3   OH240666   3.182   0.560  12.257 -0.3166  0.1621  0.1446
 6392TIP3    H140667   3.159   0.548  12.165 -0.0226 -1.1513  0.2284
 6392TIP3    H240668   3.150   0.481  12.301  1.4967 -0.2468  0.7995
 6393TIP3   OH240669   4.609   5.147   1.975  0.4672  0.0622 -0.4883
 6393TIP3    H140670   4.693   5.141   1.929  1.4188  0.9384  1.0309
 6393TIP3    H240671   4.632   5.135   2.067 -0.9326  1.3492  0.0666
 6394TIP3   OH240672   0.067   1.479   0.982  0.0756 -0.1412  0.3909
 6394TIP3    H140673   0.128   1.547   0.952 -0.5556  0.2594 -0.0217
 6394TIP3    H240674   0.006   1.526   1.039  0.2201 -0.5613  0.8939
 6395TIP3   OH240675   5.909   6.741  10.999  0.0518 -0.2765  0.7340
 6395TIP3    H140676   5.869   6.657  11.021 -0.8640 -0.3031 -0.8966
 6395TIP3    H240677   5.875   6.762  10.912  1.2766  1.1605  0.5603
 6396TIP3   OH240678   1.583   2.631  11.024 -0.3679 -0.5835  0.2156
 6396TIP3    H140679   1.522   2.592  10.961 -0.9263 -0.3076  0.5750
 6396TIP3    H240680   1.670   2.604  10.994 -0.2747  2.2441 -2.6813
 6397TIP3   OH240681   5.967   2.413  14.051  0.0305 -0.0325 -0.1507
 6397TIP3    H140682   6.052   2.455  14.051  0.5594 -0.9127  2.4151
 6397TIP3    H240683   5.977   2.337  13.993  0.6108  0.5078 -0.7709
 6398TIP3   OH240684   2.657   1.597  12.668  0.3206 -0.6313 -0.0887
 6398TIP3    H140685   2.607   1.601  12.749  0.1283 -0.1785 -0.2298
 6398TIP3    H240686   2.742   1.636  12.690  0.1338 -0.1541 -0.2035
 6399TIP3   OH240687   5.576   4.018  14.478 -0.5246  0.0426 -0.1983
 6399TIP3    H140688   5.668   3.999  14.496 -0.2665 -0.0093 -1.4513
 6399TIP3    H240689   5.527   3.952  14.527  0.1612 -0.7029 -0.5021
 6400TIP3   OH240690   5.868   5.879   2.582  0.0457  0.3279  1.1537
 6400TIP3    H140691   5.929   5.836   2.642  0.1009 -0.4077  0.5823
 6400TIP3    H240692   5.781   5.856   2.615  0.0722 -0.4955  0.6770
 6401TIP3   OH240693   2.798   0.879  12.843  0.1964  0.3938 -0.0644
 6401TIP3    H140694   2.887   0.884  12.807  0.8783 -1.4983  1.1935
 6401TIP3    H240695   2.752   0.952  12.803  2.1240  1.0117 -1.3020
 6402TIP3   OH240696   3.979   6.577   1.785 -0.0987 -0.2936  0.2002
 6402TIP3    H140697   3.899   6.610   1.745  0.2880 -0.9411 -1.1644
 6402TIP3    H240698   3.995   6.636   1.859 -1.4410  0.2674  0.0700
 6403TIP3   OH240699   0.018   4.358  14.172 -0.1439  0.1043 -0.0409
 6403TIP3    H140700  -0.053   4.298  14.195 -1.9493  1.0501 -2.6256
 6403TIP3    H240701  -0.012   4.444  14.203  1.3871  0.0946  1.6348
 6404TIP3   OH240702   2.402   2.807  12.522 -0.5249 -0.8086 -0.3849
 6404TIP3    H140703   2.478   2.846  12.479  0.6822 -1.5541  0.9741
 6404TIP3    H240704   2.327   2.853  12.485  0.7085  1.4513 -0.2572
 6405TIP3   OH240705   1.035   6.683   1.607  0.1034 -0.4085  0.0077
 6405TIP3    H140706   1.125   6.664   1.580  0.4805  0.6547  0.4778
 6405TIP3    H240707   1.044   6.736   1.685 -0.9516 -0.6751  0.3221
 6406TIP3   OH240708   1.280   5.811   3.568 -0.1017 -0.3241 -0.0351
 6406TIP3    H140709   1.239   5.891   3.537  0.1181 -0.5422 -0.9353
 6406TIP3    H240710   1.272   5.750   3.494  0.9298 -0.6944  0.1412
 6407TIP3   OH240711   1.099   3.251   6.214  0.0256  0.5344 -0.1940
 6407TIP3    H140712   1.038   3.244   6.287 -1.0993  0.1386 -1.1327
 6407TIP3    H240713   1.139   3.338   6.225  1.4624 -0.3278  2.0371
 6408TIP3   OH240714   4.070   3.182   1.517  0.7231 -0.2977 -0.6164
 6408TIP3    H140715   4.140   3.126   1.548  0.3484  0.3374  1.5377
 6408TIP3    H240716   4.115   3.260   1.483  1.1041 -0.1873  0.1174
 6409TIP3   OH240717   6.067   2.542   0.592  0.2490 -0.5445  0.5564
 6409TIP3    H140718   6.115   2.506   0.666  0.1600 -0.5285  0.6209
 6409TIP3    H240719   5.993   2.483   0.579 -0.4132  0.1246  1.2390
 6410TIP3   OH240720   3.179   1.500  14.200 -0.3346  0.0066 -0.7779
 6410TIP3    H140721   3.166   1.405  14.195 -1.3615  0.0630  0.3168
 6410TIP3    H240722   3.208   1.515  14.290  1.3127  0.5913 -1.3805
 6411TIP3   OH240723   6.125   3.560  14.676 -0.0874 -0.6243 -0.0968
 6411TIP3    H140724   6.053   3.551  14.739  0.7474 -1.6596  0.7553
 6411TIP3    H240725   6.199   3.589  14.729  0.6083 -1.4187 -0.6020
 6412TIP3   OH240726   3.189   3.351  13.135  0.2462  1.2667 -0.2944
 6412TIP3    H140727   3.120   3.407  13.172  1.6659  2.0972  1.2306
 6412TIP3    H240728   3.143   3.273  13.104 -1.2717  1.2781  1.7307
 6413TIP3   OH240729   2.235   6.697   4.713  0.3975  0.1709 -0.5988
 6413TIP3    H140730   2.143   6.685   4.689  0.3727 -0.6887 -0.1234
 6413TIP3    H240731   2.240   6.786   4.747 -0.5982 -0.2994  0.8401
 6414TIP3   OH240732   2.804   2.604   1.013 -0.4394  0.6876 -0.1614
 6414TIP3    H140733   2.882   2.638   0.969 -0.4456 -0.2730 -0.9443
 6414TIP3    H240734   2.754   2.682   1.036 -0.4829  1.2235 -1.9501
 6415TIP3   OH240735   5.192   1.098   3.342 -0.1407  0.2343 -0.0637
 6415TIP3    H140736   5.173   1.131   3.254  0.0004  0.0788 -0.1524
 6415TIP3    H240737   5.282   1.067   3.338 -0.7813 -1.7571 -0.4831
 6416TIP3   OH240738   0.268   3.846   3.946  0.0773 -0.3769  0.0685
 6416TIP3    H140739   0.241   3.898   4.022  0.8883 -0.1574  0.2177
 6416TIP3    H240740   0.196   3.856   3.883  0.4051  1.3191 -0.0813
 6417TIP3   OH240741   3.818   1.592   5.165  0.3859  0.6926  0.0550
 6417TIP3    H140742   3.727   1.566   5.177 -0.4432  2.0758 -2.4255
 6417TIP3    H240743   3.869   1.530   5.218 -1.9529 -0.1780  1.4169
 6418TIP3   OH240744   1.557   4.941   2.486 -0.3252  0.3672  0.4550
 6418TIP3    H140745   1.619   5.012   2.504 -0.5574  0.7249 -0.1349
 6418TIP3    H240746   1.610   4.861   2.493  0.0191  0.6152  0.7566
 6419TIP3   OH240747   0.098   3.566   2.592  0.0618 -0.4054  0.3582
 6419TIP3    H140748   0.090   3.483   2.638 -1.3100 -0.8316 -0.5930
 6419TIP3    H240749   0.162   3.549   2.522  2.4752  0.3603  2.2536
 6420TIP3   OH240750   4.571   4.406   6.078  0.0111  0.1239 -0.4514
 6420TIP3    H140751   4.596   4.494   6.106 -0.4117 -0.0395  0.4733
 6420TIP3    H240752   4.588   4.405   5.984 -2.0915  1.9219 -0.9176
 6421TIP3   OH240753   0.355   2.545   1.839  0.4967 -0.4344 -0.7676
 6421TIP3    H140754   0.420   2.476   1.827  1.0860 -0.0823  0.3075
 6421TIP3    H240755   0.349   2.587   1.753  0.8728 -1.1625 -1.1637
 6422TIP3   OH240756   5.055   1.593  16.342 -0.7645  0.1034 -0.8310
 6422TIP3    H140757   5.060   1.498  16.347  0.8057  0.2119  0.2765
 6422TIP3    H240758   5.052   1.622  16.433 -1.1008  1.1214 -1.1507
 6423TIP3   OH240759   4.253   3.695   4.938  0.2114 -0.0995 -0.1927
 6423TIP3    H140760   4.267   3.789   4.926  3.0785 -0.4204  0.0464
 6423TIP3    H240761   4.262   3.682   5.033 -1.8922 -0.4336  0.0107
 6424TIP3   OH240762   5.866   5.819  16.245  0.2540 -0.2343  0.0320
 6424TIP3    H140763   5.929   5.891  16.254 -0.1702  0.2308 -0.6418
 6424TIP3    H240764   5.785   5.861  16.214 -0.5574 -0.7522  1.3970
 6425TIP3   OH240765   5.659   3.172   3.359  0.2592  0.1551  0.6616
 6425TIP3    H140766   5.648   3.078   3.374 -0.6565  0.2176  0.4717
 6425TIP3    H240767   5.681   3.179   3.266  4.2783 -0.1137  1.4096
 6426TIP3   OH240768   1.938   3.018   2.253  0.2679 -0.0409 -0.3867
 6426TIP3    H140769   1.965   3.055   2.168 -0.6616 -0.5580 -0.9244
 6426TIP3    H240770   1.905   2.931   2.232  0.5912 -0.4173  0.6074
 6427TIP3   OH240771   4.191   5.909  13.042  0.1257 -0.4794 -0.4377
 6427TIP3    H140772   4.241   5.987  13.019  0.0043 -0.0719  0.6218
 6427TIP3    H240773   4.115   5.942  13.091  1.1657 -1.3367  1.9344
 6428TIP3   OH240774   1.216   6.819  12.895 -0.0577 -0.0655  0.2971
 6428TIP3    H140775   1.293   6.800  12.948  1.1149  1.0042 -0.9367
 6428TIP3    H240776   1.159   6.869  12.953  0.0844 -1.0029  1.2786
 6429TIP3   OH240777   6.410   6.310   2.270  0.8170 -0.4919 -0.0412
 6429TIP3    H140778   6.496   6.287   2.236  1.1929  1.4170 -0.4912
 6429TIP3    H240779   6.398   6.402   2.246 -1.0674 -0.5172  0.5978
 6430TIP3   OH240780   2.991   5.008  13.102 -0.4005  0.2212  0.0691
 6430TIP3    H140781   2.914   4.960  13.133 -0.5141  0.5261  0.2677
 6430TIP3    H240782   3.063   4.974  13.155 -0.6467  0.9625  0.9151
 6431TIP3   OH240783   2.940   1.107  11.381 -0.7706 -0.4160 -0.3297
 6431TIP3    H140784   2.959   1.014  11.367  2.7668  0.3213 -1.3112
 6431TIP3    H240785   2.956   1.148  11.296  0.1994  1.3891  0.6658
 6432TIP3   OH240786   0.580   5.887  17.241 -0.0223 -0.0947 -0.0247
 6432TIP3    H140787   0.549   5.909  17.153 -0.5817  0.0220  0.2001
 6432TIP3    H240788   0.636   5.810  17.228  0.3666  0.2720 -0.5553
 6433TIP3   OH240789   5.801   0.921   2.893  0.0272  0.1324 -0.2703
 6433TIP3    H140790   5.842   0.976   2.960 -0.4487 -0.2170  0.3204
 6433TIP3    H240791   5.805   0.974   2.813  1.9181 -0.0279 -0.3247
 6434TIP3   OH240792   0.398   5.117  14.445  0.4175 -0.0979 -0.2343
 6434TIP3    H140793   0.428   5.142  14.357 -2.6355  0.6132 -1.2065
 6434TIP3    H240794   0.324   5.175  14.462 -0.8024 -2.0651  1.6282
 6435TIP3   OH240795   3.326   2.953  14.330  0.1352 -0.4427 -0.0856
 6435TIP3    H140796   3.354   2.896  14.401 -1.1020  0.0258  0.8070
 6435TIP3    H240797   3.268   3.017  14.371 -0.3102  0.0747 -1.4443
 6436TIP3   OH240798   1.764   3.047   1.714  0.3999 -0.4783  0.0572
 6436TIP3    H140799   1.698   3.090   1.768 -0.2999  1.0934 -1.9031
 6436TIP3    H240800   1.830   3.114   1.699  0.6439 -0.9156 -0.8846
 6437TIP3   OH240801   5.983   2.025   5.566 -0.2173 -0.0036 -0.0836
 6437TIP3    H140802   5.921   2.099   5.564  0.8767  0.9572  0.4337
 6437TIP3    H240803   5.935   1.953   5.525 -1.3163  0.9953 -0.6275
 6438TIP3   OH240804   1.168   3.695   1.081  0.1362  0.2756 -0.4977
 6438TIP3    H140805   1.247   3.717   1.129 -0.2353 -0.6113  0.5762
 6438TIP3    H240806   1.186   3.609   1.043 -0.1168  0.3071 -0.6915
 6439TIP3   OH240807   3.010   1.458  10.888  0.2438 -0.3026  0.1050
 6439TIP3    H140808   2.967   1.528  10.937  1.2474  1.3215 -1.2401
 6439TIP3    H240809   3.101   1.462  10.915  1.5156  2.5758 -3.7358
 6440TIP3   OH240810   5.552   2.956   1.976 -0.0264 -0.0312  0.4312
 6440TIP3    H140811   5.589   3.035   2.016 -0.1185  0.3304 -0.1817
 6440TIP3    H240812   5.457   2.967   1.986 -0.0439 -0.0030  0.2324
 6441TIP3   OH240813   1.768   6.653   3.837  0.1055 -0.1701  0.1960
 6441TIP3    H140814   1.786   6.581   3.777  0.2162  0.8789 -1.0754
 6441TIP3    H240815   1.845   6.709   3.830 -0.0541  0.1647  1.0359
 6442TIP3   OH240816   1.070   4.534   2.548  0.1648  0.6594 -0.4044
 6442TIP3    H140817   1.096   4.574   2.465  0.8230  0.0764 -0.4900
 6442TIP3    H240818   1.104   4.445   2.543  1.2049  0.9427  0.9408
 6443TIP3   OH240819   3.291   0.904  16.521 -0.4942  0.1393 -0.3019
 6443TIP3    H140820   3.245   0.974  16.567  0.1095  0.7819 -0.6591
 6443TIP3    H240821   3.316   0.842  16.589  0.2141  0.9786  0.2196
 6444TIP3   OH240822   4.061   3.617   1.026 -0.6548  0.0373  0.3614
 6444TIP3    H140823   4.058   3.634   1.120 -0.7436  0.3752  0.3008
 6444TIP3    H240824   4.098   3.697   0.989  1.5587 -0.9316  0.3113
 6445TIP3   OH240825   2.082   5.773  12.005  0.0156  0.3722  0.0883
 6445TIP3    H140826   2.159   5.718  12.017 -0.8508 -0.7140  0.9391
 6445TIP3    H240827   2.041   5.738  11.926  0.3911  0.9704 -0.3818
 6446TIP3   OH240828   2.932   0.953  16.321 -0.1597  0.1871  0.2298
 6446TIP3    H140829   2.897   0.961  16.410  1.0192  0.1174  0.7209
 6446TIP3    H240830   2.970   1.039  16.302  2.1194 -0.5795  0.9441
 6447TIP3   OH240831   4.924   1.392  14.538  0.4720 -0.6908  0.0771
 6447TIP3    H140832   4.843   1.399  14.590  2.2254  1.0332  2.8799
 6447TIP3    H240833   4.989   1.361  14.601  2.5287  0.4634 -1.3762
 6448TIP3   OH240834   2.739   1.184   1.056  0.1230  0.4084  0.0325
 6448TIP3    H140835   2.691   1.119   1.108  2.4540 -0.4349  1.2927
 6448TIP3    H240836   2.761   1.253   1.119  1.9575 -0.0462 -0.0546
 6449TIP3   OH240837   2.231   5.216  13.528 -0.0235  0.1410 -0.3787
 6449TIP3    H140838   2.247   5.124  13.510  0.1196 -0.5921  2.8723
 6449TIP3    H240839   2.317   5.251  13.551 -0.3770  0.5904  0.2755
 6450TIP3   OH240840   1.012   0.246  11.621 -0.5427 -0.8427  0.1398
 6450TIP3    H140841   1.076   0.220  11.687  0.4545  1.0596 -0.0297
 6450TIP3    H240842   0.973   0.326  11.655 -1.0543 -0.6363 -0.9089
 6451TIP3   OH240843   0.890   5.973  15.722  0.0740 -0.3629  0.4267
 6451TIP3    H140844   0.947   5.974  15.646  0.3306  0.4623  0.6172
 6451TIP3    H240845   0.910   5.890  15.766 -0.3309 -1.0122 -0.5721
 6452TIP3   OH240846   5.148   2.534  13.289 -0.3022  0.1454  0.6819
 6452TIP3    H140847   5.215   2.536  13.221 -1.7222 -0.8201 -0.8330
 6452TIP3    H240848   5.136   2.625  13.315 -0.7424  0.7315 -1.4515
 6453TIP3   OH240849   0.030   2.543   2.253  0.1238  0.0444 -0.3892
 6453TIP3    H140850  -0.031   2.479   2.290 -1.4584  1.6901  0.0036
 6453TIP3    H240851   0.012   2.542   2.159 -0.2332  0.2422 -0.3240
 6454TIP3   OH240852   4.351   4.333  13.813  0.1634  0.0408 -0.7733
 6454TIP3    H140853   4.444   4.352  13.820  0.5213 -1.7021 -0.5228
 6454TIP3    H240854   4.313   4.371  13.893  0.8487 -0.2862 -0.2840
 6455TIP3   OH240855   5.810   6.354  12.010  0.2709 -0.2559  0.5420
 6455TIP3    H140856   5.801   6.266  12.045  2.4176 -0.6934  0.1311
 6455TIP3    H240857   5.848   6.342  11.923 -2.6818  0.9394 -1.0538
 6456TIP3   OH240858   4.283   2.403  11.684 -0.2544 -0.5442 -0.0198
 6456TIP3    H140859   4.370   2.443  11.684 -0.0548 -0.9443  1.0189
 6456TIP3    H240860   4.247   2.424  11.598  1.5681 -1.8994 -1.1898
 6457TIP3   OH240861   2.616   4.100   1.350  1.0670  0.2122 -0.4203
 6457TIP3    H140862   2.636   4.050   1.429 -0.7420  1.3880  0.8730
 6457TIP3    H240863   2.598   4.034   1.284  1.4572 -0.8142  0.4588
 6458TIP3   OH240864   5.244   2.925  16.784 -0.2118 -0.1204 -0.0057
 6458TIP3    H140865   5.229   3.016  16.808 -0.2979 -0.1560  0.0808
 6458TIP3    H240866   5.160   2.895  16.749 -0.0471 -0.0312 -0.4796
 6459TIP3   OH240867   0.894   6.058   3.911  0.1704  0.2150 -0.3097
 6459TIP3    H140868   0.819   6.053   3.970  0.0873  1.8402 -0.2294
 6459TIP3    H240869   0.955   5.992   3.944 -0.1615  0.6198  1.1833
 6460TIP3   OH240870   0.593   6.293   1.929  0.0597 -0.0619  0.5629
 6460TIP3    H140871   0.636   6.372   1.963  2.1314  0.1724 -2.3158
 6460TIP3    H240872   0.631   6.221   1.980 -0.5371  0.5817  1.9937
 6461TIP3   OH240873   5.709   6.625  16.041  0.1953  0.3037 -0.0095
 6461TIP3    H140874   5.713   6.594  16.132 -1.5391  0.4938  0.1719
 6461TIP3    H240875   5.661   6.708  16.047 -1.9211 -0.7426 -1.3092
 6462TIP3   OH240876   6.646   5.099   5.395  0.1986  0.2838  0.1218
 6462TIP3    H140877   6.713   5.128   5.333 -1.8814  2.5664 -1.2656
 6462TIP3    H240878   6.685   5.024   5.440  3.1101  0.6606 -1.5372
 6463TIP3   OH240879   4.088   4.266   1.838 -0.6268  0.5374  0.6956
 6463TIP3    H140880   4.025   4.194   1.836  1.4009 -1.4090 -2.4029
 6463TIP3    H240881   4.162   4.233   1.889  1.0300 -0.5128 -2.0964
 6464TIP3   OH240882   3.567   2.474  12.733  0.5465 -0.5386 -0.0160
 6464TIP3    H140883   3.476   2.494  12.754  0.5289 -1.2162  0.5795
 6464TIP3    H240884   3.583   2.520  12.650 -0.4165 -0.6356 -0.2723
 6465TIP3   OH240885   4.122   5.858  15.399  0.2533  0.5795  0.1297
 6465TIP3    H140886   4.036   5.823  15.374  0.6263  0.1023 -0.5112
 6465TIP3    H240887   4.184   5.788  15.377  0.9132  1.2885 -0.3106
 6466TIP3   OH240888   1.638   4.008  16.742  0.0025  0.2041  0.2507
 6466TIP3    H140889   1.640   3.941  16.674 -1.9647  2.2014 -1.9319
 6466TIP3    H240890   1.566   3.982  16.799 -0.7915  0.4511 -0.6219
 6467TIP3   OH240891   0.784   0.391  11.459  0.0903 -0.4550  0.3956
 6467TIP3    H140892   0.780   0.409  11.553  3.3968  1.5261  0.3158
 6467TIP3    H240893   0.726   0.455  11.420 -0.1228 -0.2623  1.0164
 6468TIP3   OH240894   0.567   0.407  11.701 -0.0498  0.5021 -0.3575
 6468TIP3    H140895   0.556   0.319  11.736 -0.1663  0.2411 -1.0420
 6468TIP3    H240896   0.658   0.429  11.718 -0.0284  0.2585 -0.1665
 6469TIP3   OH240897   1.356   1.707   3.314  0.5413  0.1959  0.0671
 6469TIP3    H140898   1.287   1.678   3.254  1.0830  1.5010 -1.2662
 6469TIP3    H240899   1.334   1.668   3.398 -1.5451  0.1710 -0.4467
 6470TIP3   OH240900   5.088   5.481  10.846 -0.2782  0.6545 -0.6108
 6470TIP3    H140901   5.050   5.528  10.772  1.6848 -0.0622 -2.1720
 6470TIP3    H240902   5.109   5.394  10.812 -0.0399  0.0285  1.0242
 6471TIP3   OH240903   3.759   1.488  12.151 -0.3114 -0.1361 -0.2947
 6471TIP3    H140904   3.759   1.560  12.088 -0.0491 -0.2947 -0.4750
 6471TIP3    H240905   3.840   1.440  12.133  0.7143  0.8605  1.3362
 6472TIP3   OH240906   6.507   3.252   5.757  0.3256 -0.2107 -0.2050
 6472TIP3    H140907   6.574   3.201   5.711  0.0011 -0.3698 -0.5066
 6472TIP3    H240908   6.479   3.194   5.829 -0.0381 -0.4582 -0.5431
 6473TIP3   OH240909   1.213   0.555   5.397  0.5513 -0.3949 -0.5652
 6473TIP3    H140910   1.260   0.477   5.366  0.3381 -0.9822  0.5640
 6473TIP3    H240911   1.244   0.568   5.486  1.5922  1.6200 -1.1470
 6474TIP3   OH240912   3.957   0.289  13.010 -0.1884 -0.0820  0.2285
 6474TIP3    H140913   3.937   0.364  13.066  1.3605  0.7748 -0.3179
 6474TIP3    H240914   4.050   0.272  13.024 -0.4169 -1.6669  0.0424
 6475TIP3   OH240915   3.372   6.673  13.740  0.4015  0.0866 -0.0154
 6475TIP3    H140916   3.308   6.605  13.719 -1.8337  1.9642  0.1492
 6475TIP3    H240917   3.372   6.677  13.836  1.6930 -0.6814  0.0286
 6476TIP3   OH240918   6.627   5.358  11.141 -0.2317  0.0805  0.0256
 6476TIP3    H140919   6.588   5.445  11.145  0.2345  0.2639  0.7899
 6476TIP3    H240920   6.695   5.359  11.208 -1.2533 -1.3823  1.1382
 6477TIP3   OH240921   4.059   1.253  14.097  0.0870  0.0462  0.0772
 6477TIP3    H140922   3.989   1.192  14.122  0.3091 -1.8065 -3.1937
 6477TIP3    H240923   4.134   1.197  14.080  1.3778  1.6528  0.2758
 6478TIP3   OH240924   0.325   1.501  15.978  0.3337 -0.5828 -0.2301
 6478TIP3    H140925   0.286   1.574  16.025 -0.0262 -0.6839 -0.3688
 6478TIP3    H240926   0.407   1.483  16.025 -0.2976 -1.0640  0.7196
 6479TIP3   OH240927   5.385   4.232  14.486 -0.0055 -0.4768  0.1263
 6479TIP3    H140928   5.313   4.173  14.506  0.8023 -0.4370  3.8983
 6479TIP3    H240929   5.464   4.178  14.497  0.6719  0.7786  2.0630
 6480TIP3   OH240930   3.324   5.178   2.033 -0.7041  0.4306 -1.0241
 6480TIP3    H140931   3.344   5.117   2.105 -1.2694 -0.2038 -1.3944
 6480TIP3    H240932   3.336   5.126   1.954 -2.1807  0.4918 -1.3108
 6481TIP3   OH240933   2.812   2.409   1.649  0.2834 -0.7085  0.8043
 6481TIP3    H140934   2.807   2.331   1.703 -0.5632 -0.8765  0.5088
 6481TIP3    H240935   2.724   2.417   1.611  0.5286  0.0547  0.3759
 6482TIP3   OH240936   1.839   2.888  16.300 -0.0273  0.5920 -0.3002
 6482TIP3    H140937   1.913   2.903  16.240  0.4882  0.9884  0.4157
 6482TIP3    H240938   1.842   2.794  16.318  0.6467  0.6851  0.1342
 6483TIP3   OH240939   1.416   1.844  15.826  0.0671 -1.4013 -0.4089
 6483TIP3    H140940   1.475   1.842  15.901 -1.3826  0.5522  0.9043
 6483TIP3    H240941   1.377   1.757  15.823  1.3465 -2.0004  0.1014
 6484TIP3   OH240942   0.501   1.126   4.399 -0.2284  0.0109  0.0330
 6484TIP3    H140943   0.547   1.055   4.444  2.3559  0.9845 -0.9023
 6484TIP3    H240944   0.500   1.198   4.463  2.9610  1.2099 -1.0683
 6485TIP3   OH240945   4.727   1.583  16.602 -0.2195  0.7078  0.0894
 6485TIP3    H140946   4.733   1.540  16.517 -0.8432  1.2959 -0.2574
 6485TIP3    H240947   4.794   1.652  16.598 -0.8285  1.2808 -0.2475
 6486TIP3   OH240948   0.300   3.167   5.174 -0.7390  0.2515 -0.1940
 6486TIP3    H140949   0.217   3.177   5.127 -0.9697 -2.0463 -0.3692
 6486TIP3    H240950   0.300   3.076   5.204  0.0957  1.1742  2.9707
 6487TIP3   OH240951   2.135   5.885   4.759 -1.0430  0.0979  0.2064
 6487TIP3    H140952   2.210   5.882   4.817 -2.0742 -1.1151  1.5397
 6487TIP3    H240953   2.076   5.949   4.798 -1.1477  0.3094 -0.2826
 6488TIP3   OH240954   5.441   6.397  11.798  0.0915  0.3024 -0.3531
 6488TIP3    H140955   5.528   6.368  11.773  0.3781  0.6145  0.2651
 6488TIP3    H240956   5.382   6.352  11.736  0.5624 -1.1366  0.1929
 6489TIP3   OH240957   2.376   0.745   0.716 -0.6533  0.6922  0.2215
 6489TIP3    H140958   2.336   0.757   0.630 -0.8850  1.5119  0.4361
 6489TIP3    H240959   2.406   0.833   0.741  3.9265 -0.1756 -1.1822
 6490TIP3   OH240960   2.565   4.953   5.602  0.3744  0.1176 -0.0382
 6490TIP3    H140961   2.487   4.953   5.658 -1.1314 -0.3693 -2.0041
 6490TIP3    H240962   2.610   4.871   5.624 -1.2297 -1.0410 -0.8179
 6491TIP3   OH240963   2.752   3.671  14.549  0.9256 -0.2319 -0.2648
 6491TIP3    H140964   2.681   3.709  14.601  1.3166 -1.1894  1.0093
 6491TIP3    H240965   2.708   3.635  14.471  0.1679  0.1396 -0.0136
 6492TIP3   OH240966   3.030   2.276  12.860 -0.7860  0.0010  0.4754
 6492TIP3    H140967   3.006   2.239  12.775 -0.0379 -1.1366  0.7389
 6492TIP3    H240968   3.093   2.345  12.839  0.7884 -1.4649  0.1771
 6493TIP3   OH240969   3.265   3.711  11.608 -0.0302  0.0602 -0.6774
 6493TIP3    H140970   3.213   3.761  11.545 -0.4457 -1.4217 -1.5420
 6493TIP3    H240971   3.355   3.726  11.582 -0.1028  1.0173 -0.4116
 6494TIP3   OH240972   6.357   2.107  16.261 -0.2219  0.4520  0.1401
 6494TIP3    H140973   6.399   2.022  16.267 -2.1862 -0.6814 -1.0085
 6494TIP3    H240974   6.365   2.131  16.168 -0.4529  1.0810  0.2796
 6495TIP3   OH240975   6.789   6.077   0.963  0.0525 -0.0387  0.0718
 6495TIP3    H140976   6.771   6.163   0.926 -0.5274 -0.3051 -0.2879
 6495TIP3    H240977   6.706   6.051   1.004  0.5981  0.1262  1.3266
 6496TIP3   OH240978   6.570   6.172  10.802 -0.6651 -0.7023  0.3582
 6496TIP3    H140979   6.638   6.141  10.742 -0.6608 -0.7255  0.3753
 6496TIP3    H240980   6.501   6.205  10.745 -0.1038  0.5142  0.3440
 6497TIP3   OH240981   3.396   4.914   0.373 -0.3518  0.4479 -0.0961
 6497TIP3    H140982   3.422   4.842   0.316  1.0935  1.6374 -1.0233
 6497TIP3    H240983   3.387   4.874   0.460  0.4904 -0.8315 -0.5663
 6498TIP3   OH240984   2.335   3.182  14.925 -0.2599  1.1035 -0.0310
 6498TIP3    H140985   2.353   3.267  14.965 -0.1392  1.4418 -0.7956
 6498TIP3    H240986   2.373   3.187  14.838 -0.4882  0.3590 -0.1873
 6499TIP3   OH240987   2.933   3.903  11.900 -0.3339  0.3704  0.2731
 6499TIP3    H140988   2.913   3.852  11.978  1.8144  0.2938  0.8350
 6499TIP3    H240989   2.965   3.840  11.836 -0.2968  0.6738 -0.0156
 6500TIP3   OH240990   1.857   4.952  14.192  0.2248 -0.4988 -0.1263
 6500TIP3    H140991   1.898   5.002  14.263 -1.0698 -1.4527  1.3721
 6500TIP3    H240992   1.781   5.004  14.166  0.0037 -0.7180  0.0652
 6501TIP3   OH240993   4.060   2.388   4.487  0.1570  0.7474 -0.0032
 6501TIP3    H140994   3.991   2.327   4.462 -0.9619  3.1819 -3.6097
 6501TIP3    H240995   4.035   2.418   4.574 -2.1786 -0.0200 -0.3364
 6502TIP3   OH240996   3.402   4.167   5.155  0.9580  0.2447 -0.2031
 6502TIP3    H140997   3.360   4.188   5.072  1.2358  0.5830 -0.2601
 6502TIP3    H240998   3.390   4.245   5.209  1.2636  0.2397 -0.1240
 6503TIP3   OH240999   4.020   2.381  15.779  0.1264  0.2333  0.8847
 6503TIP3    H141000   4.108   2.415  15.765 -0.0853  1.4838  2.3385
 6503TIP3    H241001   3.987   2.364  15.691  1.2932  1.1390  0.2372
 6504TIP3   OH241002   2.125   5.544   2.003  0.3505 -0.2953  0.1079
 6504TIP3    H141003   2.089   5.456   1.998  0.3371 -0.2019 -2.4911
 6504TIP3    H241004   2.217   5.532   2.025  0.2117 -0.9117  0.3546
 6505TIP3   OH241005   6.156   1.875   1.392 -0.0952 -1.1408 -0.6907
 6505TIP3    H141006   6.112   1.856   1.309 -0.4429 -1.4585 -0.4360
 6505TIP3    H241007   6.203   1.956   1.376  1.2463 -2.0834 -1.7450
 6506TIP3   OH241008   4.843   0.579   3.737  0.3860  0.2620  0.6289
 6506TIP3    H141009   4.921   0.623   3.771  0.3925  0.5254  0.2727
 6506TIP3    H241010   4.865   0.558   3.646  0.4837 -0.7097  0.8585
 6507TIP3   OH241011   4.505   5.254  16.731  0.3189 -0.1928 -0.0247
 6507TIP3    H141012   4.490   5.348  16.732 -1.3649 -0.4285  0.3412
 6507TIP3    H241013   4.584   5.241  16.783  0.4543  0.9962  0.0806
 6508TIP3   OH241014   6.581   1.062  13.807  0.1736  0.2590  0.0525
 6508TIP3    H141015   6.630   1.100  13.735 -2.3234  1.8188 -0.9901
 6508TIP3    H241016   6.546   1.138  13.854 -0.5294 -0.7458  1.2144
 6509TIP3   OH241017   2.156   3.825   4.708  0.0329  0.0667 -0.3590
 6509TIP3    H141018   2.061   3.817   4.710 -0.0478  0.7613 -0.9982
 6509TIP3    H241019   2.186   3.784   4.789 -0.7694 -0.7005 -0.4436
 6510TIP3   OH241020   0.302   0.270   0.512  0.2270 -0.0590  0.2475
 6510TIP3    H141021   0.244   0.200   0.541  1.4343 -1.0810  0.3187
 6510TIP3    H241022   0.389   0.229   0.509  0.5152  0.5598 -2.8065
 6511TIP3   OH241023   5.600   4.662  13.075 -0.6194 -0.1659  0.7741
 6511TIP3    H141024   5.692   4.658  13.102 -0.7789 -0.3838  1.3000
 6511TIP3    H241025   5.569   4.572  13.084 -0.3981 -0.4790 -1.1800
 6512TIP3   OH241026   0.771   4.511   3.420 -0.0070 -0.3636  0.1039
 6512TIP3    H141027   0.715   4.459   3.478  0.5506 -1.3491 -0.2060
 6512TIP3    H241028   0.743   4.485   3.332  0.1305  0.0421 -0.0616
 6513TIP3   OH241029   3.295   6.743  17.046  0.4909 -0.0436 -0.0785
 6513TIP3    H141030   3.330   6.670  17.096 -0.6860 -0.6211 -0.0609
 6513TIP3    H241031   3.247   6.702  16.974  0.8364  0.7426 -0.7768
 6514TIP3   OH241032   4.305   0.751   0.249 -0.3709 -0.6441 -0.3329
 6514TIP3    H141033   4.264   0.815   0.308  1.8016 -0.8668  1.5383
 6514TIP3    H241034   4.344   0.805   0.180  1.8533  0.2264  1.4759
 6515TIP3   OH241035   5.386   2.092   4.437  0.3516  0.3776 -0.4595
 6515TIP3    H141036   5.420   2.043   4.363 -1.1749 -0.0052 -0.9267
 6515TIP3    H241037   5.309   2.044   4.466 -0.5412  1.8765 -0.2259
 6516TIP3   OH241038   6.047   0.408   3.594  0.4985  1.0055 -0.3598
 6516TIP3    H141039   6.034   0.442   3.682  0.6806 -0.1398  0.1285
 6516TIP3    H241040   5.985   0.334   3.587  0.9444  0.6752 -0.9532
 6517TIP3   OH241041   1.932   5.071   2.052  0.1613  0.7316 -0.5130
 6517TIP3    H141042   2.011   5.116   2.081  0.2653  0.4153 -0.2937
 6517TIP3    H241043   1.860   5.118   2.093  0.3247  0.1086  0.5120
 6518TIP3   OH241044   2.665   2.935   4.191  0.0195  1.0510 -0.1185
 6518TIP3    H141045   2.611   2.902   4.119  0.3239  1.7138 -0.6650
 6518TIP3    H241046   2.751   2.896   4.177 -0.4088 -0.4173  1.0450
 6519TIP3   OH241047   5.891   1.552  13.575 -0.2571  0.1450  0.4265
 6519TIP3    H141048   5.968   1.609  13.574  0.1643 -0.4182  0.2689
 6519TIP3    H241049   5.837   1.585  13.503  2.2576 -2.6434 -3.1005
 6520TIP3   OH241050   6.532   3.749   5.043 -0.1574  0.7090 -0.2448
 6520TIP3    H141051   6.615   3.758   4.996 -0.0278  1.4871  0.1189
 6520TIP3    H241052   6.542   3.669   5.095 -0.4570 -0.3994 -1.8216
 6521TIP3   OH241053   1.565   1.722  12.629  0.0653  0.2248 -0.4502
 6521TIP3    H141054   1.606   1.750  12.711  2.0943 -1.1640 -0.9208
 6521TIP3    H241055   1.484   1.678  12.657 -0.0132  1.0211  0.6783
 6522TIP3   OH241056   2.613   1.308  16.410  0.3651 -0.3275 -0.4683
 6522TIP3    H141057   2.600   1.359  16.330 -0.5974  0.2348  0.0357
 6522TIP3    H241058   2.666   1.233  16.382 -0.1289 -0.2502 -1.6727
 6523TIP3   OH241059   2.591   4.564  15.808  0.4655 -0.0852  0.1821
 6523TIP3    H141060   2.576   4.508  15.732 -0.5615  0.0244  0.2872
 6523TIP3    H241061   2.524   4.633  15.801  0.1029 -0.2903  1.3701
 6524TIP3   OH241062   3.752   3.493   2.875 -0.1695  0.4983  0.5870
 6524TIP3    H141063   3.719   3.580   2.854  1.7693  0.9572 -0.8529
 6524TIP3    H241064   3.684   3.433   2.843 -1.2077  1.4420  0.9711
 6525TIP3   OH241065   6.245   5.241  16.636  0.1494  0.2884 -0.1752
 6525TIP3    H141066   6.212   5.327  16.609 -0.3955 -0.1708 -0.9967
 6525TIP3    H241067   6.292   5.208  16.560  1.2861  0.3004  0.4962
 6526TIP3   OH241068   1.441   0.881  13.728 -0.1682 -0.1296  0.1747
 6526TIP3    H141069   1.365   0.927  13.692 -0.2574  0.2014  0.7847
 6526TIP3    H241070   1.517   0.928  13.692 -0.2575  0.1183  0.3064
 6527TIP3   OH241071   0.803   3.138  12.741 -0.5420  0.2803  0.1855
 6527TIP3    H141072   0.779   3.196  12.669 -2.4452  1.3440  1.6157
 6527TIP3    H241073   0.772   3.052  12.714 -2.6019  0.9407  0.3351
 6528TIP3   OH241074   5.733   0.995  17.143  0.1871 -1.3414 -0.5095
 6528TIP3    H141075   5.678   0.928  17.182 -1.5025  0.9945  1.4479
 6528TIP3    H241076   5.722   1.071  17.200  1.8171  0.6910 -2.7041
 6529TIP3   OH241077   2.355   4.982   0.392 -0.3776  0.0939  0.1243
 6529TIP3    H141078   2.324   5.073   0.395  0.2503  0.2855  0.8609
 6529TIP3    H241079   2.284   4.935   0.347 -0.6232  0.9738 -0.4381
 6530TIP3   OH241080   2.935   6.480  12.413  0.4655 -0.3693  0.7065
 6530TIP3    H141081   2.927   6.575  12.420 -1.0236 -0.3068 -0.9495
 6530TIP3    H241082   2.888   6.446  12.489  1.5859  0.1907  1.6799
 6531TIP3   OH241083   0.785   4.397   2.158  0.8191 -0.4428  0.7540
 6531TIP3    H141084   0.755   4.334   2.093  1.5734  0.9717 -1.0525
 6531TIP3    H241085   0.705   4.439   2.191  0.5022 -0.0368 -0.4878
 6532TIP3   OH241086   0.420   1.393  12.549 -0.3034  0.4007 -0.0733
 6532TIP3    H141087   0.412   1.316  12.605  2.2908  0.3696  0.3716
 6532TIP3    H241088   0.405   1.361  12.461  2.3881 -1.0656 -0.0956
 6533TIP3   OH241089   1.117   1.476  16.524 -0.6582 -0.0639  0.1989
 6533TIP3    H141090   1.112   1.562  16.565  1.3705  0.6622 -0.9243
 6533TIP3    H241091   1.147   1.418  16.594  2.2119  1.0438  0.0491
 6534TIP3   OH241092   6.780   5.583   2.872 -0.0589  0.9968  0.0254
 6534TIP3    H141093   6.767   5.588   2.967  1.7035  0.4359  0.3303
 6534TIP3    H241094   6.855   5.639   2.855  0.7424 -0.2652 -0.7615
 6535TIP3   OH241095   4.791   0.067   4.883  0.4687  0.1987 -0.5105
 6535TIP3    H141096   4.751   0.126   4.819 -2.6936  0.0732  1.1591
 6535TIP3    H241097   4.806   0.122   4.961 -0.6984 -0.7468  0.4033
 6536TIP3   OH241098   5.720   4.470   0.352  0.2155 -0.0258  0.4729
 6536TIP3    H141099   5.792   4.492   0.411  0.5019 -3.5137  1.6451
 6536TIP3    H241100   5.753   4.398   0.300 -1.8988 -0.6370 -0.1190
 6537TIP3   OH241101   4.091   5.490  13.175  0.4736  0.0348  0.7307
 6537TIP3    H141102   4.163   5.553  13.163  1.4228 -1.0132  0.7434
 6537TIP3    H241103   4.070   5.460  13.087 -1.1883  1.6155  0.5244
 6538TIP3   OH241104   0.615   2.080   6.573 -0.0422  0.2372 -0.5656
 6538TIP3    H141105   0.529   2.039   6.560 -0.0959  0.4393 -0.8726
 6538TIP3    H241106   0.666   2.055   6.496  0.8840 -1.6041  0.5861
 6539TIP3   OH241107   6.110   4.077  11.580 -0.3233 -0.6179 -0.5359
 6539TIP3    H141108   6.150   3.995  11.552  1.0066 -0.1164 -0.2124
 6539TIP3    H241109   6.149   4.144  11.524  0.9956  0.1626  1.1883
 6540TIP3   OH241110   3.201   3.242   5.463  0.3171  0.1591  0.4316
 6540TIP3    H141111   3.148   3.172   5.500 -0.4029  0.5793  0.2042
 6540TIP3    H241112   3.261   3.266   5.533 -0.4115  0.3067  1.0156
 6541TIP3   OH241113   4.051   1.926   3.967 -0.3966 -0.0964 -0.8145
 6541TIP3    H141114   4.131   1.950   4.014  0.7052 -2.9716 -1.0481
 6541TIP3    H241115   3.981   1.939   4.031  0.4445  0.7538 -0.0273
 6542TIP3   OH241116   4.243   5.431   1.072  0.1016  0.6629  0.1576
 6542TIP3    H141117   4.264   5.426   1.166 -0.6803  1.0142  0.3641
 6542TIP3    H241118   4.261   5.522   1.049  0.5270  0.5143 -0.0940
 6543TIP3   OH241119   0.228   5.690   5.635 -0.1676 -0.3875  0.5251
 6543TIP3    H141120   0.287   5.749   5.683  0.0424  0.8047 -1.1390
 6543TIP3    H241121   0.246   5.603   5.672  3.5199 -0.2917 -0.6589
 6544TIP3   OH241122   4.853   3.908  14.974  0.4744  0.3120 -0.1861
 6544TIP3    H141123   4.860   4.002  14.956 -0.7958  0.4581 -0.0532
 6544TIP3    H241124   4.824   3.904  15.065 -2.6205 -0.0354 -1.0644
 6545TIP3   OH241125   3.747   1.320   2.812  0.1131  0.0408 -0.6366
 6545TIP3    H141126   3.696   1.357   2.739  0.2302  3.2020  0.7078
 6545TIP3    H241127   3.683   1.307   2.882  0.6498  1.5577  0.1917
 6546TIP3   OH241128   2.084   5.622  14.181  0.2215 -0.8176 -0.1771
 6546TIP3    H141129   2.011   5.683  14.198  0.9428  0.2251 -0.7007
 6546TIP3    H241130   2.053   5.538  14.214 -0.7594 -0.1385  0.7113
 6547TIP3   OH241131   2.714   5.695   1.882 -0.1398  0.4363 -0.1761
 6547TIP3    H141132   2.643   5.708   1.820  0.3409 -0.0611 -0.8460
 6547TIP3    H241133   2.794   5.697   1.828  0.2678 -0.2839  0.3771
 6548TIP3   OH241134   4.567   6.141  14.883  0.0644 -0.0152  0.0047
 6548TIP3    H141135   4.568   6.166  14.976  1.3044 -0.2119  0.0689
 6548TIP3    H241136   4.581   6.223  14.836 -1.5386  0.2407 -0.0825
 6549TIP3   OH241137   3.127   6.041  15.196 -0.3259 -0.2901  0.5346
 6549TIP3    H141138   3.062   5.988  15.243  0.1025  1.1420  2.9428
 6549TIP3    H241139   3.083   6.125  15.183 -0.0138 -0.2961 -0.6913
 6550TIP3   OH241140   1.587   2.774   0.716  0.2813 -0.2656 -0.8761
 6550TIP3    H141141   1.508   2.823   0.739  0.1440 -0.0113 -1.8316
 6550TIP3    H241142   1.659   2.825   0.755  0.0491  0.0380 -0.8359
 6551TIP3   OH241143   3.756   6.019  17.122  0.6166  0.3163 -0.2399
 6551TIP3    H141144   3.725   5.932  17.148 -2.8467  0.4911 -3.0734
 6551TIP3    H241145   3.836   6.001  17.072  0.4938 -1.1304  0.0321
 6552TIP3   OH241146   5.580   4.873  11.821 -0.3409  0.0115 -0.3375
 6552TIP3    H141147   5.625   4.889  11.738 -0.4780  0.0910 -0.3965
 6552TIP3    H241148   5.550   4.782  11.814  0.1959 -0.1843 -0.1178
 6553TIP3   OH241149   5.835   2.477   3.865  0.2138  0.2779  0.4203
 6553TIP3    H141150   5.918   2.459   3.910  0.6843  2.0304  0.3260
 6553TIP3    H241151   5.818   2.398   3.814  1.1602 -0.6186  1.4266
 6554TIP3   OH241152   5.027   2.210   4.988  0.8947  0.3069 -0.1533
 6554TIP3    H141153   4.987   2.135   4.944 -0.6390  0.6306  0.6081
 6554TIP3    H241154   4.995   2.286   4.939  0.2281  0.5921  0.6965
 6555TIP3   OH241155   5.767   0.816  15.852  0.8147 -0.2347  0.1027
 6555TIP3    H141156   5.861   0.830  15.860  0.6467  0.4802  0.9567
 6555TIP3    H241157   5.758   0.721  15.841  1.6424 -0.2750 -0.3541
 6556TIP3   OH241158   2.840   2.666   2.698  0.5400 -0.4711 -0.0405
 6556TIP3    H141159   2.753   2.651   2.662 -0.9453  2.3248  1.9832
 6556TIP3    H241160   2.860   2.586   2.746 -1.2383 -0.9177  0.0298
 6557TIP3   OH241161   1.682   4.559   5.923 -0.0980  0.1669  0.0838
 6557TIP3    H141162   1.724   4.572   6.008  0.8548 -1.3011 -0.1305
 6557TIP3    H241163   1.600   4.513   5.944 -0.8439  1.5640  0.3542
 6558TIP3   OH241164   0.787   3.441  11.179  0.2314  0.0432 -0.2659
 6558TIP3    H141165   0.815   3.372  11.118  0.9249 -0.0341  0.1320
 6558TIP3    H241166   0.692   3.438  11.176  0.2568 -0.5404 -0.6980
 6559TIP3   OH241167   2.413   6.510  16.128  0.0692 -0.2060 -0.1850
 6559TIP3    H141168   2.508   6.522  16.137  0.3381 -1.3610 -1.2087
 6559TIP3    H241169   2.383   6.487  16.216  0.2244  2.9808  0.8427
 6560TIP3   OH241170   6.502   4.095  11.474  0.0628  0.0368 -0.3604
 6560TIP3    H141171   6.514   4.008  11.513  0.0474  0.3650  0.3878
 6560TIP3    H241172   6.510   4.080  11.379  0.8004 -0.6557 -0.1994
 6561TIP3   OH241173   3.665   5.065   5.837 -0.6719 -0.0594  0.1580
 6561TIP3    H141174   3.699   5.130   5.898 -1.7764 -0.1251  0.8579
 6561TIP3    H241175   3.726   4.992   5.844 -1.4628 -0.5910  2.1710
 6562TIP3   OH241176   1.146   6.363   4.072  0.1406  0.3192 -0.1588
 6562TIP3    H141177   1.099   6.290   4.112  2.0888 -0.7149  0.3964
 6562TIP3    H241178   1.139   6.434   4.137 -1.9909  0.7699 -0.8214
 6563TIP3   OH241179   3.636   5.088  12.672 -0.2563 -0.6525  0.3456
 6563TIP3    H141180   3.658   5.065  12.581  0.8074  0.9461  0.1694
 6563TIP3    H241181   3.562   5.030  12.693 -0.2293 -1.3925 -1.3652
 6564TIP3   OH241182   0.431   5.350  13.354 -0.0447  0.2661  0.0854
 6564TIP3    H141183   0.338   5.327  13.354 -0.0742  0.3260  1.1396
 6564TIP3    H241184   0.435   5.433  13.402  0.5996  0.0469  0.4183
 6565TIP3   OH241185   3.691   4.932   0.050  0.4020 -0.2889  0.0454
 6565TIP3    H141186   3.757   4.878   0.007  1.8689  0.9881  0.5900
 6565TIP3    H241187   3.736   5.014   0.070 -1.5532  0.9084 -0.1565
 6566TIP3   OH241188   0.386   3.700  15.566 -0.0027  0.0163  0.2464
 6566TIP3    H141189   0.290   3.696  15.565  0.0261 -0.6996 -0.5198
 6566TIP3    H241190   0.406   3.789  15.536 -0.4145 -0.4826 -1.6305
 6567TIP3   OH241191   6.005   4.930  14.205 -0.2794 -0.1238  0.0911
 6567TIP3    H141192   6.004   4.959  14.114  0.1355  1.2719  0.5136
 6567TIP3    H241193   5.918   4.953  14.238 -0.2700 -0.2163  0.1800
 6568TIP3   OH241194   3.685   1.988   2.769  0.2696  0.1447 -0.3276
 6568TIP3    H141195   3.620   2.057   2.756  0.1027  0.2313  0.8734
 6568TIP3    H241196   3.746   1.999   2.696  1.4249  2.9147  0.9123
 6569TIP3   OH241197   0.569   6.471   0.596 -0.3967  0.7622  0.8044
 6569TIP3    H141198   0.574   6.523   0.676 -0.2296  1.8011  0.1372
 6569TIP3    H241199   0.476   6.469   0.574 -0.1693  3.3798 -0.7858
 6570TIP3   OH241200   4.753   3.454  17.011  0.4265  0.0878 -0.1648
 6570TIP3    H141201   4.732   3.493  16.926  0.1128 -0.6892 -0.4544
 6570TIP3    H241202   4.844   3.428  17.004  0.1363 -0.8544 -0.6249
 6571TIP3   OH241203   4.481   5.230   5.331  0.3698  0.3110  0.2497
 6571TIP3    H141204   4.401   5.278   5.306 -0.4807 -0.6559  1.0293
 6571TIP3    H241205   4.454   5.138   5.333  1.3727  0.0185  1.0283
 6572TIP3   OH241206   0.045   3.768   2.327  0.0460 -0.1076  0.0533
 6572TIP3    H141207   0.096   3.822   2.266 -0.5741  1.2797  0.7303
 6572TIP3    H241208   0.106   3.701   2.356  0.3258 -0.9289 -2.2004
 6573TIP3   OH241209   0.400   3.196  12.742 -0.2201  0.7156  0.3669
 6573TIP3    H141210   0.335   3.129  12.763  0.8705 -0.2726  0.7250
 6573TIP3    H241211   0.484   3.150  12.749  0.7096  2.5352  2.4105
 6574TIP3   OH241212   5.522   4.737   5.729 -0.5060  0.1273 -0.2661
 6574TIP3    H141213   5.536   4.670   5.662  0.5014 -0.1178  0.1621
 6574TIP3    H241214   5.432   4.724   5.758 -0.3866 -0.9353 -0.3203
 6575TIP3   OH241215   0.918   4.427   5.855  0.4222  0.4875 -0.3098
 6575TIP3    H141216   0.915   4.472   5.939 -1.2835  1.1389 -0.6676
 6575TIP3    H241217   0.994   4.463   5.811  0.9234  0.6617  0.6713
 6576TIP3   OH241218   0.087   3.177  16.394 -0.0012 -0.2181 -0.0877
 6576TIP3    H141219   0.085   3.218  16.481  0.3198  0.9872 -0.6256
 6576TIP3    H241220   0.117   3.088  16.410  2.2684  0.6259  0.8059
 6577TIP3   OH241221   1.420   1.451  10.956  0.1046 -0.3634  0.0905
 6577TIP3    H141222   1.371   1.469  10.876  1.6802 -1.6893 -1.2350
 6577TIP3    H241223   1.353   1.425  11.019 -1.1594  0.6038 -0.7804
 6578TIP3   OH241224   1.811   3.895  11.683 -0.3280 -0.0959 -0.2454
 6578TIP3    H141225   1.866   3.944  11.621  1.6087  0.0851  1.5104
 6578TIP3    H241226   1.723   3.898  11.644  0.6908  0.3799 -2.7417
 6579TIP3   OH241227   0.067   4.702   1.009  0.1829  0.1424  0.8146
 6579TIP3    H141228   0.035   4.732   1.094  0.1016 -0.5496  1.0295
 6579TIP3    H241229   0.159   4.726   1.008 -0.4183  2.7745 -0.0841
 6580TIP3   OH241230   4.101   4.230   3.004  0.9216 -0.0029 -0.3738
 6580TIP3    H141231   4.196   4.236   3.009  0.9601 -0.0682 -0.9456
 6580TIP3    H241232   4.069   4.303   3.057  1.3033  0.7344 -1.1513
 6581TIP3   OH241233   5.860   1.266   4.842 -0.4491 -0.1408 -0.2691
 6581TIP3    H141234   5.822   1.349   4.813 -3.3039 -0.8573  1.0273
 6581TIP3    H241235   5.820   1.200   4.785 -0.8170 -0.8897  0.8177
 6582TIP3   OH241236   6.161   1.886   2.281 -0.3151  0.3686 -0.1897
 6582TIP3    H141237   6.166   1.793   2.261  1.7322 -0.0968  2.1037
 6582TIP3    H241238   6.238   1.924   2.239 -0.1285  0.6970  0.4400
 6583TIP3   OH241239   1.544   1.093   0.757 -0.4149  0.6432  0.1673
 6583TIP3    H141240   1.466   1.146   0.738 -2.6051 -2.1912  0.5627
 6583TIP3    H241241   1.562   1.047   0.675  1.1106  1.4989 -0.0142
 6584TIP3   OH241242   1.171   6.468   3.678 -0.2366  0.0723 -0.0396
 6584TIP3    H141243   1.154   6.393   3.735 -0.9043 -0.4382 -0.8918
 6584TIP3    H241244   1.107   6.534   3.705 -1.4015 -0.6207 -0.9932
 6585TIP3   OH241245   4.934   5.449  13.823  0.3861 -0.2502  0.4392
 6585TIP3    H141246   4.865   5.389  13.794 -0.3672  0.0980  1.4860
 6585TIP3    H241247   4.945   5.431  13.916 -0.0749  1.4346  0.8589
 6586TIP3   OH241248   0.574   0.308   1.363 -0.0469 -0.0344  0.6108
 6586TIP3    H141249   0.550   0.226   1.321 -1.1724  1.2008 -1.3369
 6586TIP3    H241250   0.644   0.343   1.308 -1.7816  1.7830 -0.5845
 6587TIP3   OH241251   4.419   0.311  11.721  0.0743 -0.5185 -0.6305
 6587TIP3    H141252   4.478   0.253  11.770 -0.6929 -0.5105  0.3329
 6587TIP3    H241253   4.468   0.392  11.710  1.1428 -1.2955 -1.9475
 6588TIP3   OH241254   3.358   3.881   4.019  0.3166  0.0346 -0.4796
 6588TIP3    H141255   3.302   3.923   3.955 -1.2495  1.8151  1.9020
 6588TIP3    H241256   3.298   3.840   4.081  1.7299 -0.4718  0.6310
 6589TIP3   OH241257   4.487   5.344   5.001 -0.2743  0.1280 -0.2643
 6589TIP3    H141258   4.561   5.303   5.045 -1.0641 -0.7168  0.3164
 6589TIP3    H241259   4.485   5.304   4.914 -1.4182 -1.6057  0.5087
 6590TIP3   OH241260   5.646   2.588  16.523  0.2822 -0.0527 -0.6449
 6590TIP3    H141261   5.659   2.647  16.449  0.2958  0.7227 -0.0427
 6590TIP3    H241262   5.733   2.579  16.562  0.0669  0.5846  0.0267
 6591TIP3   OH241263   2.508   6.425  14.872 -0.9322 -0.2059 -0.1402
 6591TIP3    H141264   2.522   6.406  14.965  0.5020 -0.1641 -0.3195
 6591TIP3    H241265   2.503   6.520  14.868 -0.0890 -0.1620 -0.2104
 6592TIP3   OH241266   5.165   4.058   3.195  0.0972  0.0186 -0.7836
 6592TIP3    H141267   5.233   4.117   3.163  0.4526  0.6378  0.9951
 6592TIP3    H241268   5.090   4.115   3.212  0.3835 -0.0049  0.7749
 6593TIP3   OH241269   0.288   3.315  11.338 -0.5256 -0.2570 -0.1254
 6593TIP3    H141270   0.302   3.395  11.287 -1.2980 -1.1751 -1.8903
 6593TIP3    H241271   0.253   3.252  11.274 -0.2822 -1.8941  1.2791
 6594TIP3   OH241272   6.008   0.544   5.027 -0.0126  0.4053 -0.8008
 6594TIP3    H141273   6.099   0.519   5.044 -0.3850  0.0430  0.8234
 6594TIP3    H241274   6.014   0.633   4.992  0.9663  0.3293 -0.8663
 6595TIP3   OH241275   2.103   3.207   0.035 -0.2821 -0.1728 -0.2554
 6595TIP3    H141276   2.124   3.153  -0.041  0.1528 -0.6693  0.2009
 6595TIP3    H241277   2.125   3.296   0.009 -0.8414 -0.2390 -0.9641
 6596TIP3   OH241278   1.929   3.951   2.761 -0.3763  0.0122  0.5701
 6596TIP3    H141279   1.867   4.001   2.814 -2.9739 -1.8640 -0.4681
 6596TIP3    H241280   1.970   4.017   2.704 -0.0446  1.5556  2.4820
 6597TIP3   OH241281   3.175   5.712   4.639  0.5513  0.3412 -0.1493
 6597TIP3    H141282   3.101   5.689   4.584  1.0732  0.9473 -1.1200
 6597TIP3    H241283   3.248   5.725   4.579  1.3884  0.0399  0.7606
 6598TIP3   OH241284   4.474   4.383   5.458  0.3961 -0.1004 -0.1863
 6598TIP3    H141285   4.533   4.319   5.419  1.4934  0.3923  0.5897
 6598TIP3    H241286   4.402   4.332   5.493  0.5310 -0.7594 -0.8542
 6599TIP3   OH241287   5.738   6.330   1.006  0.4496  0.2632 -0.3041
 6599TIP3    H141288   5.690   6.254   0.972  1.0942 -0.2842 -0.0217
 6599TIP3    H241289   5.817   6.335   0.951  1.7693 -0.9548  1.3720
 6600TIP3   OH241290   2.181   6.365   5.197 -0.2288  0.4221  0.0423
 6600TIP3    H141291   2.268   6.380   5.161 -0.8045  1.8314 -0.8467
 6600TIP3    H241292   2.191   6.376   5.291  0.1494  2.9982 -0.2260
 6601TIP3   OH241293   6.342   4.402   3.449 -0.1867 -0.6424  0.1803
 6601TIP3    H141294   6.429   4.426   3.480 -0.7499  2.3782 -0.2702
 6601TIP3    H241295   6.283   4.427   3.520 -0.8790 -0.4745 -0.4324
 6602TIP3   OH241296   5.814   2.059  16.835  0.0881 -0.3082 -0.0155
 6602TIP3    H141297   5.836   1.981  16.886 -0.3856 -0.5669 -0.1951
 6602TIP3    H241298   5.895   2.082  16.790 -0.2449 -1.9132 -1.5599
 6603TIP3   OH241299   3.056   1.544  15.921 -0.2911 -0.3209  0.2924
 6603TIP3    H141300   3.068   1.461  15.874 -1.0390 -0.1916 -0.1461
 6603TIP3    H241301   3.065   1.611  15.854 -0.8838 -0.1123  0.4131
 6604TIP3   OH241302   2.350   2.783  14.125  0.5500  0.4668  0.8280
 6604TIP3    H141303   2.436   2.800  14.087  0.4261 -1.1877 -0.3243
 6604TIP3    H241304   2.299   2.862  14.105  1.2215  0.6425 -0.2667
 6605TIP3   OH241305   3.381   6.214  11.921  0.4104  0.1105 -0.0208
 6605TIP3    H141306   3.306   6.173  11.963  1.8134 -1.3404  1.1862
 6605TIP3    H241307   3.355   6.305  11.910 -2.2222 -0.6743 -1.3683
 6606TIP3   OH241308   1.972   5.708   1.800 -0.3839  0.4511 -0.4977
 6606TIP3    H141309   2.040   5.760   1.844  0.8689  0.3580 -2.2484
 6606TIP3    H241310   1.986   5.619   1.830  0.2513  0.4404 -0.8244
 6607TIP3   OH241311   4.646   0.511   0.282 -0.6694  0.2834 -0.1192
 6607TIP3    H141312   4.580   0.443   0.272  0.2059 -0.5346 -0.5291
 6607TIP3    H241313   4.645   0.559   0.199 -1.6850  1.1716  0.3766
 6608TIP3   OH241314   3.788   3.854   1.899  0.4558  0.2420 -0.3368
 6608TIP3    H141315   3.775   3.788   1.968  1.5098  0.4455  0.0691
 6608TIP3    H241316   3.808   3.803   1.821 -2.0016 -0.0662 -0.8666
 6609TIP3   OH241317   4.011   1.349  11.242 -0.1989  0.2754 -0.1334
 6609TIP3    H141318   4.044   1.316  11.326  1.9524 -0.1259 -1.0648
 6609TIP3    H241319   3.918   1.326  11.242 -0.0526 -0.4930  1.7644
 6610TIP3   OH241320   4.783   2.927   4.654  0.3709 -0.9409  0.2238
 6610TIP3    H141321   4.774   3.013   4.613 -2.5304 -0.5645  1.4016
 6610TIP3    H241322   4.832   2.875   4.591 -2.3054  0.1040 -2.9761
 6611TIP3   OH241323   3.668   0.243   3.356  0.8136 -0.5042  0.0956
 6611TIP3    H141324   3.750   0.271   3.315 -0.0799  0.7122 -0.9433
 6611TIP3    H241325   3.679   0.265   3.449  1.2516  0.6751 -0.2212
 6612TIP3   OH241326   2.104   4.949   2.965  0.4080 -1.0101  0.0965
 6612TIP3    H141327   2.057   4.878   2.922  0.6629 -0.4890 -1.0786
 6612TIP3    H241328   2.035   5.012   2.989  0.4531 -0.3044 -1.5150
 6613TIP3   OH241329   0.608   1.722  14.762 -0.6425  0.3417 -0.2923
 6613TIP3    H141330   0.561   1.782  14.819  0.3966  0.3284  0.6335
 6613TIP3    H241331   0.630   1.648  14.819  0.8480  0.5511 -0.5533
 6614TIP3   OH241332   2.993   2.323  16.876  0.0287 -0.1451 -0.0745
 6614TIP3    H141333   2.913   2.332  16.929 -0.2994 -1.6481 -0.2886
 6614TIP3    H241334   3.027   2.412  16.870 -0.7164  0.2801  1.4443
 6615TIP3   OH241335   0.925   1.516   4.142  0.9160  0.1912 -0.0892
 6615TIP3    H141336   1.005   1.500   4.093  0.9821 -1.2973  0.4638
 6615TIP3    H241337   0.955   1.535   4.231  0.6851  0.6391 -0.1020
 6616TIP3   OH241338   2.304   6.497  13.128  0.1428  0.1214 -0.0714
 6616TIP3    H141339   2.355   6.455  13.197 -0.8516 -0.9884  0.0183
 6616TIP3    H241340   2.217   6.508  13.166 -0.4880 -0.7180 -1.2074
 6617TIP3   OH241341   2.985   4.110  15.546  0.1683 -0.2393 -0.0904
 6617TIP3    H141342   3.015   4.023  15.522 -0.5912 -0.7096  0.6295
 6617TIP3    H241343   2.892   4.112  15.523 -0.2803 -0.2873  1.5798
 6618TIP3   OH241344   6.255   4.479  16.277  0.3222 -0.0427 -0.1559
 6618TIP3    H141345   6.193   4.417  16.238 -0.0300  0.8093 -0.9944
 6618TIP3    H241346   6.336   4.429  16.285 -0.0618 -0.7310 -0.4407
 6619TIP3   OH241347   6.576   6.325  16.226  0.1611 -0.0688 -0.4699
 6619TIP3    H141348   6.551   6.414  16.203  1.9933  1.4348  2.6330
 6619TIP3    H241349   6.669   6.332  16.250 -0.3759 -2.0577  2.7785
 6620TIP3   OH241350   4.139   4.637   3.917 -0.0495  0.0810  0.6644
 6620TIP3    H141351   4.180   4.637   3.831  0.0110 -1.5865  0.6463
 6620TIP3    H241352   4.211   4.624   3.978 -0.2186  0.0665  0.8614
 6621TIP3   OH241353   0.291   2.236  16.497 -0.3075 -0.5075  0.6573
 6621TIP3    H141354   0.354   2.247  16.426 -2.1769  1.3513 -0.8337
 6621TIP3    H241355   0.242   2.157  16.474  0.3323 -0.9883  0.9203
 6622TIP3   OH241356   4.092   1.663   4.102  0.0046 -0.0859  0.7095
 6622TIP3    H141357   4.067   1.755   4.087 -0.0100  0.2841  2.6963
 6622TIP3    H241358   4.126   1.662   4.191 -0.8479 -2.2037  1.0636
 6623TIP3   OH241359   2.893   3.697   2.198  0.3538 -0.2679  0.5006
 6623TIP3    H141360   2.798   3.707   2.198  0.4535  0.7307  0.3923
 6623TIP3    H241361   2.910   3.629   2.264 -0.4043 -0.1555  0.8203
 6624TIP3   OH241362   6.365   4.367   0.504  0.5453  0.1361  0.5516
 6624TIP3    H141363   6.323   4.359   0.418  0.0424 -1.6701  0.9231
 6624TIP3    H241364   6.449   4.323   0.493  0.6851  0.3206  0.8764
 6625TIP3   OH241365   4.724   2.676  13.831 -0.7378 -0.1823 -0.9584
 6625TIP3    H141366   4.646   2.680  13.775 -1.5117 -1.9770 -0.0984
 6625TIP3    H241367   4.794   2.650  13.771 -0.9192  0.7970 -1.6215
 6626TIP3   OH241368   2.331   4.694  11.378  0.4883 -0.1146 -0.0353
 6626TIP3    H141369   2.348   4.757  11.308 -1.9126  0.5463 -0.1139
 6626TIP3    H241370   2.332   4.609  11.334 -2.1065  0.3616 -1.2290
 6627TIP3   OH241371   2.008   0.239  10.844  0.2371 -0.2972 -0.2558
 6627TIP3    H141372   2.084   0.264  10.792 -1.3094  2.6434 -1.3716
 6627TIP3    H241373   1.955   0.186  10.785  0.0676  0.1548 -0.5142
 6628TIP3   OH241374   5.859   0.404   2.967 -0.4904 -0.1422 -0.4106
 6628TIP3    H141375   5.873   0.494   2.940 -0.3019  0.3329  1.1605
 6628TIP3    H241376   5.782   0.407   3.023  1.7594 -0.1888  2.9624
 6629TIP3   OH241377   5.469   5.362   5.478 -0.6595  0.0385  0.2845
 6629TIP3    H141378   5.553   5.358   5.523 -0.3835  0.2584 -0.2026
 6629TIP3    H241379   5.411   5.308   5.531 -0.4362  0.6024  1.1100
 6630TIP3   OH241380   1.995   3.607   5.131 -0.0822 -0.1398  0.5720
 6630TIP3    H141381   1.987   3.644   5.043  0.3117 -1.9305 -0.2692
 6630TIP3    H241382   1.904   3.594   5.160 -0.2181  1.2791  0.8142
 6631TIP3   OH241383   3.036   4.444  11.546  0.0252  0.3628 -0.3336
 6631TIP3    H141384   3.033   4.485  11.632 -1.9758  0.2146 -0.3081
 6631TIP3    H241385   3.045   4.350  11.565 -2.6646  0.0772 -0.1670
 6632TIP3   OH241386   3.154   3.919   6.075 -0.4132 -0.2166  0.0089
 6632TIP3    H141387   3.205   3.846   6.111 -1.2378 -1.3956 -1.1430
 6632TIP3    H241388   3.101   3.949   6.149  0.9749  0.1940  0.8803
 6633TIP3   OH241389   1.860   5.764   5.884 -0.2560 -0.0796 -0.8046
 6633TIP3    H141390   1.860   5.686   5.829 -0.3443 -0.8937  0.3171
 6633TIP3    H241391   1.774   5.804   5.869 -0.4308 -0.5085 -0.9671
 6634TIP3   OH241392   5.066   2.864   3.424 -0.2165  0.2415  0.1540
 6634TIP3    H141393   5.058   2.959   3.416  2.0343  0.3296 -2.6542
 6634TIP3    H241394   5.009   2.829   3.356  0.2282 -0.3157  0.0548
 6635TIP3   OH241395   3.084   5.380   2.499  0.1448  0.3113  0.3152
 6635TIP3    H141396   3.169   5.423   2.505  0.5056 -0.5110  1.1302
 6635TIP3    H241397   3.094   5.317   2.428  0.0231  0.6330  0.0091
 6636TIP3   OH241398   4.874   6.300  13.366  0.3065  0.5890 -0.3169
 6636TIP3    H141399   4.936   6.297  13.293  0.0198  0.3062 -0.5542
 6636TIP3    H241400   4.897   6.379  13.415  1.9644 -0.4047  0.5799
 6637TIP3   OH241401   5.837   0.728   1.137  0.2532  0.2600 -0.3184
 6637TIP3    H141402   5.837   0.738   1.232  0.4066 -1.2242 -0.1434
 6637TIP3    H241403   5.900   0.793   1.106  1.0400 -0.0057  0.6864
 6638TIP3   OH241404   6.652   4.743  14.821  0.3634 -0.1415 -0.2603
 6638TIP3    H141405   6.726   4.725  14.764  0.1353  1.3670 -1.0831
 6638TIP3    H241406   6.684   4.808  14.883  0.2937 -0.9714  0.6708
 6639TIP3   OH241407   3.986   4.790  12.609  0.3464  1.1204  0.2291
 6639TIP3    H141408   4.002   4.850  12.682  0.0075  0.3630  0.9448
 6639TIP3    H241409   3.899   4.813  12.578 -0.9049 -0.6065  2.1569
 6640TIP3   OH241410   2.524   6.673   1.557  0.2554 -0.3516  0.3377
 6640TIP3    H141411   2.544   6.648   1.647 -0.4600  1.3920  1.0237
 6640TIP3    H241412   2.440   6.719   1.562  0.7284  0.7790 -1.0252
 6641TIP3   OH241413   1.013   0.731  16.913  0.1448 -0.2039 -0.1251
 6641TIP3    H141414   1.100   0.759  16.941 -1.7809  3.9134  2.8315
 6641TIP3    H241415   0.970   0.702  16.994 -1.2835 -2.3573 -1.5329
 6642TIP3   OH241416   5.876   5.839   4.795 -0.4506 -0.0453  0.2762
 6642TIP3    H141417   5.798   5.877   4.836 -0.3641  0.0985  0.3071
 6642TIP3    H241418   5.861   5.745   4.798 -0.3854 -0.0448  0.7652
 6643TIP3   OH241419   0.246   0.450  14.959  0.5791 -0.4837 -0.0475
 6643TIP3    H141420   0.187   0.402  15.016 -0.5328  1.0549  0.1614
 6643TIP3    H241421   0.233   0.412  14.872  1.3506 -1.9954  0.4739
 6644TIP3   OH241422   5.372   4.109  13.113 -0.2622  0.3898 -0.1644
 6644TIP3    H141423   5.346   4.164  13.188  0.4621  1.6971 -0.8358
 6644TIP3    H241424   5.367   4.168  13.038  0.3491 -0.5354 -0.9471
 6645TIP3   OH241425   1.089   2.628   6.201  0.6693 -0.2033  0.1370
 6645TIP3    H141426   1.163   2.687   6.214  0.9684 -0.8143  1.3905
 6645TIP3    H241427   1.102   2.592   6.113  0.9743  0.8861 -0.2819
 6646TIP3   OH241428   3.466   6.815  11.779  0.4002  0.5723 -0.2605
 6646TIP3    H141429   3.551   6.789  11.812  1.0846  0.5091 -1.9973
 6646TIP3    H241430   3.439   6.888  11.836  2.3628  1.6788 -0.6637
 6647TIP3   OH241431   4.693   4.340  12.728 -0.2520 -0.0917  0.1740
 6647TIP3    H141432   4.618   4.298  12.687 -0.5362  0.2822  0.3053
 6647TIP3    H241433   4.693   4.430  12.694  0.7321 -0.3649 -0.6076
 6648TIP3   OH241434   3.429   6.672  11.531 -0.0189  0.5746 -0.0946
 6648TIP3    H141435   3.435   6.707  11.442  1.2440 -0.5275 -0.4742
 6648TIP3    H241436   3.466   6.741  11.586  1.4058  0.3378 -0.7140
 6649TIP3   OH241437   6.669   2.227   0.144 -0.2753 -0.1501  0.2869
 6649TIP3    H141438   6.643   2.135   0.134  0.4035 -0.5164  1.5297
 6649TIP3    H241439   6.765   2.223   0.149 -0.3112  0.3200  2.5858
 6650TIP3   OH241440   5.090   4.730  12.567 -0.0852  0.5708 -1.0141
 6650TIP3    H141441   5.019   4.795  12.575  1.0605  1.6645  2.3707
 6650TIP3    H241442   5.166   4.774  12.605  0.8496 -2.5769  1.1068
 6651TIP3   OH241443   2.593   4.892   3.734  0.4590 -0.2548  0.2141
 6651TIP3    H141444   2.632   4.901   3.821 -0.5848  1.1417  0.5650
 6651TIP3    H241445   2.501   4.876   3.751 -0.2207  2.3520 -0.5940
 6652TIP3   OH241446   5.805   5.347  14.932 -0.0827  0.2211 -0.0923
 6652TIP3    H141447   5.842   5.373  14.847  2.4139 -0.5856  0.6542
 6652TIP3    H241448   5.778   5.257  14.919  2.1825 -0.6091  0.4112
 6653TIP3   OH241449   4.285   0.600   3.931  0.6181  0.2147  0.7248
 6653TIP3    H141450   4.284   0.533   4.000  0.3149  0.0414  0.5567
 6653TIP3    H241451   4.193   0.608   3.905  0.8770 -0.6524 -0.5467
 6654TIP3   OH241452   2.818   5.474   2.480  0.2380  0.4987  0.1342
 6654TIP3    H141453   2.790   5.416   2.409  0.7707  0.3331  0.0558
 6654TIP3    H241454   2.908   5.446   2.500 -0.0898  0.1713  1.2500
 6655TIP3   OH241455   4.687   5.049   2.307 -0.1990  0.2727 -0.8609
 6655TIP3    H141456   4.708   5.064   2.399  1.2524 -1.0225 -0.9423
 6655TIP3    H241457   4.593   5.033   2.306 -0.3584  1.0411  0.2901
 6656TIP3   OH241458   2.779   2.212  13.975  0.2368  0.2356  0.3814
 6656TIP3    H141459   2.793   2.295  13.930 -0.9588  1.2684  1.8030
 6656TIP3    H241460   2.698   2.178  13.937 -0.2919  0.6747  1.0790
 6657TIP3   OH241461   0.817   2.450  16.176  0.6389 -0.5025 -0.2525
 6657TIP3    H141462   0.729   2.477  16.148  0.5320 -1.5852 -1.0348
 6657TIP3    H241463   0.838   2.509  16.249 -1.3886 -1.2461  1.0248
 6658TIP3   OH241464   4.826   1.505  12.175 -0.2533  0.1282  0.7137
 6658TIP3    H141465   4.807   1.509  12.082 -0.8635  0.6464  0.8543
 6658TIP3    H241466   4.910   1.460  12.181 -0.2923 -0.0485 -0.0723
 6659TIP3   OH241467   3.830   2.308   0.891  0.0970  0.1682 -0.3380
 6659TIP3    H141468   3.920   2.303   0.859  0.5566 -2.2005  1.0558
 6659TIP3    H241469   3.782   2.244   0.839  0.3045 -1.8840  1.8175
 6660TIP3   OH241470   6.492   2.740   1.426 -0.2671 -0.0365  0.4155
 6660TIP3    H141471   6.446   2.762   1.507  1.7560  0.0368  1.6123
 6660TIP3    H241472   6.502   2.823   1.380  0.2913  0.2738  1.0668
 6661TIP3   OH241473   3.112   5.451   3.128 -0.1880  0.3007 -0.1722
 6661TIP3    H141474   3.076   5.517   3.186 -1.5219 -1.4561  1.1153
 6661TIP3    H241475   3.039   5.427   3.071  0.4659  0.3794 -1.0716
 6662TIP3   OH241476   4.254   6.415   6.496 -0.4410  0.1216  0.9621
 6662TIP3    H141477   4.208   6.348   6.546  2.1722 -3.0862 -0.5680
 6662TIP3    H241478   4.316   6.454   6.558 -2.0642  1.3137  1.8917
 6663TIP3   OH241479   2.696   2.604  12.350 -0.3586 -0.3356  0.8033
 6663TIP3    H141480   2.748   2.525  12.337  0.5034 -0.0024  2.0785
 6663TIP3    H241481   2.720   2.661  12.277 -0.9083 -1.1896 -0.0648
 6664TIP3   OH241482   2.329   5.176  16.441  0.7715  0.1905 -0.1206
 6664TIP3    H141483   2.360   5.085  16.434 -1.0146 -0.9679  3.9725
 6664TIP3    H241484   2.242   5.174  16.401  0.8552  0.2053 -0.3058
 6665TIP3   OH241485   6.259   3.909   0.937  0.1253 -0.2428 -0.5373
 6665TIP3    H141486   6.183   3.879   0.987 -0.4017 -2.0122 -2.2753
 6665TIP3    H241487   6.304   3.829   0.912  2.0410  0.7451 -0.3842
 6666TIP3   OH241488   5.269   5.587   0.130 -0.1319  0.3852 -0.3909
 6666TIP3    H141489   5.221   5.517   0.174  0.5358 -0.4348 -0.9440
 6666TIP3    H241490   5.245   5.578   0.038  1.3914 -0.2915 -0.7335
 6667TIP3   OH241491   0.026   5.131   3.513  0.0306  0.6292  0.5426
 6667TIP3    H141492   0.090   5.101   3.578  2.1078  0.1231 -1.5861
 6667TIP3    H241493   0.018   5.058   3.452 -3.3541  0.3404  1.1757
 6668TIP3   OH241494   4.614   0.370   4.927 -0.4976 -0.1404  0.1839
 6668TIP3    H141495   4.609   0.462   4.902 -0.1355  0.1406  1.1123
 6668TIP3    H241496   4.692   0.364   4.982 -0.7139 -0.9340  0.4190
 6669TIP3   OH241497   1.667   4.070   6.520  0.1939 -0.3512 -0.2339
 6669TIP3    H141498   1.642   3.982   6.546 -1.1110 -0.0766 -0.4745
 6669TIP3    H241499   1.656   4.071   6.425  0.3903  0.0105 -0.2544
 6670TIP3   OH241500   1.836   5.367  12.211  0.6879 -0.4996 -0.4594
 6670TIP3    H141501   1.827   5.406  12.297  2.1702 -0.5179 -0.2675
 6670TIP3    H241502   1.929   5.376  12.190  0.8798 -2.8441 -0.9183
 6671TIP3   OH241503   2.260   2.680  17.147  0.3191  0.9140 -0.4068
 6671TIP3    H141504   2.187   2.735  17.118 -0.3015  1.3234  1.7583
 6671TIP3    H241505   2.269   2.614  17.078 -1.3760  1.5105 -1.2554
 6672TIP3   OH241506   0.529   1.224   5.666 -0.0798  0.5865 -0.0361
 6672TIP3    H141507   0.450   1.185   5.704  0.1127 -0.4795 -0.7031
 6672TIP3    H241508   0.566   1.276   5.737 -1.0074  0.5428  0.5005
 6673TIP3   OH241509   3.937   3.821  13.897  0.0247 -0.3548  0.1451
 6673TIP3    H141510   3.961   3.857  13.982 -0.4109 -0.8743  0.4963
 6673TIP3    H241511   3.898   3.895  13.850  1.3381  0.2330 -0.0526
 6674TIP3   OH241512   4.757   2.549   3.503  0.2231 -0.0163 -0.1126
 6674TIP3    H141513   4.676   2.554   3.553 -0.3880  1.3284 -1.1909
 6674TIP3    H241514   4.738   2.487   3.433 -0.1463  0.8353 -0.7898
 6675TIP3   OH241515   6.185   2.168  12.065 -0.2613  0.1597 -0.7774
 6675TIP3    H141516   6.107   2.112  12.063  1.2217 -2.0612 -0.3821
 6675TIP3    H241517   6.208   2.181  11.973  0.1231 -1.0474 -0.8673
 6676TIP3   OH241518   1.901   4.356   0.535  0.0159 -0.1881  0.0173
 6676TIP3    H141519   1.881   4.306   0.615 -1.1072 -0.3823 -0.3573
 6676TIP3    H241520   1.817   4.395   0.510 -0.5103 -2.7937 -2.9022
 6677TIP3   OH241521   5.992   4.420  11.471  0.1050  0.7206 -0.3124
 6677TIP3    H141522   6.015   4.408  11.563  0.2374  1.4487 -0.2489
 6677TIP3    H241523   6.031   4.504  11.447 -1.0899  1.1863 -0.6550
 6678TIP3   OH241524   3.152   1.574  13.012 -0.1336  0.1690 -0.3082
 6678TIP3    H141525   3.246   1.561  13.003 -0.3340 -2.4548  0.6638
 6678TIP3    H241526   3.145   1.660  13.054  1.7971  0.5330 -0.6140
 6679TIP3   OH241527   3.359   3.667   0.299  0.3963 -0.5376 -0.0085
 6679TIP3    H141528   3.302   3.677   0.375 -0.2332  0.2892 -0.5687
 6679TIP3    H241529   3.358   3.573   0.280  0.7257 -0.7838  1.1160
 6680TIP3   OH241530   0.640   3.714   0.812  0.3236  0.3144 -0.1835
 6680TIP3    H141531   0.574   3.739   0.876 -0.3929 -1.9873  0.0744
 6680TIP3    H241532   0.666   3.796   0.771 -2.1799  1.3929  0.2106
 6681TIP3   OH241533   4.979   2.087  14.066 -0.3786  0.5254 -0.9510
 6681TIP3    H141534   4.958   2.181  14.061  0.5120  0.8510  0.6980
 6681TIP3    H241535   4.992   2.070  14.160  0.2995 -1.0613 -1.2971
 6682TIP3   OH241536   6.595   3.292  14.030 -0.4401 -0.3115 -0.1243
 6682TIP3    H141537   6.582   3.203  13.999 -1.2439 -0.6444  1.1343
 6682TIP3    H241538   6.562   3.347  13.958 -0.4234 -1.0175 -0.6830
 6683TIP3   OH241539   4.313   6.477   0.712  0.4066 -0.0414  0.2273
 6683TIP3    H141540   4.406   6.496   0.722  0.6599 -0.9597 -0.2687
 6683TIP3    H241541   4.272   6.563   0.702  1.3115  0.3295 -0.4543
 6684TIP3   OH241542   2.872   4.102  11.257  0.3442  0.3128  0.0381
 6684TIP3    H141543   2.928   4.180  11.260  0.0891  0.4822  0.3453
 6684TIP3    H241544   2.863   4.084  11.163  0.1413  0.8395 -0.0469
 6685TIP3   OH241545   1.140   2.962  10.511  0.2438 -0.0641  0.8039
 6685TIP3    H141546   1.061   2.909  10.506 -0.4404  0.9520  0.3476
 6685TIP3    H241547   1.114   3.046  10.474  1.5153  0.3262  0.7583
 6686TIP3   OH241548   3.707   1.942   5.105 -0.6040 -0.2282 -0.2607
 6686TIP3    H141549   3.627   1.956   5.154 -1.4811  3.3334 -2.3834
 6686TIP3    H241550   3.741   2.030   5.088  1.7258 -1.4400 -2.6340
 6687TIP3   OH241551   6.224   4.150   5.918  0.3863 -0.9108  0.5768
 6687TIP3    H141552   6.310   4.179   5.949  0.4993 -0.1543 -0.3956
 6687TIP3    H241553   6.207   4.070   5.968  1.5080 -0.8990  1.0225
 6688TIP3   OH241554   2.408   3.428   4.019  0.0475  0.7236  0.3920
 6688TIP3    H141555   2.501   3.448   4.014  0.1424  0.1623 -0.2492
 6688TIP3    H241556   2.379   3.427   3.928 -0.7678  1.6959  0.6245
 6689TIP3   OH241557   3.458   1.487  16.559 -0.7306 -0.4300  0.2697
 6689TIP3    H141558   3.540   1.450  16.592  0.0962  0.6539 -0.5038
 6689TIP3    H241559   3.448   1.569  16.606 -1.1118 -0.3239  0.0043
 6690TIP3   OH241560   4.264   2.916  13.733  0.2083  0.2259  0.3046
 6690TIP3    H141561   4.215   2.872  13.664  0.2527 -0.3061  0.6061
 6690TIP3    H241562   4.330   2.852  13.759  0.7648  0.7574  0.2265
 6691TIP3   OH241563   4.935   5.807   1.100  0.1758  0.1822 -0.4575
 6691TIP3    H141564   4.887   5.730   1.131 -1.7681  2.0058  1.4597
 6691TIP3    H241565   5.021   5.774   1.075  0.2657 -2.2698  2.5297
 6692TIP3   OH241566   5.515   3.923  12.596  0.0611 -0.3037  0.0078
 6692TIP3    H141567   5.602   3.945  12.563 -0.0907  0.8207  0.3068
 6692TIP3    H241568   5.462   4.000  12.576 -1.2296 -1.5178 -1.3994
 6693TIP3   OH241569   2.766   0.198  15.201  0.7749 -0.2569  0.6014
 6693TIP3    H141570   2.708   0.175  15.274 -0.6257 -2.1662 -1.0005
 6693TIP3    H241571   2.827   0.125  15.196  0.3275 -0.5606 -0.6278
 6694TIP3   OH241572   4.303   4.469   5.871 -0.3208 -0.2888  0.3425
 6694TIP3    H141573   4.245   4.503   5.939 -1.5323 -0.8006 -0.4025
 6694TIP3    H241574   4.334   4.385   5.905 -0.6897 -0.4031  0.3993
 6695TIP3   OH241575   3.856   4.535   3.455  0.1041  0.2222 -0.0535
 6695TIP3    H141576   3.939   4.533   3.503 -0.1822 -1.8571  0.4649
 6695TIP3    H241577   3.793   4.570   3.518 -0.0589 -1.5117  0.8241
 6696TIP3   OH241578   2.699   3.380  13.795 -0.9383  0.1164 -0.0064
 6696TIP3    H141579   2.683   3.449  13.859  0.5553  0.9556 -0.5066
 6696TIP3    H241580   2.725   3.426  13.715  1.0601 -1.0154 -0.0777
 6697TIP3   OH241581   3.858   0.138  15.544  0.4930 -0.6150  0.7044
 6697TIP3    H141582   3.805   0.187  15.606  1.2268  0.5370  0.4412
 6697TIP3    H241583   3.802   0.065  15.517  0.1644 -1.1406  2.6951
 6698TIP3   OH241584   0.916   5.919  14.973 -0.0018 -0.1496 -0.4742
 6698TIP3    H141585   0.876   5.834  14.991 -1.1906  0.1157 -1.7029
 6698TIP3    H241586   0.917   5.963  15.058 -0.3123 -1.0018 -0.0158
 6699TIP3   OH241587   2.194   0.197   2.623 -0.0426  0.1505  0.2654
 6699TIP3    H141588   2.100   0.183   2.634 -0.0946  1.1710  1.2563
 6699TIP3    H241589   2.233   0.114   2.650 -0.6078  0.0476  0.8001
 6700TIP3   OH241590   1.092   5.799  12.163  0.2588  0.4704  0.7326
 6700TIP3    H141591   1.152   5.873  12.154  1.7458 -0.4854  2.1060
 6700TIP3    H241592   1.121   5.737  12.096 -0.1148  0.5821  0.4668
 6701TIP3   OH241593   6.163   4.678  14.957 -0.2497 -0.2554 -0.2364
 6701TIP3    H141594   6.132   4.671  15.047 -0.8942 -0.8403 -0.4939
 6701TIP3    H241595   6.233   4.742  14.960 -0.1997 -0.3500  0.7019
 6702TIP3   OH241596   3.171   6.380   3.245 -0.6062 -0.4130  0.1030
 6702TIP3    H141597   3.222   6.377   3.326  1.4315  1.3722 -1.0082
 6702TIP3    H241598   3.080   6.394   3.274 -0.2813 -1.9446  2.0896
 6703TIP3   OH241599   2.562   6.318   6.103 -0.0870 -0.0422 -0.0686
 6703TIP3    H141600   2.517   6.303   6.186  1.2115 -1.1989  0.4811
 6703TIP3    H241601   2.646   6.356   6.128  0.3683 -0.5166 -0.8259
 6704TIP3   OH241602   1.477   4.936  15.552 -0.4162  0.2592 -0.0121
 6704TIP3    H141603   1.485   4.870  15.483  1.2876  0.7033 -0.2747
 6704TIP3    H241604   1.445   5.014  15.507  2.5066  1.1330 -0.7542
 6705TIP3   OH241605   3.850   5.056  14.127 -0.1129  0.0596 -0.1365
 6705TIP3    H141606   3.874   4.991  14.061 -0.8617 -1.0664  0.6538
 6705TIP3    H241607   3.932   5.079  14.170  0.0260 -1.2842  0.3685
 6706TIP3   OH241608   1.609   5.690  16.056  0.1575  0.3054  0.9868
 6706TIP3    H141609   1.645   5.683  16.144 -1.6312 -0.3854  1.7033
 6706TIP3    H241610   1.632   5.779  16.028 -0.8150  1.2287  2.9118
 6707TIP3   OH241611   1.322   2.587   0.408 -0.1132  0.6239 -0.0029
 6707TIP3    H141612   1.258   2.581   0.479  0.0720 -0.3057  0.1000
 6707TIP3    H241613   1.284   2.648   0.346 -2.4996 -1.9867 -1.3255
 6708TIP3   OH241614   2.479   6.656   0.497 -0.2929 -0.3453 -0.1406
 6708TIP3    H141615   2.417   6.698   0.558  0.5264  1.3677 -0.4416
 6708TIP3    H241616   2.427   6.641   0.418 -0.2948  1.3830 -0.5124
 6709TIP3   OH241617   0.652   0.417   3.397  0.4250 -0.0541 -0.7109
 6709TIP3    H141618   0.606   0.484   3.347  1.0432  1.6473  0.8583
 6709TIP3    H241619   0.584   0.356   3.424 -0.4226  0.7329 -0.9996
 6710TIP3   OH241620   4.544   3.248   0.189  0.3905  0.0140 -0.1416
 6710TIP3    H141621   4.571   3.312   0.254  1.4059 -0.0463 -0.4768
 6710TIP3    H241622   4.571   3.164   0.226 -3.2435 -0.6028  1.5158
 6711TIP3   OH241623   4.006   1.253   4.775 -0.7391  0.1504 -0.8937
 6711TIP3    H141624   4.073   1.313   4.741  0.5254 -1.3369 -1.1170
 6711TIP3    H241625   4.027   1.168   4.736 -2.4379 -0.4865 -0.5173
 6712TIP3   OH241626   0.179   1.149  15.513 -0.5014  0.1138 -0.0297
 6712TIP3    H141627   0.090   1.153  15.547 -0.3646  0.6683  0.2679
 6712TIP3    H241628   0.194   1.056  15.496 -0.4533 -0.2294  1.7487
 6713TIP3   OH241629   3.641   5.200   4.422 -0.3719  0.6484  0.9183
 6713TIP3    H141630   3.629   5.252   4.501  0.6740 -0.0308  1.5418
 6713TIP3    H241631   3.721   5.235   4.381 -0.6731  0.7197  0.3752
 6714TIP3   OH241632   0.241   0.115   1.832  0.4283  0.2874 -0.0809
 6714TIP3    H141633   0.192   0.191   1.801  0.9727  0.6447 -0.0831
 6714TIP3    H241634   0.331   0.147   1.843  0.3933  0.0053  1.2437
 6715TIP3   OH241635   0.394   3.146  11.584  0.0926  0.0182  0.2902
 6715TIP3    H141636   0.473   3.198  11.593  1.9189 -1.4983 -4.1655
 6715TIP3    H241637   0.335   3.201  11.531  1.6529 -1.6634 -3.5852
 6716TIP3   OH241638   2.456   1.585  15.837 -0.2068 -0.2003 -0.1258
 6716TIP3    H141639   2.516   1.659  15.845  2.1882 -1.9540 -0.8850
 6716TIP3    H241640   2.382   1.609  15.894  1.0677  2.1516  0.7046
 6717TIP3   OH241641   6.533   2.974   4.125  0.9421 -0.2893 -0.1587
 6717TIP3    H141642   6.582   2.906   4.171  0.9939  0.1931  0.5179
 6717TIP3    H241643   6.465   2.927   4.078 -0.9912 -0.6507  2.7209
 6718TIP3   OH241644   5.621   1.107   4.376  0.1317  0.4334 -0.4037
 6718TIP3    H141645   5.689   1.053   4.335  0.0160  0.5559 -0.7625
 6718TIP3    H241646   5.659   1.195   4.380  0.5069  0.2459  0.6170
 6719TIP3   OH241647   3.728   3.764   5.249  0.3440  0.6570  0.2597
 6719TIP3    H141648   3.650   3.764   5.304 -0.3213 -1.2027 -0.5892
 6719TIP3    H241649   3.701   3.809   5.169  1.3492  3.4804  1.3953
 6720TIP3   OH241650   2.864   6.354  11.281  0.1068  0.4698 -0.1652
 6720TIP3    H141651   2.906   6.317  11.204  1.6249  1.3195  0.2081
 6720TIP3    H241652   2.773   6.368  11.255  0.3912 -0.0495 -1.5038
 6721TIP3   OH241653   4.329   1.709   0.587  0.4446 -0.0594  0.4476
 6721TIP3    H141654   4.301   1.788   0.634  0.9894  1.1591 -1.1647
 6721TIP3    H241655   4.419   1.695   0.615  0.6583  0.4734  0.0638
 6722TIP3   OH241656   0.432   3.963   4.170 -0.3511 -0.0472 -0.2620
 6722TIP3    H141657   0.446   4.057   4.177 -0.3577 -0.0097 -0.7268
 6722TIP3    H241658   0.446   3.943   4.077  0.2927 -0.6031 -0.0602
 6723TIP3   OH241659   3.786   4.386  16.028  0.5898 -0.8018  0.5980
 6723TIP3    H141660   3.792   4.295  16.057  2.1330 -1.0958 -0.5538
 6723TIP3    H241661   3.790   4.437  16.110 -0.1625 -1.7374  1.2437
 6724TIP3   OH241662   3.062   1.671  12.668 -0.2542  1.2459  0.8587
 6724TIP3    H141663   3.040   1.662  12.575 -0.4905 -0.2268  1.0176
 6724TIP3    H241664   3.153   1.699  12.669  0.3033 -0.3705  0.1436
 6725TIP3   OH241665   2.509   5.154  16.042  0.2608 -0.6308 -0.5729
 6725TIP3    H141666   2.425   5.117  16.070  0.9571 -1.5757  0.3596
 6725TIP3    H241667   2.499   5.249  16.056 -0.9886 -0.6101 -1.4488
 6726TIP3   OH241668   1.103   0.560  14.918 -0.5616  0.0017  0.2667
 6726TIP3    H141669   1.143   0.602  14.843 -0.3711  0.3024  0.5325
 6726TIP3    H241670   1.031   0.507  14.882  0.2315 -0.7494 -0.2347
 6727TIP3   OH241671   1.191   5.518  11.146  0.0394 -0.2495 -0.4850
 6727TIP3    H141672   1.166   5.608  11.167 -2.5731 -1.1481  0.5713
 6727TIP3    H241673   1.261   5.528  11.082 -1.2350  2.5444 -1.6260
 6728TIP3   OH241674   0.568   5.551   3.305  0.5977  0.3153  0.3766
 6728TIP3    H141675   0.626   5.616   3.346  1.2025 -0.0862  0.1692
 6728TIP3    H241676   0.507   5.526   3.375  0.0894  1.4041  0.3456
 6729TIP3   OH241677   5.374   1.543   2.569 -0.2565 -0.1211 -0.1319
 6729TIP3    H141678   5.374   1.610   2.500 -0.2921  0.6047  0.5515
 6729TIP3    H241679   5.282   1.535   2.594 -0.3314 -0.8605 -0.6018
 6730TIP3   OH241680   1.718   0.750  15.380  0.4629  0.4697 -0.5845
 6730TIP3    H141681   1.781   0.806  15.335  1.6585  0.6886  1.2423
 6730TIP3    H241682   1.725   0.665  15.336  2.4384  0.3535 -0.1162
 6731TIP3   OH241683   3.935   5.534  14.119 -0.2237 -0.1729 -0.0461
 6731TIP3    H141684   3.964   5.445  14.139  1.6185  0.1611 -1.0296
 6731TIP3    H241685   3.875   5.523  14.045  0.9165 -0.5244 -0.9423
 6732TIP3   OH241686   0.781   2.898  12.957 -0.3610  0.2288 -0.8707
 6732TIP3    H141687   0.804   2.987  12.982 -1.2867  0.0243  0.9091
 6732TIP3    H241688   0.837   2.878  12.882  1.4929  1.4916  0.1101
 6733TIP3   OH241689   4.645   1.488   1.565 -0.1557  0.7254  0.2376
 6733TIP3    H141690   4.617   1.419   1.624 -1.8952  1.7062  0.6394
 6733TIP3    H241691   4.711   1.537   1.614  1.6560 -1.0355 -0.3354
 6734TIP3   OH241692   2.746   3.806  13.202 -0.2849  0.0060  0.0217
 6734TIP3    H141693   2.783   3.763  13.280 -2.8608 -1.4923  0.5526
 6734TIP3    H241694   2.763   3.744  13.131 -1.5487 -0.6279  0.2451
 6735TIP3   OH241695   0.490   6.562   4.762  0.1317  0.1398 -0.1328
 6735TIP3    H141696   0.429   6.488   4.764  0.9622 -0.7351 -2.8170
 6735TIP3    H241697   0.538   6.555   4.844 -1.9380 -0.3605  1.1250
 6736TIP3   OH241698   5.893   4.894  15.046 -0.6580  0.1440 -0.2469
 6736TIP3    H141699   5.823   4.843  15.086 -0.8840  2.0280  1.9391
 6736TIP3    H241700   5.964   4.893  15.110 -0.2967  1.6969 -0.5717
 6737TIP3   OH241701   0.701   0.252   0.734 -0.6318 -0.2518  0.4729
 6737TIP3    H141702   0.779   0.306   0.723 -1.0958  0.3319 -0.0098
 6737TIP3    H241703   0.734   0.169   0.768  0.1097  0.2582  1.0164
 6738TIP3   OH241704   3.989   4.952  15.503  0.4294 -0.5135 -0.2518
 6738TIP3    H141705   3.915   5.010  15.521  1.1883 -0.3320  2.8473
 6738TIP3    H241706   3.996   4.897  15.581  1.4896 -2.8958 -1.9108
 6739TIP3   OH241707   1.050   1.518  15.892  0.1102  0.5564  0.3372
 6739TIP3    H141708   1.079   1.447  15.950  1.8793 -0.2064 -1.3680
 6739TIP3    H241709   0.955   1.510  15.891  0.2097 -1.3374  0.8048
 6740TIP3   OH241710   6.629   5.490  16.264 -0.1458  0.5444  0.1190
 6740TIP3    H141711   6.662   5.495  16.174 -1.7160 -0.7454 -0.5790
 6740TIP3    H241712   6.534   5.498  16.255 -0.2795  1.2337  1.7711
 6741TIP3   OH241713   1.200   4.260  16.550  0.5026  0.9102  0.6745
 6741TIP3    H141714   1.233   4.217  16.629 -0.3796 -0.6136  0.2604
 6741TIP3    H241715   1.278   4.290  16.503  1.0382  1.7968  2.0711
 6742TIP3   OH241716   4.629   6.298  11.468 -0.4871  0.0111  0.4449
 6742TIP3    H141717   4.596   6.223  11.419  2.9890  0.0016 -2.2989
 6742TIP3    H241718   4.680   6.259  11.540  0.6768 -0.2913 -0.5200
 6743TIP3   OH241719   3.422   1.644  17.140  0.0106 -0.3667  0.8208
 6743TIP3    H141720   3.376   1.726  17.157  1.6876  0.2386  2.8053
 6743TIP3    H241721   3.465   1.658  17.056 -1.7207 -0.2139 -0.0944
 6744TIP3   OH241722   5.983   1.848  16.730 -0.0611  0.0930 -0.3664
 6744TIP3    H141723   5.941   1.764  16.749  1.5639 -0.5716  0.5302
 6744TIP3    H241724   5.924   1.892  16.669 -1.0359 -1.6319 -0.7241
 6745TIP3   OH241725   2.534   1.584   2.234 -0.4600 -0.6289  0.0394
 6745TIP3    H141726   2.484   1.656   2.272  0.2653 -0.4584  0.7083
 6745TIP3    H241727   2.485   1.506   2.258  0.0298 -0.5316  1.4698
 6746TIP3   OH241728   2.781   1.393  12.534  0.2541  0.1579 -0.0939
 6746TIP3    H141729   2.831   1.378  12.614  1.2095  0.0738 -0.6887
 6746TIP3    H241730   2.701   1.438  12.563  0.2152 -0.5720  0.9846
 6747TIP3   OH241731   3.041   6.539  16.592 -0.3346 -0.5503 -0.4112
 6747TIP3    H141732   2.975   6.560  16.526  0.4372  1.1649 -0.7158
 6747TIP3    H241733   3.026   6.447  16.614 -0.4741 -1.2477 -3.1331
 6748TIP3   OH241734   5.815   2.644  11.945 -0.2207 -0.2457 -0.2250
 6748TIP3    H141735   5.809   2.549  11.952  1.9666 -0.5139 -1.2648
 6748TIP3    H241736   5.773   2.665  11.862 -0.5593 -0.3076 -0.0730
 6749TIP3   OH241737   4.392   0.453  11.068 -1.0855  0.2653  0.6611
 6749TIP3    H141738   4.333   0.436  11.141 -1.1696 -0.2056  0.4849
 6749TIP3    H241739   4.476   0.416  11.096 -1.3783 -0.8459  0.0991
 6750TIP3   OH241740   1.624   5.443   6.771  0.2859  0.1127 -0.0880
 6750TIP3    H141741   1.673   5.381   6.718  0.6214  0.9914 -0.8353
 6750TIP3    H241742   1.665   5.528   6.754 -1.6622  0.9490 -1.0114
 6751TIP3   OH241743   1.371   3.865  11.339 -0.2498  0.4408  0.1900
 6751TIP3    H141744   1.311   3.817  11.397  0.5255 -2.0114 -0.9372
 6751TIP3    H241745   1.455   3.864  11.384 -0.1353  0.3708 -0.0218
 6752TIP3   OH241746   5.281   2.098  14.360 -0.4179 -0.4784 -0.2687
 6752TIP3    H141747   5.201   2.046  14.367 -1.7711  1.4835 -0.1476
 6752TIP3    H241748   5.297   2.104  14.266 -1.8911  1.1013 -0.4864
 6753TIP3   OH241749   4.973   5.514   0.948 -0.2758 -0.3008 -0.5601
 6753TIP3    H141750   5.034   5.441   0.954  0.1113  0.1157  1.5019
 6753TIP3    H241751   5.028   5.592   0.953 -0.8926  0.0911  0.4051
 6754TIP3   OH241752   2.743   1.329   0.403  0.0631  0.1088  0.2102
 6754TIP3    H141753   2.655   1.348   0.434 -0.3678 -0.7679 -0.4348
 6754TIP3    H241754   2.750   1.234   0.409 -0.5367 -0.3174 -3.5514
 6755TIP3   OH241755   5.845   3.200   4.886 -0.2907  0.0276 -0.2029
 6755TIP3    H141756   5.756   3.199   4.921 -0.7179 -0.4826 -1.2662
 6755TIP3    H241757   5.871   3.292   4.887 -0.0816 -0.0127  1.9309
 6756TIP3   OH241758   1.695   0.519   5.236  0.6401 -0.4105  0.3463
 6756TIP3    H141759   1.704   0.568   5.154  2.5747 -1.1354  0.0612
 6756TIP3    H241760   1.623   0.561   5.282 -0.3268  0.1835 -1.6125
 6757TIP3   OH241761   6.001   1.459   5.205  0.3933 -0.0320  0.3218
 6757TIP3    H141762   5.985   1.549   5.231  1.5055  0.1525  0.4321
 6757TIP3    H241763   5.918   1.414   5.220 -0.5929  1.2394 -0.9872
 6758TIP3   OH241764   0.671   3.982   0.703 -0.5732  0.6988  0.0749
 6758TIP3    H141765   0.604   4.043   0.734 -0.1141  0.9235  0.6393
 6758TIP3    H241766   0.716   4.029   0.633  0.9907  1.7769  1.7086
 6759TIP3   OH241767   6.368   3.393   0.934 -0.7213  0.4983 -0.1355
 6759TIP3    H141768   6.277   3.370   0.914  0.1229 -1.7020 -1.9028
 6759TIP3    H241769   6.381   3.479   0.894 -1.4122 -0.2026 -1.9885
 6760TIP3   OH241770   3.390   3.671  13.965  0.3417 -0.3825 -0.2479
 6760TIP3    H141771   3.461   3.607  13.965  0.0145 -0.7604 -1.0955
 6760TIP3    H241772   3.430   3.751  13.930  1.0870  0.3095  1.9947
 6761TIP3   OH241773   3.751   6.822   1.524 -0.6901 -0.1142  0.1670
 6761TIP3    H141774   3.694   6.862   1.458  0.2778  2.0827  0.5735
 6761TIP3    H241775   3.794   6.750   1.477 -1.4458  0.1828 -1.0296
 6762TIP3   OH241776   1.803   3.856  12.256  0.5641 -0.6397  0.1279
 6762TIP3    H141777   1.739   3.789  12.281 -0.9400  1.0575  1.0403
 6762TIP3    H241778   1.815   3.844  12.162 -1.8816 -0.4082 -0.2781
 6763TIP3   OH241779   4.706   6.628   2.210  0.1601  0.0146  0.0355
 6763TIP3    H141780   4.670   6.551   2.252 -1.2515  0.3999 -0.3972
 6763TIP3    H241781   4.657   6.636   2.128 -1.2477  2.5035  0.9824
 6764TIP3   OH241782   4.855   6.710   3.920  0.2326 -0.6266 -0.6082
 6764TIP3    H141783   4.842   6.716   4.015  0.0836 -1.5559 -0.5620
 6764TIP3    H241784   4.874   6.800   3.893 -0.9485 -0.1344  0.1118
 6765TIP3   OH241785   0.096   4.958  11.654 -0.2463  0.5975 -0.1724
 6765TIP3    H141786   0.054   5.031  11.608  0.4951  1.3464  0.3160
 6765TIP3    H241787   0.176   4.996  11.691 -0.3380 -0.2226  0.9051
 6766TIP3   OH241788   4.173   2.268   3.038  0.3101  0.6257 -0.5859
 6766TIP3    H141789   4.103   2.228   3.090  2.2207 -1.5890  0.4758
 6766TIP3    H241790   4.138   2.353   3.013 -2.7582 -0.3719 -0.1578
 6767TIP3   OH241791   1.995   6.604   6.230  0.1640  0.3959  0.2608
 6767TIP3    H141792   2.041   6.626   6.310 -0.9114  2.8374  0.3021
 6767TIP3    H241793   1.910   6.570   6.259  0.2362  0.1228  0.1584
 6768TIP3   OH241794   0.953   0.484   5.475 -0.2082  0.4540  0.5545
 6768TIP3    H141795   0.927   0.519   5.561 -0.2426  1.6943  0.0610
 6768TIP3    H241796   1.044   0.510   5.465 -0.3274  0.6704  0.0368
 6769TIP3   OH241797   0.456   2.561  15.261  0.2537 -0.1722  0.1556
 6769TIP3    H141798   0.395   2.609  15.205  1.6102 -0.2328 -1.4465
 6769TIP3    H241799   0.410   2.551  15.344 -1.4331  0.8110 -0.6196
 6770TIP3   OH241800   4.678   2.709  11.018  0.6904  0.0711  0.1002
 6770TIP3    H141801   4.719   2.641  10.965  0.8757  0.0902  0.2167
 6770TIP3    H241802   4.615   2.751  10.960  1.1324  0.3161 -0.2111
 6771TIP3   OH241803   2.382   4.370  12.175  0.0493  0.1862 -0.7015
 6771TIP3    H141804   2.424   4.381  12.089  0.8885  1.6149 -0.1316
 6771TIP3    H241805   2.362   4.459  12.204 -0.9969 -0.3297  0.2254
 6772TIP3   OH241806   4.231   6.178  16.878 -0.0402 -0.2554  0.5141
 6772TIP3    H141807   4.322   6.208  16.877  0.1045 -0.7034 -0.0734
 6772TIP3    H241808   4.188   6.235  16.942  1.1203 -1.4154  2.4368
 6773TIP3   OH241809   5.977   2.809  15.235 -0.1260 -0.4415  0.2949
 6773TIP3    H141810   6.002   2.727  15.194 -1.6496  0.6161 -3.1479
 6773TIP3    H241811   6.043   2.872  15.205 -0.3492  0.0608  0.8400
 6774TIP3   OH241812   0.888   2.007   0.683  0.5026  0.3374 -0.1192
 6774TIP3    H141813   0.797   2.031   0.698  0.6101  1.1878 -0.7732
 6774TIP3    H241814   0.907   2.039   0.595  0.1587 -3.5467 -1.8496
 6775TIP3   OH241815   2.982   2.997  12.788 -0.2422  0.0540 -0.0267
 6775TIP3    H141816   2.919   2.991  12.716 -0.3718 -2.2134  0.1800
 6775TIP3    H241817   3.067   3.004  12.744 -0.2210 -2.3106 -0.5448
 6776TIP3   OH241818   5.501   0.867  15.831  0.2211  0.1306 -0.2466
 6776TIP3    H141819   5.483   0.956  15.862  0.3407  0.2744 -0.5776
 6776TIP3    H241820   5.597   0.860  15.836  0.1451 -0.3043  0.6456
 6777TIP3   OH241821   2.873   5.417  16.142 -0.1430  0.4049 -0.2026
 6777TIP3    H141822   2.928   5.372  16.206 -0.9229 -2.5123 -1.4185
 6777TIP3    H241823   2.928   5.425  16.064 -0.0805  1.4755 -0.0698
 6778TIP3   OH241824   0.484   6.622   4.421 -0.3992 -0.0179 -0.2611
 6778TIP3    H141825   0.516   6.623   4.331 -0.1718  2.0294 -0.1903
 6778TIP3    H241826   0.449   6.710   4.436 -0.4759 -0.3264  1.6382
 6779TIP3   OH241827   2.933   3.178  14.360 -0.2189  0.1875  0.0235
 6779TIP3    H141828   2.972   3.107  14.410 -1.9889  0.1717  1.4916
 6779TIP3    H241829   2.935   3.253  14.419 -0.1470  0.8343 -0.7865
 6780TIP3   OH241830   4.910   5.038   2.769  0.3510 -0.4586 -0.3382
 6780TIP3    H141831   4.942   5.124   2.795 -2.2529  0.3399  0.5550
 6780TIP3    H241832   4.920   4.984   2.847 -3.3449  0.7399  1.2193
 6781TIP3   OH241833   5.294   1.123   2.065  0.0186  0.2012 -0.2012
 6781TIP3    H141834   5.218   1.179   2.049 -0.2869 -0.9044 -3.1913
 6781TIP3    H241835   5.257   1.036   2.079  0.6771 -0.0984 -0.2899
 6782TIP3   OH241836   2.836   1.385   2.829  0.3844  0.5655  0.3110
 6782TIP3    H141837   2.802   1.389   2.919  0.5193  0.5942  0.3617
 6782TIP3    H241838   2.931   1.376   2.841  0.2654 -1.1850  0.2074
 6783TIP3   OH241839   4.656   6.688   4.633  0.3158  0.1294 -0.4805
 6783TIP3    H141840   4.645   6.780   4.607  0.1594  0.2510  0.0097
 6783TIP3    H241841   4.572   6.663   4.671  0.2334 -0.3333 -0.9499
 6784TIP3   OH241842   6.042   6.210  10.982 -0.7249  0.6115 -0.5441
 6784TIP3    H141843   6.037   6.305  10.992 -1.2191  0.6161 -0.7832
 6784TIP3    H241844   6.134   6.188  10.998 -0.5152  1.1850 -0.9563
 6785TIP3   OH241845   4.596   4.132  10.897  0.1056 -0.0926 -0.1428
 6785TIP3    H141846   4.501   4.141  10.906  0.1452 -0.6806  1.1031
 6785TIP3    H241847   4.624   4.088  10.977  1.2278 -1.4513 -1.2241
 6786TIP3   OH241848   4.390   1.286   5.023 -0.1903 -0.0546 -0.0137
 6786TIP3    H141849   4.371   1.195   4.999 -0.1849 -0.1621  0.3870
 6786TIP3    H241850   4.485   1.288   5.036 -0.3215 -0.2504  1.0425
 6787TIP3   OH241851   0.789   2.046   3.854 -0.3702 -0.4005  0.5465
 6787TIP3    H141852   0.797   2.061   3.948 -0.5219 -1.3667  0.7240
 6787TIP3    H241853   0.848   2.110   3.814  0.4941 -0.6789  1.3491
 6788TIP3   OH241854   0.664   6.795  16.051 -0.0154  0.4483  0.2746
 6788TIP3    H141855   0.752   6.757  16.051  0.0844  0.6500 -0.9633
 6788TIP3    H241856   0.642   6.804  16.144 -0.0958 -2.7281  0.6583
 6789TIP3   OH241857   3.860   3.147   1.335 -0.6236 -0.3779 -0.0229
 6789TIP3    H141858   3.942   3.152   1.384 -1.2282 -0.1161  0.9794
 6789TIP3    H241859   3.812   3.075   1.376  0.0639 -2.1735 -2.1403
 6790TIP3   OH241860   2.720   5.455  11.893 -0.2696 -0.0623 -0.3607
 6790TIP3    H141861   2.727   5.426  11.984 -1.7754  0.6681  0.0153
 6790TIP3    H241862   2.636   5.422  11.863 -1.3515  2.4798 -0.4064
 6791TIP3   OH241863   0.463   0.149  10.788  0.4256  0.4231 -0.4640
 6791TIP3    H141864   0.544   0.139  10.739 -0.0576 -1.6342 -0.9256
 6791TIP3    H241865   0.412   0.071  10.767 -1.3478  1.2677  0.4473
 6792TIP3   OH241866   2.371   2.791  16.298  0.6898 -0.2296 -0.0834
 6792TIP3    H141867   2.458   2.831  16.300 -0.1349  1.7522 -0.8014
 6792TIP3    H241868   2.339   2.809  16.209 -0.3963 -1.0929  0.1136
 6793TIP3   OH241869   5.368   4.235  17.139 -0.1748  0.8360  0.0503
 6793TIP3    H141870   5.380   4.320  17.099  0.1356  0.4940 -0.5979
 6793TIP3    H241871   5.441   4.227  17.201  0.4897  0.5628 -0.7423
 6794TIP3   OH241872   2.176   5.155   4.762  0.2901 -0.0694 -0.5848
 6794TIP3    H141873   2.158   5.064   4.785 -2.9784  0.7121  0.3951
 6794TIP3    H241874   2.110   5.177   4.697 -0.6761  2.2963  1.0890
 6795TIP3   OH241875   0.883   5.069   4.540  0.2706 -0.0391  0.1808
 6795TIP3    H141876   0.866   5.080   4.447  0.1331  0.2327  0.2356
 6795TIP3    H241877   0.919   4.981   4.548  0.3092 -0.0537 -0.1321
 6796TIP3   OH241878   1.139   1.095   2.455  0.1166 -0.4172 -0.1487
 6796TIP3    H141879   1.211   1.101   2.518 -0.3208  0.0380  0.3237
 6796TIP3    H241880   1.170   1.142   2.378  0.3690 -0.3225  0.0107
 6797TIP3   OH241881   0.688   2.093  14.545 -0.0645 -0.0286  0.4451
 6797TIP3    H141882   0.646   2.173  14.512  2.9355  0.7456 -2.0073
 6797TIP3    H241883   0.715   2.115  14.634 -1.3494  0.7971  0.6595
 6798TIP3   OH241884   4.033   3.131  11.627 -0.0069  0.9659  0.9024
 6798TIP3    H141885   3.958   3.071  11.629 -0.0323  0.9982  0.9355
 6798TIP3    H241886   4.108   3.075  11.610 -0.1414  1.0377  0.0560
 6799TIP3   OH241887   2.917   5.760  14.414  0.2623  0.3437  0.3236
 6799TIP3    H141888   2.903   5.666  14.403 -1.5727  0.5477  0.5665
 6799TIP3    H241889   2.990   5.780  14.356  0.0293 -1.0566 -0.5109
 6800TIP3   OH241890   5.656   0.404  12.584  0.0554 -0.3435  0.7269
 6800TIP3    H141891   5.638   0.494  12.611  0.5065 -0.5930  1.9277
 6800TIP3    H241892   5.652   0.406  12.488  0.5160  1.0559  0.7156
 6801TIP3   OH241893   1.532   5.341   3.527  0.1869  1.0059  0.2632
 6801TIP3    H141894   1.517   5.425   3.483 -0.1614  0.0286 -1.5793
 6801TIP3    H241895   1.482   5.277   3.475  3.3807 -0.9514 -0.6819
 6802TIP3   OH241896   0.961   0.111  12.956 -0.1020  0.2053  0.4360
 6802TIP3    H141897   0.901   0.137  12.886  1.0106 -0.0326 -0.6594
 6802TIP3    H241898   0.908   0.111  13.035 -1.1920  1.3888 -0.2578
 6803TIP3   OH241899   4.754   5.363   3.279  0.2957 -0.2572 -0.4408
 6803TIP3    H141900   4.721   5.274   3.268 -0.6130  0.1681 -1.2927
 6803TIP3    H241901   4.754   5.376   3.374  1.3032 -1.4619 -0.2517
 6804TIP3   OH241902   0.048   2.106  16.498  0.3173 -0.3753 -0.4185
 6804TIP3    H141903   0.045   2.057  16.580 -0.7763 -1.1026 -0.8617
 6804TIP3    H241904  -0.044   2.122  16.476  0.6247  1.4515 -0.5577
 6805TIP3   OH241905   5.508   3.655  17.238  0.0277 -0.0284 -0.4621
 6805TIP3    H141906   5.423   3.689  17.266  1.0919  1.9590  0.5816
 6805TIP3    H241907   5.511   3.566  17.273 -1.4177  0.0406 -0.1089
 6806TIP3   OH241908   1.176   0.520   1.047  0.2829 -0.2296 -0.1152
 6806TIP3    H141909   1.221   0.580   1.107 -2.1043  0.2861  1.2744
 6806TIP3    H241910   1.173   0.568   0.964  0.5786  0.5275  0.2943
 6807TIP3   OH241911   2.178   0.111  13.942 -0.2769 -0.1814 -0.0912
 6807TIP3    H141912   2.104   0.101  13.881 -0.7135  1.0492  0.2116
 6807TIP3    H241913   2.191   0.205  13.948  0.3712 -0.3313  1.0071
 6808TIP3   OH241914   2.595   1.413   4.973  0.0122 -0.1133  0.4541
 6808TIP3    H141915   2.666   1.472   4.997  0.2191 -0.3499  0.4341
 6808TIP3    H241916   2.536   1.466   4.919 -0.1266  0.2432  0.9444
 6809TIP3   OH241917   5.567   5.211   5.213  0.2236 -0.3799 -0.6897
 6809TIP3    H141918   5.589   5.152   5.141  0.4682 -0.2067 -0.7604
 6809TIP3    H241919   5.480   5.244   5.191  1.0343  1.1141 -1.8900
 6810TIP3   OH241920   4.895   2.528  12.723 -0.7636  0.2248 -0.6324
 6810TIP3    H141921   4.821   2.576  12.686 -1.0007  0.7140  0.4343
 6810TIP3    H241922   4.862   2.438  12.735 -1.4678  0.6211  0.5742
 6811TIP3   OH241923   0.852   6.729  12.692  0.1341  0.3549 -0.5067
 6811TIP3    H141924   0.794   6.758  12.763  2.0534  3.4297 -0.0161
 6811TIP3    H241925   0.928   6.693  12.736  0.8835  1.3052 -0.9937
 6812TIP3   OH241926   2.766   6.706   3.218 -0.1298  0.1501  0.1138
 6812TIP3    H141927   2.673   6.697   3.236 -0.0465 -0.7622  0.0954
 6812TIP3    H241928   2.800   6.758   3.291 -0.7140  0.8100 -0.0767
 6813TIP3   OH241929   5.312   0.240   6.503  0.3530 -0.1438 -0.3908
 6813TIP3    H141930   5.349   0.253   6.590  1.7691 -0.6575 -0.8801
 6813TIP3    H241931   5.276   0.151   6.506  1.2493 -0.5323 -0.5841
 6814TIP3   OH241932   3.680   3.896  14.647 -0.1827  0.1839 -0.4244
 6814TIP3    H141933   3.773   3.880  14.663 -0.5203  0.5879  2.4824
 6814TIP3    H241934   3.635   3.834  14.705 -1.7316  0.4134 -1.3288
 6815TIP3   OH241935   4.728   1.276  17.071  0.0794 -0.1605  0.5020
 6815TIP3    H141936   4.717   1.340  17.000  0.9057  1.3148  1.6427
 6815TIP3    H241937   4.676   1.312  17.143  0.7449 -0.6697  1.2378
 6816TIP3   OH241938   2.024   3.213   3.173  0.9644 -0.1734  0.1201
 6816TIP3    H141939   2.012   3.268   3.251 -2.7319  0.0930 -0.4638
 6816TIP3    H241940   2.010   3.124   3.205 -1.3316 -0.0016 -0.2889
 6817TIP3   OH241941   5.707   5.575  13.065 -0.1069 -0.1315 -0.1292
 6817TIP3    H141942   5.638   5.611  13.122  0.0683 -0.1869  0.1224
 6817TIP3    H241943   5.685   5.607  12.978  0.8255  1.8074  0.2896
 6818TIP3   OH241944   5.658   0.866   5.666 -0.0503  0.4575 -0.2158
 6818TIP3    H141945   5.621   0.802   5.726  0.0183 -2.0144 -2.6270
 6818TIP3    H241946   5.747   0.836   5.649 -0.1669  0.8910 -1.7659
 6819TIP3   OH241947   1.809   6.202  17.191 -0.4135 -0.1174  0.3519
 6819TIP3    H141948   1.770   6.115  17.183 -0.6242 -0.1809  1.7851
 6819TIP3    H241949   1.893   6.187  17.234  0.3479  0.2216 -0.9703
 6820TIP3   OH241950   6.714   3.085  17.183  0.5089 -0.5575  0.0203
 6820TIP3    H141951   6.702   2.994  17.157  0.2114 -0.4781 -0.1357
 6820TIP3    H241952   6.678   3.136  17.110  0.5824 -0.3194  0.1475
 6821TIP3   OH241953   3.458   3.210  15.133  0.2115 -0.1839 -0.3499
 6821TIP3    H141954   3.409   3.257  15.200  1.3417  1.6082 -0.7188
 6821TIP3    H241955   3.401   3.136  15.110 -0.7812 -0.1124  1.6081
 6822TIP3   OH241956   2.564   1.506  16.956  0.0397 -0.0607 -0.3185
 6822TIP3    H141957   2.561   1.411  16.969  1.9926 -0.1303 -0.0666
 6822TIP3    H241958   2.647   1.533  16.995 -1.6565  2.1759  2.0991
 6823TIP3   OH241959   2.405   0.150   1.806 -0.4859 -0.1721  0.0665
 6823TIP3    H141960   2.409   0.231   1.756 -0.0603 -1.2212 -1.6842
 6823TIP3    H241961   2.406   0.178   1.897 -1.6149  1.8425 -0.4735
 6824TIP3   OH241962   3.638   0.765  16.517 -0.4118 -0.6907 -0.0270
 6824TIP3    H141963   3.724   0.800  16.493 -1.0177  1.0260  0.1577
 6824TIP3    H241964   3.646   0.743  16.609  0.0131 -1.1279 -0.1657
 6825TIP3   OH241965   5.377   0.498  12.003  0.2863 -0.0491 -0.4909
 6825TIP3    H141966   5.316   0.481  12.075 -0.0212 -1.4595 -1.0515
 6825TIP3    H241967   5.383   0.415  11.957  2.2301  0.2100 -0.7809
 6826TIP3   OH241968   4.194   6.700   2.241 -0.5966 -0.0210 -0.8016
 6826TIP3    H141969   4.185   6.631   2.308  0.6813 -0.4030 -0.9948
 6826TIP3    H241970   4.254   6.662   2.177 -0.9060  0.7941 -1.5771
 6827TIP3   OH241971   5.033   2.838   5.731  0.3837  1.1481 -0.0699
 6827TIP3    H141972   5.080   2.788   5.664  0.6753 -0.0336  0.9805
 6827TIP3    H241973   5.061   2.799   5.814 -0.2548  2.3333  0.7258
 6828TIP3   OH241974   4.069   2.827   2.960  0.4666 -0.1312  0.3716
 6828TIP3    H141975   4.164   2.833   2.948  0.4224  2.9063  0.6408
 6828TIP3    H241976   4.035   2.799   2.875  1.5482 -1.0287  0.2121
 6829TIP3   OH241977   3.848   2.817  13.704 -0.1389 -0.3071 -0.1623
 6829TIP3    H141978   3.873   2.817  13.611 -0.7895  0.0182 -0.3497
 6829TIP3    H241979   3.875   2.903  13.736  0.4247 -0.5595  0.0530
 6830TIP3   OH241980   3.793   4.945  15.045 -0.6783 -0.8159  0.0547
 6830TIP3    H141981   3.854   4.982  14.981 -1.7695 -1.0041 -1.1268
 6830TIP3    H241982   3.791   4.851  15.025 -0.2209 -1.0599  1.0748
 6831TIP3   OH241983   2.661   5.250   3.116  0.6090  0.6934 -0.0768
 6831TIP3    H141984   2.621   5.164   3.133  0.9400  0.7322  0.9773
 6831TIP3    H241985   2.594   5.299   3.070  0.4638 -0.1778 -0.8253
 6832TIP3   OH241986   6.113   0.315  14.133 -0.3244 -0.0679 -0.6066
 6832TIP3    H141987   6.021   0.300  14.111 -0.8910  0.0343  1.4568
 6832TIP3    H241988   6.140   0.387  14.076 -0.8829 -1.4262 -2.6809
 6833TIP3   OH241989   6.394   3.414   1.938 -0.0086 -0.5544 -0.3740
 6833TIP3    H141990   6.469   3.355   1.946  1.4859  1.1229 -1.0855
 6833TIP3    H241991   6.412   3.463   1.858  0.4939  2.9479  1.6554
 6834TIP3   OH241992   5.647   3.027   1.389 -0.2071  0.1431  0.5184
 6834TIP3    H141993   5.579   2.990   1.333 -0.3518 -0.1327  0.8725
 6834TIP3    H241994   5.725   3.031   1.332 -0.6259  0.8744 -0.0149
 6835TIP3   OH241995   2.492   4.113   0.831 -0.0561  0.4586 -0.0245
 6835TIP3    H141996   2.448   4.181   0.780 -1.2230 -0.6144 -0.5216
 6835TIP3    H241997   2.504   4.151   0.918  0.5407  1.7615 -0.6509
 6836TIP3   OH241998   1.121   0.229   2.135  0.2349 -0.1931 -0.4333
 6836TIP3    H141999   1.192   0.269   2.185 -0.7894  1.0233  0.0955
 6836TIP3    H242000   1.085   0.163   2.195 -1.1091  1.3885  0.5877
 6837TIP3   OH242001   1.557   0.191   5.086  0.2725  0.0278 -0.4566
 6837TIP3    H142002   1.580   0.231   5.170  0.9686 -2.3002  0.5344
 6837TIP3    H242003   1.461   0.193   5.084  0.1655 -1.2038  1.1418
 6838TIP3   OH242004   1.701   0.450   0.559  0.3552  0.4134  0.0840
 6838TIP3    H142005   1.693   0.378   0.621  1.0205  2.1014  2.2378
 6838TIP3    H242006   1.612   0.484   0.550  0.2143  0.0025 -0.1086
 6839TIP3   OH242007   3.138   4.293  15.374  0.1924 -0.0773  0.1145
 6839TIP3    H142008   3.100   4.243  15.445  0.2604 -0.2266  0.0462
 6839TIP3    H242009   3.073   4.290  15.304 -0.2483  0.7849  0.4705
 6840TIP3   OH242010   4.499   0.669  12.583 -0.5274 -0.5557  0.6006
 6840TIP3    H142011   4.549   0.631  12.655 -1.3619 -0.6801  1.1172
 6840TIP3    H242012   4.546   0.641  12.504  0.4112 -0.3836  1.0886
 6841TIP3   OH242013   5.172   2.627   4.004  0.3750  0.8986  0.3137
 6841TIP3    H142014   5.154   2.659   3.915 -1.1144  0.6154  0.4913
 6841TIP3    H242015   5.174   2.532   3.995 -3.1136  0.6265  1.0679
 6842TIP3   OH242016   4.317   0.452   2.924  0.4180 -0.2143 -0.0587
 6842TIP3    H142017   4.345   0.394   2.853  1.6812 -0.4685  0.6226
 6842TIP3    H242018   4.337   0.540   2.892  1.8892 -0.3787  0.3358
 6843TIP3   OH242019   2.474   3.468   5.457 -0.0666 -0.1923  0.2979
 6843TIP3    H142020   2.395   3.521   5.466  0.9695  1.3231  1.0039
 6843TIP3    H242021   2.482   3.453   5.363  0.1290  1.8218 -0.0528
 6844TIP3   OH242022   0.432   3.195   1.678  0.0961  0.1767 -0.0550
 6844TIP3    H142023   0.409   3.180   1.586  0.4011  0.1568 -0.1301
 6844TIP3    H242024   0.428   3.108   1.718  0.5926  0.0890 -0.1955
 6845TIP3   OH242025   2.686   3.161   2.535  0.0374  0.4645 -0.3090
 6845TIP3    H142026   2.688   3.074   2.575 -1.6879  0.9057  0.8657
 6845TIP3    H242027   2.763   3.206   2.570  0.9509 -0.5730 -0.9438
 6846TIP3   OH242028   1.435   6.134   1.065 -0.0309 -0.2473 -0.3772
 6846TIP3    H142029   1.447   6.077   1.142  0.5876  0.5664  0.1454
 6846TIP3    H242030   1.524   6.143   1.029  0.0870  1.2887  0.2142
 6847TIP3   OH242031   4.286   0.616  16.013  0.0285 -0.1042 -0.1181
 6847TIP3    H142032   4.207   0.664  15.987  0.0436  0.4965  0.8784
 6847TIP3    H242033   4.335   0.678  16.068  1.6538 -0.1289 -1.4333
 6848TIP3   OH242034   4.820   2.870   4.301  0.0961 -0.2659  0.2289
 6848TIP3    H142035   4.817   2.961   4.271 -0.4797  0.4277  2.2185
 6848TIP3    H242036   4.892   2.831   4.253 -0.4452  0.8764 -1.6132
 6849TIP3   OH242037   1.124   3.580   5.291 -0.9039 -0.7412  0.2200
 6849TIP3    H142038   1.200   3.544   5.336 -1.9826 -0.9299  1.9995
 6849TIP3    H242039   1.155   3.599   5.203  1.0967 -1.1296  0.7870
 6850TIP3   OH242040   2.757   2.459   5.417  0.3038 -0.5371  0.1935
 6850TIP3    H142041   2.673   2.503   5.401  0.3446 -1.1487 -2.2096
 6850TIP3    H242042   2.816   2.528   5.445 -0.4242  0.3646 -0.4103
 6851TIP3   OH242043   6.101   0.798   4.934  0.2034  0.0640  0.5667
 6851TIP3    H142044   6.138   0.882   4.961  0.4677  0.5084 -1.0674
 6851TIP3    H242045   6.107   0.799   4.839 -0.2392 -1.6150  0.4947
 6852TIP3   OH242046   2.757   3.585  15.926 -0.5479 -0.2220 -0.6261
 6852TIP3    H142047   2.749   3.589  16.022 -3.1486 -1.0894 -0.7225
 6852TIP3    H242048   2.844   3.549  15.911  0.5500  1.3701  1.3330
 6853TIP3   OH242049   3.137   1.809   5.353  1.1528 -0.5299  0.8896
 6853TIP3    H142050   3.119   1.875   5.419  0.7445  0.0986  0.1651
 6853TIP3    H242051   3.189   1.854   5.286 -0.0061 -0.6359 -0.1206
 6854TIP3   OH242052   2.030   2.512   5.065 -0.6788  0.0840  0.3804
 6854TIP3    H142053   2.028   2.526   4.971 -0.3166  1.9922  0.6104
 6854TIP3    H242054   2.105   2.562   5.096 -0.4027 -1.0290  1.6262
 6855TIP3   OH242055   6.694   4.812   5.254  0.7591 -0.7002 -0.6343
 6855TIP3    H142056   6.760   4.845   5.194  0.1154  0.4291 -0.7445
 6855TIP3    H242057   6.610   4.825   5.209  0.2367  0.4370  0.5952
 6856TIP3   OH242058   1.454   0.617  14.489 -0.4617  0.5197 -0.3691
 6856TIP3    H142059   1.453   0.631  14.584  1.2985 -0.8497 -0.0891
 6856TIP3    H242060   1.378   0.562  14.473  0.0884 -0.5707  0.5397
 6857TIP3   OH242061   3.347   2.376   0.554  0.4599  0.2353 -0.1839
 6857TIP3    H142062   3.302   2.357   0.637  0.6518  1.4690  0.2313
 6857TIP3    H242063   3.434   2.405   0.581 -0.0768  2.4581 -0.6716
 6858TIP3   OH242064   2.603   6.289   6.407 -0.6699  0.2570 -0.4707
 6858TIP3    H142065   2.586   6.195   6.416 -1.9044  0.3835 -1.1657
 6858TIP3    H242066   2.667   6.309   6.475 -1.8828 -0.6980  0.9949
 6859TIP3   OH242067   0.089   4.752  13.110 -0.0167 -0.3399  0.0620
 6859TIP3    H142068   0.151   4.767  13.039 -0.0587  1.8095  0.4286
 6859TIP3    H242069   0.133   4.784  13.188 -0.8958 -0.4579  0.6256
 6860TIP3   OH242070   3.894   4.106   2.237  0.5209  0.2647 -0.2329
 6860TIP3    H142071   3.941   4.113   2.154 -0.1414 -0.0601 -0.6423
 6860TIP3    H242072   3.915   4.187   2.283 -0.4179  1.2289 -1.4172
 6861TIP3   OH242073   0.857   3.736  15.386 -0.3403 -0.4337  0.6654
 6861TIP3    H142074   0.783   3.713  15.443 -1.7416  0.7543 -0.5817
 6861TIP3    H242075   0.881   3.825  15.413  0.6210 -0.7901  1.0200
 6862TIP3   OH242076   2.136   0.641  14.956 -0.3824 -0.3884  0.3483
 6862TIP3    H142077   2.099   0.555  14.935  0.6736 -0.9924  0.8856
 6862TIP3    H242078   2.229   0.632  14.938 -0.3713  0.9387 -0.4557
 6863TIP3   OH242079   6.495   1.666   1.601 -0.5502 -0.7203  0.1326
 6863TIP3    H142080   6.453   1.598   1.548  0.4578  0.2666 -2.0538
 6863TIP3    H242081   6.426   1.697   1.659 -2.1462 -0.9243 -1.5641
 6864TIP3   OH242082   0.017   1.006  13.597  0.2914 -0.3463 -0.5485
 6864TIP3    H142083   0.094   1.054  13.629  0.1357  0.2859 -1.0908
 6864TIP3    H242084   0.051   0.943  13.534  0.3945 -0.2439 -0.5951
 6865TIP3   OH242085   4.699   0.187  17.200 -0.7650  0.1445  0.1810
 6865TIP3    H142086   4.690   0.151  17.288 -0.3964  0.2052  0.2488
 6865TIP3    H242087   4.657   0.124  17.142  2.5690 -2.0552 -0.0867
 6866TIP3   OH242088   3.425   6.767   5.752 -0.2620 -0.0847  0.2087
 6866TIP3    H142089   3.437   6.767   5.847 -1.1974  1.2230  0.3616
 6866TIP3    H242090   3.380   6.685   5.734  1.1669 -1.0010  0.6931
 6867TIP3   OH242091   6.026   1.981   4.729 -0.2846 -0.1908 -0.4447
 6867TIP3    H142092   5.964   1.999   4.658  1.4533 -0.4168 -2.0719
 6867TIP3    H242093   6.047   2.067   4.765 -0.5581 -0.0096 -0.7133
 6868TIP3   OH242094   0.891   0.559  14.566 -0.2504 -0.6711 -0.4196
 6868TIP3    H142095   0.869   0.535  14.656  0.2184 -1.7502 -0.5788
 6868TIP3    H242096   0.964   0.620  14.575 -0.7145 -0.1565 -0.0490
 6869TIP3   OH242097   3.989   0.139  14.298  0.4574 -0.4571 -0.5134
 6869TIP3    H142098   3.970   0.143  14.205 -1.4712  0.7967 -0.1074
 6869TIP3    H242099   4.039   0.218  14.317  0.0461 -0.2384 -0.3269
 6870TIP3   OH242100   4.327   2.300   5.090  0.2985  0.4210  0.6221
 6870TIP3    H142101   4.399   2.362   5.096 -2.1500  3.4303  1.8549
 6870TIP3    H242102   4.315   2.285   4.996  3.2712 -1.3028  0.4106
 6871TIP3   OH242103   5.629   3.318  13.419  0.1972 -0.1898  0.4322
 6871TIP3    H142104   5.681   3.396  13.402 -1.8579  1.4141  1.0156
 6871TIP3    H242105   5.590   3.334  13.505 -0.6730 -1.6331  0.3431
 6872TIP3   OH242106   4.028   2.167  11.673 -0.5590 -0.3219 -0.1694
 6872TIP3    H142107   4.014   2.255  11.640  0.6032  0.0843  0.3777
 6872TIP3    H242108   4.114   2.142  11.639 -0.0398 -0.5061  1.2183
 6873TIP3   OH242109   0.368   3.392  13.270 -0.0155 -0.2045 -0.2259
 6873TIP3    H142110   0.368   3.325  13.338 -1.2421 -1.2904 -1.2441
 6873TIP3    H242111   0.385   3.473  13.317  3.4063 -1.3577  0.8316
 6874TIP3   OH242112   2.843   0.930   4.212  0.0687  0.4255 -0.4960
 6874TIP3    H142113   2.751   0.944   4.234  0.4720  0.3812  1.4263
 6874TIP3    H242114   2.843   0.917   4.117 -2.2041 -1.9773 -0.3011
 6875TIP3   OH242115   1.710   5.029  15.680  0.4816  0.0473 -0.0118
 6875TIP3    H142116   1.620   5.019  15.648  0.1732 -0.7691  1.0600
 6875TIP3    H242117   1.703   5.019  15.775  1.7777 -0.5577  0.0399
 6876TIP3   OH242118   2.554   4.024  11.909  0.2699 -0.2405 -0.2685
 6876TIP3    H142119   2.552   3.973  11.990  0.4827 -0.1966 -0.2371
 6876TIP3    H242120   2.528   3.962  11.841 -0.5991 -0.1102 -0.0773
 6877TIP3   OH242121   3.755   3.490   2.326  0.4937 -0.2402 -0.1570
 6877TIP3    H142122   3.722   3.457   2.242  0.9653 -0.4527 -0.2621
 6877TIP3    H242123   3.755   3.585   2.317  0.2932 -0.2538 -0.3022
 6878TIP3   OH242124   3.818   2.134  14.835  0.2149  0.2421  0.0082
 6878TIP3    H142125   3.757   2.169  14.900 -0.4561 -1.5835  0.4117
 6878TIP3    H242126   3.898   2.117  14.884  0.2798  0.4425 -0.0247
 6879TIP3   OH242127   0.869   3.663  11.622 -0.0330  0.8404  0.4859
 6879TIP3    H142128   0.858   3.758  11.630  0.2248  0.8831  0.3540
 6879TIP3    H242129   0.827   3.641  11.539  0.9737  1.0254 -0.0909
 6880TIP3   OH242130   2.612   2.207   6.155  0.1927 -0.1579 -0.6640
 6880TIP3    H142131   2.708   2.211   6.161  0.2919  0.6608 -2.1317
 6880TIP3    H242132   2.589   2.286   6.105 -1.5405  1.4123  2.3821
 6881TIP3   OH242133   4.581   5.179   1.499  0.1417  0.1955  0.7642
 6881TIP3    H142134   4.612   5.117   1.566  1.1263 -0.6334 -0.4197
 6881TIP3    H242135   4.661   5.212   1.458 -0.3834  2.0754  1.1804
 6882TIP3   OH242136   4.402   2.087   2.901 -0.7604 -0.0258 -0.1528
 6882TIP3    H142137   4.484   2.133   2.919 -0.5653 -0.1849 -0.6303
 6882TIP3    H242138   4.335   2.138   2.948 -0.5926  0.9144 -0.8921
 6883TIP3   OH242139   6.246   6.694   0.735 -0.4447  0.0491  0.3449
 6883TIP3    H142140   6.268   6.716   0.645 -0.7211 -1.5975 -0.1578
 6883TIP3    H242141   6.327   6.711   0.784  0.5180 -1.4143 -0.6548
 6884TIP3   OH242142   0.177   3.984  13.801 -0.0597 -0.0340 -0.2551
 6884TIP3    H142143   0.219   3.900  13.781 -2.5888 -1.2446 -0.9387
 6884TIP3    H242144   0.085   3.961  13.818 -0.4385  2.3843  1.5565
 6885TIP3   OH242145   5.885   6.123  17.215  0.0014 -0.3743 -0.0229
 6885TIP3    H142146   5.950   6.067  17.260  0.0827 -0.8805 -0.7503
 6885TIP3    H242147   5.936   6.197  17.182  0.2204 -0.7608 -0.5747
 6886TIP3   OH242148   0.602   5.554  14.664 -0.8142 -0.0441 -0.0973
 6886TIP3    H142149   0.667   5.624  14.667 -0.4094 -0.4402  0.5532
 6886TIP3    H242150   0.643   5.481  14.709  0.2807 -1.9674 -3.7986
 6887TIP3   OH242151   4.039   5.282  14.206  0.1923 -0.1714  0.7665
 6887TIP3    H142152   4.046   5.292  14.301  2.0017  0.3815  0.6071
 6887TIP3    H242153   4.127   5.298  14.173 -0.6203  0.8459 -1.1225
 6888TIP3   OH242154   2.234   3.125  16.742 -0.1778  1.0239  0.1909
 6888TIP3    H142155   2.188   3.210  16.742  2.0443  2.3224 -0.8752
 6888TIP3    H242156   2.317   3.144  16.786  0.0818 -0.8082  0.5345
 6889TIP3   OH242157   0.199   6.660  10.419 -0.0200  0.2895 -0.0680
 6889TIP3    H142158   0.113   6.644  10.381 -0.0128  0.6093 -0.2220
 6889TIP3    H242159   0.246   6.578  10.406 -0.0457  0.3627 -0.6648
 6890TIP3   OH242160   4.971   0.975  13.670 -0.1348  0.2462  0.2334
 6890TIP3    H142161   4.963   0.882  13.648 -0.0546  0.6235 -1.5393
 6890TIP3    H242162   5.007   1.015  13.591 -2.6015  2.1962 -0.0098
 6891TIP3   OH242163   2.063   4.260  14.768  0.2653 -0.6093 -0.0183
 6891TIP3    H142164   2.139   4.203  14.779  1.0457  0.4379  0.2058
 6891TIP3    H242165   2.090   4.344  14.805 -0.2466  0.4154 -1.8340
 6892TIP3   OH242166   2.735   1.151  16.749  0.0608 -0.3745 -0.2911
 6892TIP3    H142167   2.678   1.227  16.763 -1.0786 -1.1947 -0.3882
 6892TIP3    H242168   2.775   1.135  16.835  1.0472  0.8917 -0.4849
 6893TIP3   OH242169   5.025   3.401  11.831 -0.5667 -0.5501  0.6600
 6893TIP3    H142170   5.116   3.433  11.831 -0.4937 -0.7309 -0.2425
 6893TIP3    H242171   4.972   3.480  11.838 -0.3453 -0.5079  2.3344
 6894TIP3   OH242172   4.988   0.446  11.366  0.4665 -0.4294  0.1866
 6894TIP3    H142173   4.938   0.367  11.387  2.6647 -1.3115  2.6367
 6894TIP3    H242174   5.067   0.414  11.321  1.3327  0.3492  1.1045
 6895TIP3   OH242175   0.351   0.528   5.671 -0.3914  0.5551 -0.6341
 6895TIP3    H142176   0.431   0.557   5.715  0.5747 -1.4039 -0.9676
 6895TIP3    H242177   0.314   0.462   5.730  0.4157 -1.4338 -2.2245
 6896TIP3   OH242178   3.507   1.883  15.506 -0.5188 -0.2420  0.2153
 6896TIP3    H142179   3.454   1.940  15.562 -0.1175  0.7174 -0.3486
 6896TIP3    H242180   3.575   1.849  15.563  1.7500  3.1262 -0.2283
 6897TIP3   OH242181   5.722   0.947  15.067  0.6106 -0.2930 -0.1819
 6897TIP3    H142182   5.704   1.008  14.996  0.3571  0.8074  0.8001
 6897TIP3    H242183   5.646   0.889  15.069  0.9044 -0.7443 -1.1900
 6898TIP3   OH242184   6.500   3.465   2.912 -0.3244 -0.0292  0.5648
 6898TIP3    H142185   6.422   3.460   2.968 -0.0601 -2.2054  0.8449
 6898TIP3    H242186   6.466   3.457   2.823 -0.5599  1.0070  0.5550
 6899TIP3   OH242187   4.618   0.077   0.752 -0.1855 -0.7534 -0.5516
 6899TIP3    H142188   4.664   0.132   0.688 -0.8750 -1.0593 -1.3308
 6899TIP3    H242189   4.527   0.076   0.721 -0.4754 -1.1227  0.2961
 6900TIP3   OH242190   4.376   6.578  13.054  0.1654 -0.1421 -0.5389
 6900TIP3    H142191   4.404   6.637  13.123 -0.0914  0.3139 -0.8224
 6900TIP3    H242192   4.289   6.608  13.029  0.2651 -0.2781 -1.0804
 6901TIP3   OH242193   2.885   6.027  13.343 -0.5031  0.2393 -0.0434
 6901TIP3    H142194   2.839   6.081  13.408  0.5371 -0.6496  1.5033
 6901TIP3    H242195   2.976   6.027  13.373 -0.1274 -0.7780 -1.1350
 6902TIP3   OH242196   1.899   0.951   1.294  0.4029  0.3552  0.1069
 6902TIP3    H142197   1.855   0.927   1.375  2.0253  0.9668  1.2224
 6902TIP3    H242198   1.874   1.042   1.279 -2.1030 -0.5273 -1.6460
 6903TIP3   OH242199   0.903   0.268  11.241 -0.0730 -0.5386  0.2974
 6903TIP3    H142200   0.894   0.351  11.193  1.2316 -0.9475 -0.7275
 6903TIP3    H242201   0.841   0.275  11.313  1.5013  2.2519  1.5278
 6904TIP3   OH242202   5.292   3.335   2.311 -0.0186  0.0440  0.1500
 6904TIP3    H142203   5.267   3.362   2.223 -0.3704 -1.3463 -0.1995
 6904TIP3    H242204   5.251   3.400   2.369 -1.5353 -0.2027 -0.5969
 6905TIP3   OH242205   2.588   5.151   0.192 -0.8524  0.5881 -0.0813
 6905TIP3    H142206   2.587   5.161   0.287  0.0174 -0.2472  0.0315
 6905TIP3    H242207   2.670   5.104   0.174 -1.0618  0.6416 -1.2321
 6906TIP3   OH242208   6.699   2.593  16.421 -0.6730 -0.1837  0.3356
 6906TIP3    H142209   6.757   2.525  16.387 -1.2038  0.2881 -1.6418
 6906TIP3    H242210   6.694   2.575  16.515  1.1121 -1.3922  0.2572
 6907TIP3   OH242211   3.930   4.419   0.572 -0.2051  0.5043 -0.8828
 6907TIP3    H142212   3.994   4.364   0.526  0.8559  0.6379  0.3718
 6907TIP3    H242213   3.897   4.478   0.505 -2.1056 -2.2109 -2.5170
 6908TIP3   OH242214   6.715   5.808   1.228 -0.0675  0.0186 -0.4694
 6908TIP3    H142215   6.805   5.826   1.201  0.3289  1.1931  1.3952
 6908TIP3    H242216   6.701   5.716   1.206  1.6867 -0.2600 -0.5720
 6909TIP3   OH242217   3.820   2.762   1.343 -0.2209 -1.1194  0.5966
 6909TIP3    H142218   3.758   2.691   1.360 -2.2948 -0.6414 -3.5782
 6909TIP3    H242219   3.768   2.842   1.357  0.4463 -0.5987  0.1418
 6910TIP3   OH242220   3.267   2.602   6.555  0.3786  0.0225 -0.3494
 6910TIP3    H142221   3.182   2.603   6.511  0.0590  1.5991  0.2406
 6910TIP3    H242222   3.269   2.517   6.600 -1.5131  0.5082  0.7702
 6911TIP3   OH242223   3.294   1.270  10.679  0.2620  0.4744 -0.7773
 6911TIP3    H142224   3.235   1.201  10.649  0.2898  0.1821 -0.1841
 6911TIP3    H242225   3.269   1.284  10.770  0.3714  1.1329 -0.8474
 6912TIP3   OH242226   1.333   2.383  12.839  0.0499 -0.1641  0.2332
 6912TIP3    H142227   1.308   2.475  12.838  0.1901 -0.0955  1.4343
 6912TIP3    H242228   1.397   2.374  12.768 -0.0081  0.6502  0.0751
 6913TIP3   OH242229   6.624   5.789   3.774  0.2567 -0.5133  0.2308
 6913TIP3    H142230   6.594   5.879   3.789 -0.5903 -0.9995  1.6902
 6913TIP3    H242231   6.709   5.784   3.818 -0.1128 -0.6563  0.9496
 6914TIP3   OH242232   4.396   1.174   4.123 -0.7989 -0.0860  0.0954
 6914TIP3    H142233   4.412   1.174   4.218  1.0301  1.7886 -0.1325
 6914TIP3    H242234   4.323   1.114   4.111  0.4644 -2.3121  2.4209
 6915TIP3   OH242235   1.006   4.821   1.208 -0.4375  0.1074 -0.4189
 6915TIP3    H142236   0.960   4.867   1.278 -1.4271 -0.5523 -0.6108
 6915TIP3    H242237   0.936   4.793   1.148  0.4060  0.8142 -1.7631
 6916TIP3   OH242238   3.982   5.994   1.059 -0.3635 -0.0050 -0.3721
 6916TIP3    H142239   4.029   6.074   1.084 -2.4626  0.8329  1.2614
 6916TIP3    H242240   3.909   5.990   1.121 -1.1546 -2.4186 -1.3739
 6917TIP3   OH242241   6.335   4.533  16.564 -0.5017  0.5695 -0.2144
 6917TIP3    H142242   6.318   4.534  16.470 -0.7245  3.0412 -0.2296
 6917TIP3    H242243   6.264   4.481  16.601  0.3186 -1.5741 -1.4605
 6918TIP3   OH242244   3.004   4.480  11.842  0.0429  0.5022 -0.1634
 6918TIP3    H142245   3.095   4.508  11.836  0.1340  0.1764 -0.3567
 6918TIP3    H242246   2.955   4.558  11.869  0.1659  1.0381 -1.4623
 6919TIP3   OH242247   6.342   4.900  14.917  0.4956  0.3999  0.2152
 6919TIP3    H142248   6.392   4.891  14.998 -0.5763  1.2021  0.9898
 6919TIP3    H242249   6.383   4.974  14.872  0.4141  0.6527  0.5518
 6920TIP3   OH242250   2.286   3.859   1.752 -0.0012  0.6172 -0.2922
 6920TIP3    H142251   2.316   3.782   1.703  0.0353 -0.2004  0.9746
 6920TIP3    H242252   2.287   3.930   1.688  1.6413 -0.0604 -1.0733
 6921TIP3   OH242253   1.230   6.733  11.226  0.0911 -0.1000  0.5006
 6921TIP3    H142254   1.155   6.674  11.240 -0.2105 -0.1378 -1.0635
 6921TIP3    H242255   1.290   6.682  11.172 -1.0132  1.5643 -2.5478
 6922TIP3   OH242256   1.531   0.089  13.211  0.4051 -0.4363 -0.6307
 6922TIP3    H142257   1.538   0.075  13.116 -2.5875  0.5112 -1.1056
 6922TIP3    H242258   1.494   0.008  13.244  0.1193 -0.2642 -0.5214
 6923TIP3   OH242259   1.015   5.618   3.004 -0.0806 -0.2981 -0.5621
 6923TIP3    H142260   1.059   5.621   2.918  1.6341 -0.6409  0.2557
 6923TIP3    H242261   0.979   5.705   3.016  0.9783  0.2170 -0.9907
 6924TIP3   OH242262   5.501   1.604  12.760  0.4084  0.5723  0.3398
 6924TIP3    H142263   5.525   1.635  12.848  0.6175  0.8232  0.1918
 6924TIP3    H242264   5.408   1.624  12.752  0.3638  0.4544  0.5437
 6925TIP3   OH242265   2.010   4.507  17.138 -0.1104 -0.1275  0.0824
 6925TIP3    H142266   1.993   4.579  17.199 -1.6518  0.3792 -0.9101
 6925TIP3    H242267   1.999   4.545  17.052 -1.7079 -1.7203 -0.4601
 6926TIP3   OH242268   4.311   4.692  14.950 -0.0166  0.2462 -0.4261
 6926TIP3    H142269   4.285   4.701  15.042 -1.5225  0.3133 -0.8229
 6926TIP3    H242270   4.404   4.671  14.953 -0.4329 -1.6207  1.1976
 6927TIP3   OH242271   6.133   0.957   5.582 -0.1817 -0.6510 -0.5572
 6927TIP3    H142272   6.196   1.020   5.548 -1.5602  0.0359 -1.9667
 6927TIP3    H242273   6.185   0.898   5.636  1.2964  1.2073  0.1776
 6928TIP3   OH242274   5.484   2.518  15.620 -0.3010 -0.7177 -0.2807
 6928TIP3    H142275   5.556   2.576  15.644 -0.3850  0.0217 -1.7020
 6928TIP3    H242276   5.526   2.432  15.608  0.7104  0.0117 -2.6335
 6929TIP3   OH242277   1.269   5.174   4.449  0.5637  0.5347  0.6453
 6929TIP3    H142278   1.222   5.119   4.512 -1.2727  2.1566  0.8049
 6929TIP3    H242279   1.357   5.183   4.486  0.5535 -1.2888  1.1937
 6930TIP3   OH242280   6.657   4.328  11.447  0.0934  0.3020  0.3936
 6930TIP3    H142281   6.681   4.288  11.363 -2.2838  0.8234 -0.6066
 6930TIP3    H242282   6.606   4.261  11.491 -0.6891  0.8616  0.3568
 6931TIP3   OH242283   3.715   6.470  16.540  0.6119 -0.4254  0.2785
 6931TIP3    H142284   3.740   6.415  16.466  1.1592  1.2233 -0.7927
 6931TIP3    H242285   3.693   6.407  16.609  1.0497 -1.9877 -0.9414
 6932TIP3   OH242286   4.466   1.687   0.918 -0.3772  0.1376  0.6247
 6932TIP3    H142287   4.452   1.596   0.942 -3.0254  0.8313  2.0493
 6932TIP3    H242288   4.378   1.724   0.909  0.5890  2.3061 -1.0578
 6933TIP3   OH242289   0.380   6.184  13.709 -0.0704  0.0952  0.2647
 6933TIP3    H142290   0.308   6.121  13.712  0.2955 -0.3027  2.5577
 6933TIP3    H242291   0.454   6.135  13.674 -0.3720 -0.0891 -0.1190
 6934TIP3   OH242292   0.696   5.743   5.621 -0.2900 -0.1540  0.3168
 6934TIP3    H142293   0.723   5.674   5.560 -1.2747 -0.5303  0.2892
 6934TIP3    H242294   0.604   5.757   5.602  0.0375  1.6476 -0.1150
 6935TIP3   OH242295   0.658   0.597  11.340 -0.3032 -0.1170 -0.4198
 6935TIP3    H142296   0.657   0.597  11.244 -0.1849  0.0795 -0.4211
 6935TIP3    H242297   0.672   0.688  11.364 -0.4024 -0.1554 -0.2128
 6936TIP3   OH242298   4.757   1.976   3.693  0.0327  0.2232  0.0555
 6936TIP3    H142299   4.732   1.913   3.760 -0.7354  0.8907  0.4234
 6936TIP3    H242300   4.852   1.981   3.698 -0.0536  0.8120  1.6359
 6937TIP3   OH242301   3.090   4.498  14.026  0.1789 -0.1025  0.1739
 6937TIP3    H142302   2.995   4.502  14.019 -0.1062 -1.0760  2.6131
 6937TIP3    H242303   3.120   4.586  14.002 -1.2865  0.1213 -0.9205
 6938TIP3   OH242304   6.444   0.733   2.036  0.3311  0.0159  0.3184
 6938TIP3    H142305   6.484   0.818   2.055  0.1611 -0.1031  1.2194
 6938TIP3    H242306   6.504   0.692   1.974  0.9354  0.3826  0.6497
 6939TIP3   OH242307   3.171   4.204   0.499  0.0660 -0.4037  0.5678
 6939TIP3    H142308   3.168   4.202   0.594 -0.1304  0.4724  0.5856
 6939TIP3    H242309   3.086   4.239   0.473  0.7510  1.0202  0.1453
 6940TIP3   OH242310   1.416   5.711   4.224 -0.5008  0.7157 -0.2117
 6940TIP3    H142311   1.379   5.796   4.250 -0.8756 -0.1562  2.3511
 6940TIP3    H242312   1.511   5.722   4.233 -0.5460  0.8796  0.0708
 6941TIP3   OH242313   3.536   1.468  11.199  0.5927 -0.3334  0.5278
 6941TIP3    H142314   3.541   1.373  11.196  0.5931 -0.3761  1.5575
 6941TIP3    H242315   3.492   1.493  11.118  0.1372 -1.2445  0.4860
 6942TIP3   OH242316   6.402   0.592  11.387 -0.2049  0.3041  0.2518
 6942TIP3    H142317   6.488   0.554  11.400 -0.6773 -1.1400 -0.5863
 6942TIP3    H242318   6.363   0.595  11.475  0.4095  0.2726  0.5285
 6943TIP3   OH242319   5.945   5.646   5.194  0.5519  0.1477  0.0078
 6943TIP3    H142320   6.008   5.688   5.135  1.7149 -0.3293  0.8703
 6943TIP3    H242321   5.982   5.560   5.211 -1.5941 -1.1523 -1.4125
 6944TIP3   OH242322   4.586   5.698  15.759  0.5043 -0.4034 -0.1565
 6944TIP3    H142323   4.568   5.638  15.687  0.9729 -1.3695  0.4990
 6944TIP3    H242324   4.529   5.669  15.829  0.8661 -0.2007  0.2273
 6945TIP3   OH242325   4.478   6.774  16.356  0.4645 -0.6265  0.4173
 6945TIP3    H142326   4.398   6.821  16.378  0.0539 -0.4647 -1.2419
 6945TIP3    H242327   4.495   6.798  16.264  1.4541 -1.9897  0.2137
 6946TIP3   OH242328   0.999   1.397   2.800  0.1632 -0.0752 -0.1636
 6946TIP3    H142329   1.085   1.430   2.824  0.7018 -0.6345 -1.2312
 6946TIP3    H242330   0.937   1.451   2.849  1.0436  1.5989 -0.8212
 6947TIP3   OH242331   3.024   6.553  17.194  0.1761 -0.4864  0.2547
 6947TIP3    H142332   2.990   6.625  17.142  1.6019  0.3065  0.3645
 6947TIP3    H242333   2.991   6.474  17.151 -0.1630  0.1995 -0.7648
 6948TIP3   OH242334   4.927   2.108  10.583 -0.3990 -0.3300 -0.4225
 6948TIP3    H142335   4.944   2.160  10.662 -0.0348  0.7247 -1.1699
 6948TIP3    H242336   4.899   2.022  10.616  1.7511 -0.5997  0.8640
 6949TIP3   OH242337   3.617   4.973  13.530 -0.3123 -0.6621 -0.2316
 6949TIP3    H142338   3.586   4.976  13.439 -2.2479  1.3365  0.4054
 6949TIP3    H242339   3.666   5.054  13.541  0.1195 -1.0076  0.4460
 6950TIP3   OH242340   2.413   0.911   1.387  0.6473  0.5283  0.3907
 6950TIP3    H142341   2.369   0.839   1.340 -0.3509  0.8740  0.7558
 6950TIP3    H242342   2.468   0.867   1.452  0.9041  0.0770 -0.1237
 6951TIP3   OH242343   3.324   0.417  14.852 -0.2473 -0.0593  0.6764
 6951TIP3    H142344   3.253   0.447  14.795  0.1776  1.6497  0.9782
 6951TIP3    H242345   3.386   0.374  14.793 -1.4744 -1.5169  0.4038
 6952TIP3   OH242346   4.154   4.363  15.431  0.5158  0.5104  0.2786
 6952TIP3    H142347   4.116   4.293  15.377  2.3682 -0.3123 -0.0405
 6952TIP3    H242348   4.079   4.414  15.460 -0.6992 -0.0077 -1.7208
 6953TIP3   OH242349   6.326   3.515   4.983  0.1274  0.8243  0.0130
 6953TIP3    H142350   6.304   3.440   5.038  0.6861  1.1757  0.7278
 6953TIP3    H242351   6.397   3.559   5.029  2.7801 -0.5638 -2.4481
 6954TIP3   OH242352   1.631   5.532   0.829 -0.4591  0.2514 -0.8362
 6954TIP3    H142353   1.594   5.576   0.906 -1.7321 -1.0137 -0.6915
 6954TIP3    H242354   1.583   5.450   0.824  2.1424 -1.3479 -0.8530
 6955TIP3   OH242355   1.683   3.286   2.792 -0.7954 -0.1205 -0.1918
 6955TIP3    H142356   1.652   3.202   2.759 -1.4166 -0.1711  0.5061
 6955TIP3    H242357   1.611   3.319   2.846  0.2202 -0.0746  1.1867
 6956TIP3   OH242358   0.699   6.560  12.422  0.4229  0.4384  0.1711
 6956TIP3    H142359   0.669   6.471  12.406 -1.5452  0.9175  0.9393
 6956TIP3    H242360   0.765   6.552  12.491 -0.3328 -0.3498  0.8131
 6957TIP3   OH242361   0.098   5.772  11.262  0.5941  0.2863  0.0486
 6957TIP3    H142362   0.013   5.792  11.301 -0.1303  0.0376 -1.3536
 6957TIP3    H242363   0.080   5.703  11.198  1.3112  2.0328 -2.2073
 6958TIP3   OH242364   4.140   3.206   4.685  0.6535 -0.7413 -0.5871
 6958TIP3    H142365   4.159   3.291   4.727 -0.3467  0.1390 -1.8422
 6958TIP3    H242366   4.141   3.143   4.758  0.2323  0.5335  0.5733
 6959TIP3   OH242367   2.814   1.133   0.792 -0.0720 -0.1568  0.0224
 6959TIP3    H142368   2.793   1.113   0.883  1.3629  1.4141  0.7446
 6959TIP3    H242369   2.812   1.229   0.787 -0.9571 -0.2205 -1.8371
 6960TIP3   OH242370   0.618   0.341  11.056 -0.4519  0.2985  0.3631
 6960TIP3    H142371   0.652   0.429  11.069 -2.6617  1.2426  0.1156
 6960TIP3    H242372   0.694   0.289  11.029  0.6044  2.4774 -1.1016
 6961TIP3   OH242373   0.586   0.138  11.767  0.0927  0.2944 -0.1066
 6961TIP3    H142374   0.552   0.124  11.856 -0.4206 -0.7157 -0.4468
 6961TIP3    H242375   0.672   0.097  11.768 -0.7000 -1.4495 -0.6053
 6962TIP3   OH242376   2.609   3.695  12.022 -0.3965 -0.6506 -0.5926
 6962TIP3    H142377   2.704   3.693  12.033 -0.5858  0.3820  1.9937
 6962TIP3    H242378   2.595   3.675  11.930  2.4627  1.5823 -1.6600
 6963TIP3   OH242379   3.324   0.329   5.952  0.4288  0.3441 -0.2481
 6963TIP3    H142380   3.280   0.314   5.868 -1.7340  1.9393  0.4883
 6963TIP3    H242381   3.295   0.257   6.008  2.3331 -1.0496 -0.9491
 6964TIP3   OH242382   5.686   2.472  14.090 -0.4538  0.1564  0.0837
 6964TIP3    H142383   5.685   2.535  14.162  0.8005 -0.5247  0.7423
 6964TIP3    H242384   5.779   2.451  14.079 -0.5124  0.7440 -2.2039
 6965TIP3   OH242385   4.682   3.742   4.535 -0.7916 -0.0078  0.1074
 6965TIP3    H142386   4.593   3.761   4.565 -0.1332  0.1270  2.1451
 6965TIP3    H242387   4.729   3.825   4.546 -0.7790  0.4668 -2.7213
 6966TIP3   OH242388   1.071   0.166   5.450  0.2705  0.1762  0.1271
 6966TIP3    H142389   1.040   0.127   5.532 -0.2504  0.7071  0.1902
 6966TIP3    H242390   1.111   0.249   5.477  1.8629 -0.5387  0.0594
 6967TIP3   OH242391   1.170   0.820   6.772 -0.0388 -0.1584  0.0627
 6967TIP3    H142392   1.129   0.824   6.685  0.4758  1.3498 -0.1442
 6967TIP3    H242393   1.162   0.909   6.806 -0.1335 -0.7100  1.5290
 6968TIP3   OH242394   6.175   0.174  13.530  0.3299 -0.3380 -0.0403
 6968TIP3    H142395   6.125   0.244  13.488  0.2610 -1.6620 -2.3258
 6968TIP3    H242396   6.155   0.183  13.623 -0.5505  1.9622 -0.3812
 6969TIP3   OH242397   1.570   2.574   1.398  0.0475  0.0448  0.7812
 6969TIP3    H142398   1.581   2.669   1.408 -1.5291  0.5576 -1.4464
 6969TIP3    H242399   1.475   2.561   1.400  0.2268 -1.4383  0.6302
 6970TIP3   OH242400   3.117   1.765   0.138 -0.6263  0.2303  0.5789
 6970TIP3    H142401   3.026   1.737   0.141 -0.1473 -1.5669 -0.2087
 6970TIP3    H242402   3.167   1.684   0.123  0.9669  1.3782 -0.7596
 6971TIP3   OH242403   2.101   1.106  15.214 -0.1017 -0.6181 -0.0661
 6971TIP3    H142404   2.113   1.031  15.155 -0.8249  0.0455 -1.0991
 6971TIP3    H242405   2.007   1.110  15.229  0.0612 -0.6976  1.0671
 6972TIP3   OH242406   3.649   3.387   4.378  0.6146  0.2896  0.5083
 6972TIP3    H142407   3.616   3.447   4.445 -0.1842 -0.9674  1.2696
 6972TIP3    H242408   3.674   3.445   4.305 -0.6330  1.5037  0.9953
 6973TIP3   OH242409   1.269   6.036  16.383  0.2727 -0.2135  0.1336
 6973TIP3    H142410   1.313   6.002  16.461  3.0992  1.0137 -0.7682
 6973TIP3    H242411   1.306   5.985  16.311  1.3876  1.7987 -0.8025
 6974TIP3   OH242412   1.495   1.028   1.422  0.0300 -0.3025  0.1188
 6974TIP3    H142413   1.442   1.074   1.356 -0.2047  0.1111  0.5947
 6974TIP3    H242414   1.579   1.072   1.421 -0.2343  0.2238  0.6614
 6975TIP3   OH242415   5.918   4.309   2.711 -0.0621 -0.3274  0.1891
 6975TIP3    H142416   5.849   4.345   2.655  0.2089 -0.7342 -0.4162
 6975TIP3    H242417   5.883   4.318   2.800 -0.8588 -0.4398 -0.0980
 6976TIP3   OH242418   4.986   2.473   1.568 -0.5969 -0.4308  0.0725
 6976TIP3    H142419   4.931   2.467   1.646 -0.9888 -0.5828 -0.2072
 6976TIP3    H242420   5.065   2.425   1.589 -0.2798  0.3505  0.7264
 6977TIP3   OH242421   1.495   2.847   5.813  0.2081  0.2706 -0.5959
 6977TIP3    H142422   1.531   2.848   5.902  0.9989  1.3142 -0.9048
 6977TIP3    H242423   1.471   2.938   5.795  1.1589  0.3058 -1.8644
 6978TIP3   OH242424   0.956   6.734   5.896  0.8746  0.2791 -0.2060
 6978TIP3    H142425   0.888   6.694   5.950  0.9971  0.2354 -0.0809
 6978TIP3    H242426   0.992   6.805   5.951  1.6527 -0.3782  0.1581
 6979TIP3   OH242427   0.669   6.684   2.311 -0.0605 -0.3762  0.1863
 6979TIP3    H142428   0.603   6.687   2.381 -1.7668 -0.0403 -1.3640
 6979TIP3    H242429   0.718   6.766   2.321  1.4604 -1.4563  2.5092
 6980TIP3   OH242430   4.114   3.982   1.448  0.3189 -0.1776 -0.6520
 6980TIP3    H142431   4.094   4.009   1.538  2.7398 -0.4408  0.0508
 6980TIP3    H242432   4.046   3.919   1.426 -2.4436  2.5023 -0.4012
 6981TIP3   OH242433   0.091   4.205  12.226 -0.2167  0.3301 -0.0124
 6981TIP3    H142434   0.152   4.245  12.164  1.7111 -0.4318  1.2729
 6981TIP3    H242435   0.100   4.111  12.212 -0.7044  0.1876  0.5791
 6982TIP3   OH242436   0.466   4.455   4.903  0.0702  0.2876  0.2403
 6982TIP3    H142437   0.502   4.483   4.987  0.9372 -1.3778  0.4591
 6982TIP3    H242438   0.531   4.483   4.839 -0.2923  1.0021  0.1738
 6983TIP3   OH242439   6.257   5.091  15.524  0.7285  0.8930  0.0610
 6983TIP3    H142440   6.184   5.028  15.529 -0.9280  2.7954  1.1391
 6983TIP3    H242441   6.281   5.092  15.431  1.7217 -2.2358  0.1731
 6984TIP3   OH242442   6.397   4.577  13.086 -0.0847  0.2228 -0.1678
 6984TIP3    H142443   6.394   4.511  13.155  1.1206 -0.5430 -0.8063
 6984TIP3    H242444   6.403   4.661  13.132  0.5665 -0.2681  0.6551
 6985TIP3   OH242445   3.879   0.796   2.018 -0.0258 -0.5645  0.3579
 6985TIP3    H142446   3.946   0.761   1.961  1.7092  0.4094  1.7083
 6985TIP3    H242447   3.916   0.878   2.052 -2.3106  0.5707  0.3613
 6986TIP3   OH242448   0.495   1.954   1.103 -0.3397 -0.7958 -0.1489
 6986TIP3    H142449   0.402   1.975   1.114 -0.4057 -1.2475  0.1690
 6986TIP3    H242450   0.501   1.916   1.016 -0.3296 -0.1075 -0.4587
 6987TIP3   OH242451   5.575   3.253   5.017  0.0654 -0.0987  0.0329
 6987TIP3    H142452   5.485   3.283   5.014  0.1675  0.6051  2.3310
 6987TIP3    H242453   5.611   3.292   5.096  1.8011 -1.9826  0.2587
 6988TIP3   OH242454   1.535   3.927  15.953 -0.4364  0.3325 -0.1811
 6988TIP3    H142455   1.627   3.910  15.930 -1.1217 -0.6875 -2.3853
 6988TIP3    H242456   1.536   4.017  15.988  1.4111  0.2724  0.0186
 6989TIP3   OH242457   2.689   4.748   3.281  0.8849  0.2108  0.1314
 6989TIP3    H142458   2.699   4.718   3.372  2.2937 -3.4466 -1.0450
 6989TIP3    H242459   2.602   4.719   3.256  1.4931 -1.2305 -0.4110
 6990TIP3   OH242460   3.978   2.778   1.572 -0.4030  0.2078  0.0405
 6990TIP3    H142461   3.939   2.784   1.485  0.3293 -0.0341 -0.3150
 6990TIP3    H242462   3.908   2.748   1.629 -0.7780 -0.0244 -0.5460
 6991TIP3   OH242463   6.089   1.345  12.431 -0.0441  0.1597 -0.4002
 6991TIP3    H142464   6.063   1.338  12.523  1.8443 -0.1263  0.1406
 6991TIP3    H242465   6.153   1.417  12.430 -0.3545  0.4413 -1.5774
 6992TIP3   OH242466   4.747   3.229   4.913 -0.6701 -0.6746 -1.0728
 6992TIP3    H142467   4.837   3.199   4.917 -0.1145  0.9369 -0.7787
 6992TIP3    H242468   4.720   3.215   4.822  0.3806  0.2019 -1.5295
 6993TIP3   OH242469   0.801   1.311   0.595 -0.5140 -0.0533 -0.2829
 6993TIP3    H142470   0.825   1.356   0.514 -1.1559  1.0778  0.1301
 6993TIP3    H242471   0.838   1.365   0.665  1.1234 -1.6785  0.1880
 6994TIP3   OH242472   2.150   5.387   5.047  0.5710  0.1103  0.3585
 6994TIP3    H142473   2.132   5.480   5.057  1.3116  0.2113  0.8680
 6994TIP3    H242474   2.164   5.356   5.136 -2.6190 -1.1542  0.5627
 6995TIP3   OH242475   5.661   4.649   0.899 -0.6360 -0.2446 -0.5672
 6995TIP3    H142476   5.566   4.645   0.886 -0.8152  0.4555  0.4167
 6995TIP3    H242477   5.695   4.689   0.820 -1.4560  1.9906  0.1308
 6996TIP3   OH242478   0.970   0.648   2.555 -0.2526 -0.2125  0.1256
 6996TIP3    H142479   1.035   0.712   2.583  0.8071 -1.1600 -0.1057
 6996TIP3    H242480   0.917   0.694   2.490  1.6129 -0.0841 -1.3634
 6997TIP3   OH242481   2.474   3.644   1.561  0.3242 -0.3766 -0.3302
 6997TIP3    H142482   2.409   3.580   1.532 -0.7769  1.3944 -1.9832
 6997TIP3    H242483   2.531   3.656   1.485  0.1228  1.0633 -0.2709
 6998TIP3   OH242484   2.091   6.381  13.771  0.1663  0.1252 -0.1223
 6998TIP3    H142485   2.056   6.331  13.845  1.0204 -0.4436 -0.0817
 6998TIP3    H242486   2.049   6.341  13.694 -0.8950  0.8653  0.0469
 6999TIP3   OH242487   0.752   6.445   2.504  0.1023 -0.4626 -0.4023
 6999TIP3    H142488   0.793   6.419   2.586  0.2012 -1.3785 -0.7351
 6999TIP3    H242489   0.683   6.506   2.530  1.3186  0.7224  0.2151
 7000TIP3   OH242490   2.597   2.420   1.958 -0.2522 -0.1200  0.4068
 7000TIP3    H142491   2.669   2.446   2.015 -0.0120  3.2952 -1.2271
 7000TIP3    H242492   2.639   2.388   1.879 -0.4740  1.2469 -0.2897
 7001TIP3   OH242493   6.058   1.208  15.788  0.6660 -0.4508 -0.3570
 7001TIP3    H142494   6.019   1.158  15.860 -1.4360  1.1734 -0.2691
 7001TIP3    H242495   6.151   1.214  15.811  0.3671 -1.4744  1.3165
 7002TIP3   OH242496   4.850   5.553  16.881  0.0982  0.5440 -0.6621
 7002TIP3    H142497   4.874   5.460  16.874  1.1545  0.7711 -0.2162
 7002TIP3    H242498   4.780   5.554  16.946  1.5560  0.2697  0.9905
 7003TIP3   OH242499   3.463   2.855   4.243  0.0352  0.0951 -0.4150
 7003TIP3    H142500   3.505   2.779   4.203  0.4670 -0.0631  0.3237
 7003TIP3    H242501   3.414   2.896   4.172 -1.3752 -1.6697 -0.5270
 7004TIP3   OH242502   0.461   5.751  13.723 -0.1463 -0.6211 -0.0939
 7004TIP3    H142503   0.530   5.698  13.763 -1.2101 -0.0432  2.7823
 7004TIP3    H242504   0.399   5.767  13.795 -1.0077  2.5973 -1.3984
 7005TIP3   OH242505   1.003   0.899   1.180 -0.0061  0.2883  0.0307
 7005TIP3    H142506   1.052   0.863   1.255 -0.0903  0.9489  0.4103
 7005TIP3    H242507   1.070   0.942   1.126  0.2025 -1.0260 -0.7957
 7006TIP3   OH242508   5.214   3.417  13.327 -0.6661 -0.2471 -0.3855
 7006TIP3    H142509   5.121   3.415  13.350 -0.3612  0.1963  0.9831
 7006TIP3    H242510   5.259   3.436  13.409  0.8450 -3.2098 -0.3850
 7007TIP3   OH242511   3.463   4.866  16.784 -0.4073  0.2440 -0.2424
 7007TIP3    H142512   3.498   4.841  16.698  0.0007  2.6487 -0.8405
 7007TIP3    H242513   3.389   4.924  16.763  0.7049  2.1934  0.9817
 7008TIP3   OH242514   6.100   2.291   6.370  0.2722 -0.3944  0.2282
 7008TIP3    H142515   6.007   2.276   6.356  0.1734  0.1582  0.2803
 7008TIP3    H242516   6.144   2.221   6.321 -0.2002 -1.5130  1.3511
 7009TIP3   OH242517   3.785   6.231  11.709 -0.9230 -0.1615 -0.1641
 7009TIP3    H142518   3.762   6.234  11.802  2.1085  0.1921  0.6937
 7009TIP3    H242519   3.829   6.147  11.697 -1.4667 -0.3014 -1.3457
 7010TIP3   OH242520   1.035   4.247  11.539 -0.0441 -0.4608  0.5343
 7010TIP3    H142521   1.028   4.166  11.589  0.6348 -2.7204 -2.7414
 7010TIP3    H242522   1.106   4.231  11.476 -0.7764  2.1761 -1.1345
 7011TIP3   OH242523   4.187   0.203  13.997 -0.5596 -0.5934  0.4656
 7011TIP3    H142524   4.234   0.204  13.914 -0.2079  1.4976  0.6260
 7011TIP3    H242525   4.227   0.131  14.046  0.1427 -1.0051 -0.6630
 7012TIP3   OH242526   3.002   6.768   5.055  0.1126 -0.0369  0.0082
 7012TIP3    H142527   3.091   6.753   5.088 -0.1029  0.0283  0.6284
 7012TIP3    H242528   2.945   6.739   5.126 -0.3614  0.1091 -0.3099
 7013TIP3   OH242529   6.189   6.309  13.399 -0.4599 -0.2279  0.5124
 7013TIP3    H142530   6.094   6.320  13.403 -0.5467  0.8907 -2.1841
 7013TIP3    H242531   6.223   6.397  13.382  0.8179 -0.9267 -0.8104
 7014TIP3   OH242532   1.784   1.566  13.240 -0.5870  0.3417 -0.2019
 7014TIP3    H142533   1.818   1.501  13.178 -0.8589 -1.2828  1.2648
 7014TIP3    H242534   1.693   1.580  13.213 -0.3142  0.6841 -0.9626
 7015TIP3   OH242535   5.534   2.677   5.689 -0.7672 -0.7014  0.1876
 7015TIP3    H142536   5.487   2.759   5.700 -1.0727 -0.7926 -0.4442
 7015TIP3    H242537   5.606   2.698   5.630 -0.3611 -0.7026  0.6727
 7016TIP3   OH242538   4.087   6.170  16.436  0.2173  0.1490  0.4285
 7016TIP3    H142539   4.107   6.243  16.495 -0.3442  0.1707  0.5960
 7016TIP3    H242540   4.047   6.212  16.360  0.7565  0.1023  0.1104
 7017TIP3   OH242541   1.549   4.257   1.196 -0.1577 -0.4810  0.1050
 7017TIP3    H142542   1.627   4.284   1.245 -1.1505 -0.0438  1.5220
 7017TIP3    H242543   1.532   4.168   1.226 -1.7724  0.3858  1.9815
 7018TIP3   OH242544   5.780   5.965   5.360 -0.2646 -0.2187 -0.2437
 7018TIP3    H142545   5.689   5.996   5.368  0.0568  1.2654 -1.7429
 7018TIP3    H242546   5.772   5.876   5.326 -1.1607  0.0041 -0.6532
 7019TIP3   OH242547   2.612   6.647  10.929  0.1181  0.7024 -0.7085
 7019TIP3    H142548   2.586   6.600  11.008  3.1784 -0.4428 -0.2318
 7019TIP3    H242549   2.639   6.579  10.868  1.4133  1.6950 -1.3020
 7020TIP3   OH242550   2.808   1.788  15.134 -0.5207 -0.1289 -0.2268
 7020TIP3    H142551   2.804   1.860  15.196  0.5985  0.0746 -0.3573
 7020TIP3    H242552   2.863   1.723  15.177 -0.3098 -0.2746 -0.7122
 7021TIP3   OH242553   5.630   3.644  11.268  0.8546 -0.6882  0.0254
 7021TIP3    H142554   5.612   3.586  11.193 -0.3582 -1.6530  0.9987
 7021TIP3    H242555   5.552   3.636  11.323  0.7835  1.6820  0.3638
 7022TIP3   OH242556   2.223   1.668   1.644  0.2872 -0.7805 -0.2795
 7022TIP3    H142557   2.182   1.595   1.596  0.2394 -1.3895  0.6651
 7022TIP3    H242558   2.169   1.744   1.622 -0.9936 -1.4491  0.4509
 7023TIP3   OH242559   3.905   0.428   5.293  0.1269  0.7798 -0.0904
 7023TIP3    H142560   3.945   0.490   5.355 -0.3226  2.2290 -1.1734
 7023TIP3    H242561   3.811   0.437   5.308  0.0686  0.2095 -0.1263
 7024TIP3   OH242562   2.656   6.463  15.786 -0.1029  0.1613  0.0131
 7024TIP3    H142563   2.590   6.396  15.805  0.5718 -0.3354  0.6663
 7024TIP3    H242564   2.678   6.449  15.694 -0.0470 -0.4582  0.1148
 7025TIP3   OH242565   1.723   3.789   5.131 -0.2018 -0.2837  0.1991
 7025TIP3    H142566   1.748   3.879   5.151  1.9188 -0.8121  0.2045
 7025TIP3    H242567   1.687   3.756   5.214 -0.4000  0.3629  0.3785
 7026TIP3   OH242568   0.502   5.332   5.769  0.5685  0.0724 -0.2027
 7026TIP3    H142569   0.513   5.267   5.838  0.7808  0.6404  0.3027
 7026TIP3    H242570   0.414   5.367   5.782 -0.3688 -1.5447 -1.7287
 7027TIP3   OH242571   1.255   5.216   2.634 -0.1521  0.3914 -0.0431
 7027TIP3    H142572   1.300   5.285   2.683 -0.3630  0.5453 -0.0632
 7027TIP3    H242573   1.287   5.135   2.672  0.0014  0.5029  0.0679
 7028TIP3   OH242574   3.035   1.586  17.207  0.2589  0.1520  0.4096
 7028TIP3    H142575   3.124   1.556  17.189  0.3399  0.4431  0.3325
 7028TIP3    H242576   3.018   1.556  17.297  0.0622 -0.7896  0.0725
 7029TIP3   OH242577   6.253   2.002   0.345 -0.1973  0.6216 -0.0846
 7029TIP3    H142578   6.170   1.960   0.367 -0.6966  1.3352 -0.5537
 7029TIP3    H242579   6.254   2.006   0.250  1.0063 -0.5909 -0.1535
 7030TIP3   OH242580   1.036   2.797  12.148  0.5524  0.3156  0.2284
 7030TIP3    H142581   1.062   2.786  12.240 -0.6265  1.4650  0.7195
 7030TIP3    H242582   0.960   2.854  12.151  1.5503  1.8542 -1.5993
 7031TIP3   OH242583   2.615   5.027   3.356 -0.3765 -0.1863 -0.3123
 7031TIP3    H142584   2.677   5.080   3.405 -1.5653  1.9471 -0.9609
 7031TIP3    H242585   2.647   4.937   3.365  1.5256  0.5704  1.1654
 7032TIP3   OH242586   1.701   3.861  15.363 -0.6867  0.1471 -0.0555
 7032TIP3    H142587   1.706   3.767  15.381 -1.4535  0.1484  0.2360
 7032TIP3    H242588   1.615   3.886  15.397 -1.3738  0.5438 -1.9752
 7033TIP3   OH242589   1.555   5.123   3.702  0.2102 -0.4690  0.5873
 7033TIP3    H142590   1.507   5.158   3.777  3.0897  1.9417  1.5014
 7033TIP3    H242591   1.545   5.189   3.634  1.2031 -0.4962  0.3965
 7034TIP3   OH242592   2.740   3.856   4.165 -0.3653  0.1628  0.2586
 7034TIP3    H142593   2.688   3.933   4.186 -1.7127 -0.6497 -0.0131
 7034TIP3    H242594   2.738   3.851   4.070 -0.3260 -0.2434  0.2785
 7035TIP3   OH242595   3.876   2.311   1.514  0.0261 -0.2338  0.4876
 7035TIP3    H142596   3.813   2.378   1.486  0.4065 -0.3326 -0.6478
 7035TIP3    H242597   3.833   2.228   1.493 -0.1002 -0.3411  1.1442
 7036TIP3   OH242598   1.167   1.418  13.583  0.1548 -0.0490  0.4134
 7036TIP3    H142599   1.185   1.337  13.534 -0.2758 -0.2598  0.6006
 7036TIP3    H242600   1.091   1.396  13.638  0.5714  0.2227  1.0976
 7037TIP3   OH242601   6.012   1.452   5.554  0.2357 -0.0985  0.3680
 7037TIP3    H142602   5.919   1.476   5.560 -0.3024 -1.5992 -1.2154
 7037TIP3    H242603   6.057   1.535   5.543 -1.1219  0.5605 -0.6089
 7038TIP3   OH242604   2.325   4.787  11.616 -0.6992  0.0871 -0.6101
 7038TIP3    H142605   2.349   4.739  11.537 -2.2756 -0.6799 -0.6672
 7038TIP3    H242606   2.297   4.873  11.584 -0.0942  0.2340 -0.7494
 7039TIP3   OH242607   5.283   2.474  13.022 -0.4510  0.3459 -0.0343
 7039TIP3    H142608   5.280   2.394  12.969  1.3309  1.8207 -2.6459
 7039TIP3    H242609   5.238   2.540  12.968  1.5603  1.9560  0.1007
 7040TIP3   OH242610   0.231   4.153  11.378  0.3593  0.2946  0.3228
 7040TIP3    H142611   0.160   4.124  11.321  0.9273 -0.2794 -0.1053
 7040TIP3    H242612   0.204   4.241  11.406 -1.9578 -1.0035  2.6085
 7041TIP3   OH242613   0.983   1.783  14.360 -0.1521  0.2428 -0.5061
 7041TIP3    H142614   0.953   1.769  14.450 -0.4875  0.7869 -0.5289
 7041TIP3    H242615   0.983   1.695  14.322 -0.9827  0.1260 -0.2674
 7042TIP3   OH242616   4.644   3.420  11.686  0.2062  0.4257 -0.0687
 7042TIP3    H142617   4.643   3.328  11.711 -2.1511  0.2270 -0.6631
 7042TIP3    H242618   4.732   3.434  11.649  0.1448 -1.9589 -1.2995
 7043TIP3   OH242619   1.807   0.302  13.691 -0.3143 -0.1434 -0.0829
 7043TIP3    H142620   1.780   0.357  13.765  0.2138  1.2984 -0.9088
 7043TIP3    H242621   1.726   0.260  13.661 -0.6861 -0.0251  0.7357
 7044TIP3   OH242622   3.489   5.764   2.454 -0.0560  0.4354  0.1385
 7044TIP3    H142623   3.535   5.768   2.538  0.0179 -0.0338  0.1220
 7044TIP3    H242624   3.546   5.813   2.394 -0.6463  1.7243  0.5983
 7045TIP3   OH242625   3.521   3.862  12.841  1.0241 -0.3772 -0.3849
 7045TIP3    H142626   3.488   3.909  12.917  1.5567 -2.3384  1.1537
 7045TIP3    H242627   3.446   3.852  12.783 -0.0208 -0.9642  1.0294
 7046TIP3   OH242628   2.279   4.570   2.378  0.1568 -0.4337  0.9524
 7046TIP3    H142629   2.344   4.634   2.347 -0.5350 -0.8725 -1.6107
 7046TIP3    H242630   2.234   4.615   2.449 -1.0944  2.5094 -1.4700
 7047TIP3   OH242631   5.658   1.784   4.164 -0.1634 -0.2865 -0.0770
 7047TIP3    H142632   5.651   1.736   4.081  0.9984  0.2637 -0.5180
 7047TIP3    H242633   5.650   1.716   4.231  1.3761 -1.1371 -0.6879
 7048TIP3   OH242634   0.702   0.815  15.329 -0.3930  0.3580 -0.3871
 7048TIP3    H142635   0.674   0.903  15.305 -0.0310  0.5954  0.0346
 7048TIP3    H242636   0.675   0.760  15.256  1.1889  1.1378 -1.6271
 7049TIP3   OH242637   4.652   2.126  14.327  0.6953 -0.1373  0.3554
 7049TIP3    H142638   4.619   2.159  14.243  0.3562  0.4870  0.7318
 7049TIP3    H242639   4.712   2.056  14.303 -0.5597 -1.0097 -0.3741
 7050TIP3   OH242640   3.422   2.345  12.528  0.2790 -0.6831 -0.0400
 7050TIP3    H142641   3.367   2.289  12.473 -1.3726 -0.4317  1.2812
 7050TIP3    H242642   3.441   2.291  12.605 -0.5771  0.2021  0.8297
 7051TIP3   OH242643   6.675   4.659  13.031  0.7507  0.5422 -0.1293
 7051TIP3    H142644   6.758   4.676  13.076  0.8404 -1.6010  0.6543
 7051TIP3    H242645   6.608   4.686  13.094  0.8779 -0.0465  0.2691
 7052TIP3   OH242646   0.677   0.775  11.696 -0.1013  0.2252  0.2610
 7052TIP3    H142647   0.715   0.688  11.682  2.4261  1.1262  0.9989
 7052TIP3    H242648   0.633   0.769  11.781 -0.5212 -0.4995 -0.0009
 7053TIP3   OH242649   5.865   0.212  15.848 -0.7422 -0.1624  0.0236
 7053TIP3    H142650   5.854   0.198  15.942  1.3818 -1.3713  0.1484
 7053TIP3    H242651   5.895   0.128  15.815  0.0511  0.6814 -1.4842
 7054TIP3   OH242652   4.069   2.499   4.020 -0.2765 -0.2921  0.5932
 7054TIP3    H142653   3.990   2.504   3.966  0.4982  1.0221 -0.5068
 7054TIP3    H242654   4.125   2.437   3.975 -0.5642 -1.0341  1.2377
 7055TIP3   OH242655   4.458   2.299   1.225  0.3387 -0.5205  0.2222
 7055TIP3    H142656   4.385   2.351   1.191  0.8628  1.2824  1.6888
 7055TIP3    H242657   4.441   2.291   1.318  2.2331  0.3748  0.6924
 7056TIP3   OH242658   4.592   2.268  15.709  0.0997  0.1148  0.5110
 7056TIP3    H142659   4.606   2.215  15.787 -2.5750 -0.9641  0.3674
 7056TIP3    H242660   4.623   2.355  15.733 -1.7687  0.1418  3.2905
 7057TIP3   OH242661   3.529   4.292   5.467  0.3270  0.0745 -0.3729
 7057TIP3    H142662   3.618   4.274   5.498 -0.6883 -1.2933  2.0847
 7057TIP3    H242663   3.499   4.209   5.430  0.2864  0.7328 -1.8815
 7058TIP3   OH242664   3.417   3.189   4.791 -0.2562  0.2769  0.2539
 7058TIP3    H142665   3.425   3.222   4.880  0.2618 -0.1906  0.3880
 7058TIP3    H242666   3.342   3.129   4.794  0.5474 -0.7371  0.6989
 7059TIP3   OH242667   4.388   0.639   0.906  0.1379  0.1113  0.4845
 7059TIP3    H142668   4.321   0.621   0.840  1.8381 -1.6559 -0.8754
 7059TIP3    H242669   4.352   0.601   0.986 -0.8042 -0.1415 -0.0353
 7060TIP3   OH242670   2.817   4.323  16.501 -0.4651  0.1249  0.7266
 7060TIP3    H142671   2.819   4.418  16.495 -3.3163  0.1805 -1.6993
 7060TIP3    H242672   2.847   4.293  16.415  2.3627 -1.3398  2.1032
 7061TIP3   OH242673   1.201   3.062  16.815  0.5459  0.8499 -0.5050
 7061TIP3    H142674   1.164   2.976  16.794 -0.5244  1.3129 -0.6231
 7061TIP3    H242675   1.296   3.050  16.812  0.4144 -0.5280  0.3666
 7062TIP3   OH242676   6.566   0.047  11.488 -0.1197  0.0137 -0.0819
 7062TIP3    H142677   6.538   0.066  11.399 -0.6871  1.8702  0.4398
 7062TIP3    H242678   6.662   0.046  11.484 -0.1398  0.3030 -0.6718
 7063TIP3   OH242679   5.802   3.154   6.060  0.3456 -0.2842  0.1894
 7063TIP3    H142680   5.843   3.093   6.122  0.5859  1.1816  1.5094
 7063TIP3    H242681   5.710   3.154   6.084  0.2559 -0.5056 -0.1486
 7064TIP3   OH242682   3.639   2.447   4.958  0.1298 -0.2167 -0.7980
 7064TIP3    H142683   3.629   2.510   5.030 -1.1687 -1.4588  0.1918
 7064TIP3    H242684   3.551   2.440   4.921  0.9363  0.9925 -3.0880
 7065TIP3   OH242685   5.241   1.398   1.883 -0.0924  0.2920 -0.0325
 7065TIP3    H142686   5.171   1.459   1.905  0.0265  0.5580 -0.3843
 7065TIP3    H242687   5.196   1.319   1.852 -0.2391  0.8711 -1.3586
 7066TIP3   OH242688   3.156   1.972   6.067 -0.3846 -0.3597  0.3885
 7066TIP3    H142689   3.078   1.942   6.113 -0.9160  1.4235  0.6987
 7066TIP3    H242690   3.222   1.983   6.135 -0.9292  1.4833  0.6754
 7067TIP3   OH242691   1.824   6.734   0.489  0.0121 -0.0069 -0.1134
 7067TIP3    H142692   1.899   6.711   0.434  0.6868  1.2465  0.2349
 7067TIP3    H242693   1.750   6.739   0.428  0.4281 -0.1766 -0.6412
 7068TIP3   OH242694   1.841   1.576  15.104 -0.1879 -0.4554 -0.1534
 7068TIP3    H142695   1.753   1.593  15.140  0.0084  0.0576  0.0999
 7068TIP3    H242696   1.901   1.603  15.174  0.2218  1.3032 -1.1058
 7069TIP3   OH242697   1.598   2.964   0.329 -0.2645  0.4343  0.5638
 7069TIP3    H142698   1.569   2.948   0.239 -0.8827 -1.3798  1.0280
 7069TIP3    H242699   1.690   2.989   0.320  0.3189 -1.7905 -0.4994
 7070TIP3   OH242700   1.080   1.688  17.185  0.0022  0.2061 -0.2113
 7070TIP3    H142701   1.066   1.700  17.279  0.5690  1.0939 -0.2241
 7070TIP3    H242702   1.048   1.769  17.146  1.0351  0.4182 -0.6477
 7071TIP3   OH242703   5.552   6.567   0.688 -0.3326  0.6462 -0.2177
 7071TIP3    H142704   5.541   6.512   0.765  1.2285  0.1548 -0.3080
 7071TIP3    H242705   5.616   6.520   0.634  1.5036  2.7676 -0.0438
 7072TIP3   OH242706   3.470   2.012  15.777 -0.2726 -0.3196  0.1109
 7072TIP3    H142707   3.489   2.085  15.836  1.3510 -1.5635  1.2236
 7072TIP3    H242708   3.375   2.002  15.780 -0.2762 -0.1103  2.2718
 7073TIP3   OH242709   4.038   0.418  15.094 -0.3433  0.2336  0.2843
 7073TIP3    H142710   3.995   0.481  15.037 -0.4256 -0.7649 -0.7986
 7073TIP3    H242711   3.967   0.381  15.146 -0.9529 -1.6457 -1.7274
 7074TIP3   OH242712   1.924   3.159  10.364 -0.2428 -0.6288  0.6199
 7074TIP3    H142713   1.837   3.140  10.398 -0.1423 -0.7706  0.8016
 7074TIP3    H242714   1.953   3.235  10.415 -0.4334 -0.3138  0.2598
 7075TIP3   OH242715   0.244   1.556   4.070  0.5191 -0.2646  0.0772
 7075TIP3    H142716   0.173   1.617   4.087 -0.0464 -0.5483 -1.1739
 7075TIP3    H242717   0.274   1.529   4.157  0.0757  0.9651  0.6272
 7076TIP3   OH242718   0.483   6.783  16.737 -0.1103  0.0507 -0.7465
 7076TIP3    H142719   0.401   6.786  16.688 -0.8009 -3.0296 -0.0023
 7076TIP3    H242720   0.534   6.715  16.693  0.7987 -0.1448  0.5749
 7077TIP3   OH242721   1.964   4.218   0.309 -0.1844 -0.4828 -0.1163
 7077TIP3    H142722   1.901   4.260   0.251 -0.5629 -2.3045 -1.1005
 7077TIP3    H242723   1.942   4.250   0.396 -3.7338 -2.4265 -0.1381
 7078TIP3   OH242724   4.843   0.970   5.176 -0.0652  0.6695 -0.4138
 7078TIP3    H142725   4.880   1.055   5.154 -0.0642  0.6270 -0.5799
 7078TIP3    H242726   4.919   0.912   5.184 -0.1096  0.5135 -1.0558
 7079TIP3   OH242727   3.320   5.017   2.277 -0.1959 -0.2883  0.6889
 7079TIP3    H142728   3.236   4.995   2.317 -0.9180  1.9314  0.5574
 7079TIP3    H242729   3.375   5.042   2.350  0.2372 -1.3610  0.7387
 7080TIP3   OH242730   3.783   0.593   1.644 -0.0662  0.2091 -0.3727
 7080TIP3    H142731   3.837   0.627   1.572  0.9402 -2.1087 -0.8029
 7080TIP3    H242732   3.705   0.559   1.601  0.5357 -1.1791 -0.4056
 7081TIP3   OH242733   2.644   2.348  10.813 -0.2655 -0.3202 -0.0231
 7081TIP3    H142734   2.691   2.320  10.891 -1.8124  1.4816  1.6754
 7081TIP3    H242735   2.645   2.444  10.817 -0.2961 -0.1615 -2.3070
 7082TIP3   OH242736   1.401   6.625   6.723 -0.0887  0.2366 -0.2713
 7082TIP3    H142737   1.475   6.626   6.662 -1.4549  2.7371 -2.0987
 7082TIP3    H242738   1.430   6.680   6.797  0.4925 -0.2668 -0.1222
 7083TIP3   OH242739   6.525   4.203  13.034 -0.3366 -1.0082 -0.6262
 7083TIP3    H142740   6.539   4.258  13.110  0.7605 -0.5418 -1.1495
 7083TIP3    H242741   6.461   4.137  13.063 -0.1129 -0.6994  0.6062
 7084TIP3   OH242742   5.277   0.246  14.181  0.2032  0.0595  0.4160
 7084TIP3    H142743   5.207   0.311  14.191  0.3640  0.0487  1.7985
 7084TIP3    H242744   5.346   0.292  14.133 -0.1685  0.5097  0.2963
 7085TIP3   OH242745   0.803   4.959   1.023  0.1889 -0.1400  0.0214
 7085TIP3    H142746   0.782   4.866   1.013  0.7178 -0.2504 -0.1012
 7085TIP3    H242747   0.720   5.004   1.010  0.1287 -0.5260 -1.0513
 7086TIP3   OH242748   2.189   5.762   0.045  0.1847  0.3104 -0.1407
 7086TIP3    H142749   2.173   5.735  -0.045 -0.3451  1.1959 -0.3179
 7086TIP3    H242750   2.284   5.778   0.049  0.2518 -0.0010 -0.4548
 7087TIP3   OH242751   6.058   2.888   1.515 -0.4217  0.3871  0.5862
 7087TIP3    H142752   6.036   2.865   1.424  3.5020 -1.0079 -0.2115
 7087TIP3    H242753   6.053   2.804   1.562 -1.9513  1.0182  1.6214
 7088TIP3   OH242754   5.558   1.950  15.332 -0.1534 -0.4029  0.2306
 7088TIP3    H142755   5.474   1.965  15.374 -0.6968 -1.0116 -0.6040
 7088TIP3    H242756   5.546   1.981  15.243 -0.1834 -2.3761 -0.4994
 7089TIP3   OH242757   3.976   4.646  14.614  0.6066  0.4249 -0.3844
 7089TIP3    H142758   3.947   4.563  14.576  0.5619  0.8962 -1.4268
 7089TIP3    H242759   4.046   4.621  14.674 -1.4609 -0.6721  1.7290
 7090TIP3   OH242760   6.739   4.755  12.700  0.4817 -0.1523 -0.0752
 7090TIP3    H142761   6.804   4.719  12.640  0.8345 -0.9448  0.7468
 7090TIP3    H242762   6.778   4.744  12.787 -0.6407 -0.4388  0.4158
 7091TIP3   OH242763   2.611   5.152  13.047 -0.0155 -0.1357  0.6052
 7091TIP3    H142764   2.542   5.218  13.047 -0.7967 -0.9420 -0.0289
 7091TIP3    H242765   2.577   5.081  13.101 -0.5141 -1.3669 -1.2767
 7092TIP3   OH242766   1.888   6.614  13.845  0.0228 -0.7254 -0.3460
 7092TIP3    H142767   1.874   6.520  13.857 -1.6813 -0.5187 -0.4432
 7092TIP3    H242768   1.982   6.622  13.829  0.5181 -2.2301  1.3545
 7093TIP3   OH242769   2.489   3.432   4.586 -0.0267 -0.5443  0.3723
 7093TIP3    H142770   2.415   3.464   4.535  0.6237  1.3861  0.5359
 7093TIP3    H242771   2.560   3.424   4.523  0.4091  0.5360  0.6978
 7094TIP3   OH242772   0.198   5.998  16.705  0.0133 -0.2626 -0.1048
 7094TIP3    H142773   0.214   6.087  16.675 -0.9377 -0.6091 -1.8286
 7094TIP3    H242774   0.111   5.976  16.670  0.0413 -1.7147  0.6407
 7095TIP3   OH242775   5.525   4.754  16.315  0.7922  0.2102  0.4148
 7095TIP3    H142776   5.619   4.759  16.294  0.4843 -0.8028 -1.3890
 7095TIP3    H242777   5.484   4.724  16.234 -1.0580  0.2278  1.3024
 7096TIP3   OH242778   0.462   1.785  15.338  0.0994  0.0373  0.0828
 7096TIP3    H142779   0.423   1.865  15.373 -2.1594 -0.4855 -1.0141
 7096TIP3    H242780   0.471   1.727  15.413 -0.9702  0.3121  0.4394
 7097TIP3   OH242781   1.813   1.334   0.799  0.6371  0.5073 -0.4115
 7097TIP3    H142782   1.823   1.267   0.868 -0.2458 -0.0736 -0.8274
 7097TIP3    H242783   1.735   1.384   0.826  1.0681  1.1317 -0.3067
 7098TIP3   OH242784   5.005   2.088  17.013  0.3048  0.5271  0.0525
 7098TIP3    H142785   4.977   2.176  17.036  0.4486  0.4266  0.6391
 7098TIP3    H242786   4.993   2.082  16.918 -0.4449  0.9083  0.1202
 7099TIP3   OH242787   4.569   4.859  12.941  0.2985  0.0292 -0.5736
 7099TIP3    H142788   4.556   4.772  12.977  1.6697  0.3719  0.8681
 7099TIP3    H242789   4.511   4.916  12.992 -0.5099  0.0046 -1.4360
 7100TIP3   OH242790   6.194   2.695   3.930  0.2300 -0.4187  0.0515
 7100TIP3    H142791   6.288   2.696   3.910  0.4451 -0.8090  0.9934
 7100TIP3    H242792   6.152   2.710   3.845  1.1378 -0.3818 -0.4110
 7101TIP3   OH242793   3.980   6.415  14.766  0.3717 -0.4429 -0.1195
 7101TIP3    H142794   3.974   6.324  14.793  2.5112 -0.0300  2.1277
 7101TIP3    H242795   3.996   6.412  14.672 -0.8159 -2.2812 -0.3113
 7102TIP3   OH242796   0.906   4.666   3.050 -0.3126 -0.6052 -0.1614
 7102TIP3    H142797   0.852   4.742   3.068  0.5951 -0.0117  0.1108
 7102TIP3    H242798   0.935   4.678   2.959  2.7423  1.2888  0.9215
 7103TIP3   OH242799   4.051   2.484   1.907  0.4716  0.9374 -0.3880
 7103TIP3    H142800   4.102   2.445   1.835 -0.7715  1.3221 -1.5081
 7103TIP3    H242801   4.001   2.410   1.943 -1.5134  1.2989 -2.1964
 7104TIP3   OH242802   5.555   1.675   6.269 -0.9999 -0.6315  0.0191
 7104TIP3    H142803   5.630   1.619   6.251 -0.8418 -0.0530 -1.2699
 7104TIP3    H242804   5.525   1.649   6.356  1.7117  0.2891  1.3156
 7105TIP3   OH242805   5.935   5.030   4.101  0.5418  0.0037 -0.1961
 7105TIP3    H142806   5.948   5.076   4.018  0.0301  0.3339 -0.0983
 7105TIP3    H242807   5.841   5.030   4.114  0.7022  1.6984  1.3522
 7106TIP3   OH242808   6.825   0.119  12.308  0.4473  0.3726  0.2092
 7106TIP3    H142809   6.807   0.071  12.227 -0.1890 -1.4377  1.3669
 7106TIP3    H242810   6.819   0.211  12.283 -1.1844 -0.1370 -1.4912
 7107TIP3   OH242811   2.925   4.457  13.281  0.1034 -0.3856  0.0060
 7107TIP3    H142812   2.897   4.477  13.371  2.8474  0.9853  0.6543
 7107TIP3    H242813   2.956   4.367  13.286 -0.1649 -0.4643  0.3350
 7108TIP3   OH242814   6.624   4.574  13.829 -0.4434  0.1078  0.3146
 7108TIP3    H142815   6.705   4.525  13.838 -0.4358  0.5245  3.2650
 7108TIP3    H242816   6.561   4.510  13.796  0.3290 -1.0662  1.0423
 7109TIP3   OH242817   4.117   3.123  14.995 -0.0883 -0.1107 -0.3108
 7109TIP3    H142818   4.210   3.143  14.986  0.4759 -2.3588  0.1700
 7109TIP3    H242819   4.109   3.080  15.079 -1.7287  0.7417  0.0113
 7110TIP3   OH242820   4.231   6.582  12.489 -0.0075  0.1812 -0.5703
 7110TIP3    H142821   4.156   6.607  12.435  1.1607  1.4456 -1.7325
 7110TIP3    H242822   4.300   6.644  12.462  1.4773 -1.0222  0.3375
 7111TIP3   OH242823   4.287   6.462   5.279  0.1573 -0.4258 -0.0233
 7111TIP3    H142824   4.278   6.514   5.359  2.1201 -0.7666  0.4882
 7111TIP3    H242825   4.250   6.517   5.210  0.5342  0.8876  0.7749
 7112TIP3   OH242826   3.766   4.260  14.234 -0.0990  0.2575 -0.1731
 7112TIP3    H142827   3.688   4.281  14.182  0.0177 -0.2727 -0.5722
 7112TIP3    H242828   3.734   4.205  14.305  0.0945 -1.2698 -1.1997
 7113TIP3   OH242829   1.818   3.421   1.094 -0.4961  0.6282 -0.4353
 7113TIP3    H142830   1.814   3.390   1.003  0.6770 -0.5066 -0.1285
 7113TIP3    H242831   1.818   3.517   1.086 -0.0714  0.5528 -1.6567
 7114TIP3   OH242832   5.363   1.685  13.185 -0.1494 -0.1137  0.2687
 7114TIP3    H142833   5.357   1.757  13.122 -0.3081  0.8222  1.3327
 7114TIP3    H242834   5.354   1.606  13.131 -0.4397  0.6641 -0.8650
 7115TIP3   OH242835   1.743   5.135  11.609  0.7796 -0.0800  0.2127
 7115TIP3    H142836   1.813   5.071  11.600  0.9422 -0.0849  1.2840
 7115TIP3    H242837   1.674   5.104  11.551  0.2536 -2.0899  1.7981
 7116TIP3   OH242838   6.442   1.023   2.461 -0.4867 -0.2555 -0.1309
 7116TIP3    H142839   6.406   1.108   2.435 -0.0539 -0.4796 -1.5303
 7116TIP3    H242840   6.396   1.002   2.542 -0.8330  1.1613  0.0775
 7117TIP3   OH242841   0.971   1.083   0.168  0.5585  0.1775  0.1730
 7117TIP3    H142842   0.996   1.173   0.148 -1.1579  1.2666  2.4127
 7117TIP3    H242843   0.884   1.091   0.207 -0.1267 -2.5967 -0.5768
 7118TIP3   OH242844   5.021   4.881   0.833 -0.3154 -0.1097  0.4426
 7118TIP3    H142845   5.091   4.914   0.888  0.2540  0.3989 -0.5631
 7118TIP3    H242846   5.033   4.786   0.832  0.0424 -0.0671  0.6863
 7119TIP3   OH242847   5.133   0.940   4.878 -0.3891  0.0961  0.2848
 7119TIP3    H142848   5.109   0.891   4.957  0.1315 -0.9638 -0.1974
 7119TIP3    H242849   5.097   0.889   4.806  0.6299  0.1149 -0.2603
 7120TIP3   OH242850   6.532   6.228  11.390  0.2429 -0.4208  0.3654
 7120TIP3    H142851   6.613   6.258  11.349  0.9768 -0.9244  1.3994
 7120TIP3    H242852   6.505   6.152  11.339 -0.0837  0.2792 -0.5310
 7121TIP3   OH242853   3.030   2.550  13.172  0.0486 -0.1856  0.3153
 7121TIP3    H142854   2.967   2.562  13.242 -0.5185  1.4027 -0.4138
 7121TIP3    H242855   3.080   2.631  13.170  0.2006 -0.2831 -0.9676
 7122TIP3   OH242856   3.921   6.639  15.467  0.0826 -0.2142 -0.4781
 7122TIP3    H142857   3.881   6.611  15.550  0.1539 -1.7836 -0.9406
 7122TIP3    H242858   4.002   6.682  15.494 -0.1837 -0.1665  0.2950
 7123TIP3   OH242859   3.683   4.263  12.130 -0.8638 -0.4203 -0.3071
 7123TIP3    H142860   3.588   4.276  12.126 -0.8574 -0.3994 -0.3844
 7123TIP3    H242861   3.701   4.254  12.224 -0.9871 -0.7554 -0.3141
 7124TIP3   OH242862   0.388   1.803   5.633 -0.0829 -0.5595  0.1490
 7124TIP3    H142863   0.418   1.724   5.588  1.1800 -0.2245  0.3569
 7124TIP3    H242864   0.414   1.791   5.724 -0.5590 -0.2247  0.3377
 7125TIP3   OH242865   6.654   2.366   0.565  0.2784  0.2201 -0.1699
 7125TIP3    H142866   6.573   2.365   0.513  0.0150  1.9966  0.1202
 7125TIP3    H242867   6.637   2.306   0.637 -1.2916  1.4028  0.5264
 7126TIP3   OH242868   5.459   3.286  15.882 -0.0694 -0.6491 -0.1464
 7126TIP3    H142869   5.416   3.318  15.962 -0.6727  2.0894 -1.4344
 7126TIP3    H242870   5.386   3.261  15.825  0.1026  1.0175 -1.1717
 7127TIP3   OH242871   0.564   6.743  13.556 -0.2263 -0.3430 -0.1783
 7127TIP3    H142872   0.599   6.822  13.598 -1.0665 -0.9670  1.8367
 7127TIP3    H242873   0.469   6.751  13.566 -0.2890 -3.0281  3.1106
 7128TIP3   OH242874   5.464   4.186   3.086  0.3914  0.2737 -0.5154
 7128TIP3    H142875   5.513   4.188   3.168 -3.4762  0.3247  2.0785
 7128TIP3    H242876   5.420   4.271   3.083 -2.4027 -1.0629 -0.5835
 7129TIP3   OH242877   0.907   5.412  13.564  0.5066  0.2850  0.0264
 7129TIP3    H142878   0.985   5.463  13.586  1.0278 -0.7196  0.6166
 7129TIP3    H242879   0.942   5.332  13.524 -0.3026  0.5323 -1.2500
 7130TIP3   OH242880   6.013   1.017   0.660 -0.2206 -0.4576  0.1743
 7130TIP3    H142881   6.009   1.100   0.612 -0.2894 -1.3873 -1.4688
 7130TIP3    H242882   6.093   1.025   0.713 -0.0987  0.5615 -0.1379
 7131TIP3   OH242883   5.466   3.251  15.416 -0.2404 -0.3167 -0.6409
 7131TIP3    H142884   5.410   3.189  15.370 -2.2323  0.2910  0.8170
 7131TIP3    H242885   5.408   3.325  15.437  0.7187 -0.2118  2.0559
 7132TIP3   OH242886   6.116   4.842  15.464  0.1219  0.2027  0.1493
 7132TIP3    H142887   6.026   4.816  15.481  0.0136  0.8275  0.5359
 7132TIP3    H242888   6.168   4.792  15.527 -0.0133  0.3342  0.3647
 7133TIP3   OH242889   0.621   2.237   2.961  0.7216  0.3032  0.7428
 7133TIP3    H142890   0.649   2.301   2.896 -0.2257 -0.3812 -0.3737
 7133TIP3    H242891   0.678   2.161   2.947 -0.6867 -0.5730 -0.6275
 7134TIP3   OH242892   3.489   2.362   3.821 -0.1594 -0.3090  0.3175
 7134TIP3    H142893   3.517   2.454   3.816 -0.0794 -0.3056 -5.4135
 7134TIP3    H242894   3.568   2.312   3.801 -0.3913 -1.7115  2.5829
 7135TIP3   OH242895   0.495   2.980   3.804 -0.4259  0.6008  0.0123
 7135TIP3    H142896   0.588   3.000   3.814 -0.4429  1.8561 -1.7797
 7135TIP3    H242897   0.482   2.974   3.709 -1.9139 -0.9944  0.2537
 7136TIP3   OH242898   3.336   0.075  12.769  0.6301  0.5092  0.3706
 7136TIP3    H142899   3.351   0.009  12.700 -2.2906  0.8541 -0.7353
 7136TIP3    H242900   3.423   0.094  12.803  1.8879 -1.7733 -1.2835
 7137TIP3   OH242901   0.823   6.296  12.993  0.0266  0.3142  0.0810
 7137TIP3    H142902   0.767   6.248  13.053  0.9491 -4.0887 -2.1921
 7137TIP3    H242903   0.762   6.345  12.938 -1.3810 -1.3487  0.0728
 7138TIP3   OH242904   3.957   4.475   1.947 -0.2130 -0.3189  0.2551
 7138TIP3    H142905   4.003   4.416   1.887  1.3180  1.5157 -0.4856
 7138TIP3    H242906   4.018   4.486   2.020 -0.1766  0.8571  0.0533
 7139TIP3   OH242907   5.096   4.305  17.111  0.2023  1.0414  0.4265
 7139TIP3    H142908   5.185   4.274  17.128  1.8118  3.3805 -2.5603
 7139TIP3    H242909   5.044   4.225  17.100  2.0151 -0.4077  1.8072
 7140TIP3   OH242910   4.680   4.622   5.456 -0.3510  0.0018 -0.3876
 7140TIP3    H142911   4.677   4.569   5.377 -1.7694  1.7899 -1.6277
 7140TIP3    H242912   4.713   4.563   5.524  2.5133 -1.1642 -2.6020
 7141TIP3   OH242913   6.099   3.626  14.404 -0.8045  0.0429  0.6114
 7141TIP3    H142914   6.099   3.596  14.495  0.4148  0.2940  0.7109
 7141TIP3    H242915   6.057   3.554  14.356  1.1510 -1.4353  0.9829
 7142TIP3   OH242916   2.738   6.008   5.204 -0.3167  0.4646  0.1850
 7142TIP3    H142917   2.814   5.954   5.226 -1.0726  0.0558  1.9606
 7142TIP3    H242918   2.719   5.986   5.113  1.2084  0.0074 -0.0649
 7143TIP3   OH242919   6.034   6.353   1.169  0.2885  0.3351 -0.1792
 7143TIP3    H142920   6.044   6.258   1.172  1.1881  0.4385  1.9657
 7143TIP3    H242921   6.026   6.373   1.076 -0.8072 -1.9066 -0.6401
 7144TIP3   OH242922   5.903   3.135  11.541  0.1901  0.1519 -0.2384
 7144TIP3    H142923   5.950   3.074  11.483  0.2956  0.9423 -0.9990
 7144TIP3    H242924   5.971   3.193  11.574 -0.1826  1.0577 -1.0352
 7145TIP3   OH242925   1.358   3.419  16.158 -0.7083 -0.0167  0.3379
 7145TIP3    H142926   1.442   3.453  16.127 -0.3049 -2.7626 -2.0626
 7145TIP3    H242927   1.358   3.327  16.130 -4.5994 -0.0630 -0.0418
 7146TIP3   OH242928   5.030   5.841  16.671 -0.3574 -0.1169 -0.0868
 7146TIP3    H142929   5.004   5.901  16.741  1.9730  0.5986  0.2675
 7146TIP3    H242930   4.959   5.777  16.666 -1.9594  1.4804  0.9315
 7147TIP3   OH242931   4.917   4.342   4.081  0.5030  0.0871  0.3287
 7147TIP3    H142932   4.901   4.389   4.163 -2.2506 -0.1928  0.0644
 7147TIP3    H242933   4.959   4.260   4.108  2.7626  1.3900  1.0555
 7148TIP3   OH242934   5.373   2.737   4.144 -0.0636 -0.3330 -0.5494
 7148TIP3    H142935   5.308   2.699   4.084  0.4920 -1.1841 -0.6269
 7148TIP3    H242936   5.453   2.741   4.092 -0.1552  1.2137 -0.6269
 7149TIP3   OH242937   1.335   5.089  11.230 -0.1616 -0.0521  0.2654
 7149TIP3    H142938   1.262   5.129  11.183 -0.3026 -0.1944  0.3638
 7149TIP3    H242939   1.410   5.145  11.210 -0.0868 -0.4501 -0.6367
 7150TIP3   OH242940   2.491   5.999   6.326 -0.2016 -0.4502  0.0984
 7150TIP3    H142941   2.572   5.949   6.338  0.0945  0.1523  0.6539
 7150TIP3    H242942   2.484   6.010   6.231  0.7991  0.1834  0.0821
 7151TIP3   OH242943   4.064   2.352  12.230 -0.8383  0.1997 -0.4235
 7151TIP3    H142944   4.044   2.288  12.162  1.4067 -0.6468 -0.3708
 7151TIP3    H242945   3.985   2.407  12.236 -1.9932 -1.1976 -1.9857
 7152TIP3   OH242946   6.266   6.435  13.932  0.7634  0.2251 -0.0367
 7152TIP3    H142947   6.270   6.426  13.836  0.7444  1.2238 -0.1455
 7152TIP3    H242948   6.344   6.391  13.964  0.0753 -1.3245 -0.4090
 7153TIP3   OH242949   2.670   1.117   4.420 -0.4591 -0.4831  0.4882
 7153TIP3    H142950   2.648   1.096   4.511 -2.3132  2.5005  0.8455
 7153TIP3    H242951   2.634   1.043   4.370 -0.0191 -1.8386  2.0576
 7154TIP3   OH242952   2.023   4.631  14.281  0.1974 -0.0180  0.2003
 7154TIP3    H142953   2.025   4.717  14.240  1.3522 -0.4012 -0.5999
 7154TIP3    H242954   2.079   4.640  14.358  0.9838 -0.2709 -0.3408
 7155TIP3   OH242955   4.003   2.333  12.531 -0.0837 -0.1586  0.2459
 7155TIP3    H142956   4.026   2.334  12.438  1.4806  0.0627  0.6158
 7155TIP3    H242957   3.964   2.419  12.547 -0.4093 -0.2177 -0.2127
 7156TIP3   OH242958   5.689   4.178   2.003 -0.0343 -0.6825  0.1204
 7156TIP3    H142959   5.748   4.229   2.057  1.3604 -2.2207  0.1120
 7156TIP3    H242960   5.699   4.215   1.915  1.7324 -1.5702 -0.0886
 7157TIP3   OH242961   1.837   0.295  15.608  0.8898  0.0108  0.1345
 7157TIP3    H142962   1.866   0.377  15.569  0.4316  0.3851  0.5654
 7157TIP3    H242963   1.800   0.245  15.535  0.3851  0.5480  0.0145
 7158TIP3   OH242964   3.325   0.650   0.450  0.3588  0.1011 -0.0743
 7158TIP3    H142965   3.260   0.588   0.417  0.5533  0.6654 -1.6028
 7158TIP3    H242966   3.279   0.698   0.519  0.1749 -1.6309  1.0734
 7159TIP3   OH242967   5.666   0.740  15.361  0.4185  0.5153 -0.0551
 7159TIP3    H142968   5.734   0.696  15.413  0.4074  1.6969  1.0071
 7159TIP3    H242969   5.653   0.824  15.405 -0.6503  0.9459 -1.1422
 7160TIP3   OH242970   1.891   2.587   0.901 -0.3790 -0.0876  0.1590
 7160TIP3    H142971   1.910   2.506   0.855 -0.4758  0.3259 -0.6166
 7160TIP3    H242972   1.860   2.558   0.988  0.3859 -0.8435  0.1912
 7161TIP3   OH242973   2.193   0.433   2.149  0.5594  0.2479  0.3238
 7161TIP3    H142974   2.284   0.413   2.125  0.3187  1.2952 -1.6119
 7161TIP3    H242975   2.192   0.425   2.245  2.9313  1.1125  0.4955
 7162TIP3   OH242976   5.472   2.710  13.958  0.0826  0.6140 -0.2125
 7162TIP3    H142977   5.437   2.750  14.038  0.0173 -2.5637  1.5029
 7162TIP3    H242978   5.411   2.639  13.938  1.9994 -0.8840 -1.0325
 7163TIP3   OH242979   0.416   3.827  16.085 -0.2308  0.3426  0.1357
 7163TIP3    H142980   0.473   3.887  16.132  0.2989  0.5000 -0.6806
 7163TIP3    H242981   0.475   3.776  16.029 -0.6150 -1.2905  1.1499
 7164TIP3   OH242982   2.331   6.150  12.393  0.3737 -1.1317  0.1397
 7164TIP3    H142983   2.370   6.225  12.349  1.5425 -1.2191  0.9751
 7164TIP3    H242984   2.402   6.085  12.398 -0.4186 -2.0345  0.0173
 7165TIP3   OH242985   4.245   3.409  13.691 -0.2431 -0.2085 -0.0398
 7165TIP3    H142986   4.220   3.458  13.612 -1.4476  0.1741  0.5438
 7165TIP3    H242987   4.266   3.322  13.659 -1.7497 -0.3714 -0.6956
 7166TIP3   OH242988   5.194   1.549  12.366  0.1650  0.2294 -0.0467
 7166TIP3    H142989   5.274   1.511  12.403 -0.1497 -0.0163  0.3915
 7166TIP3    H242990   5.126   1.528  12.430 -0.5388 -0.8349 -1.0945
 7167TIP3   OH242991   0.165   4.195   1.456 -0.8545  0.8493  0.7349
 7167TIP3    H142992   0.180   4.268   1.396  0.5067 -0.5452 -0.7697
 7167TIP3    H242993   0.118   4.232   1.530  0.2668  3.3335  0.2833
 7168TIP3   OH242994   5.161   2.437   1.769  0.3649  0.1478  0.0814
 7168TIP3    H142995   5.145   2.430   1.863 -2.8175  2.2089 -0.1616
 7168TIP3    H242996   5.201   2.523   1.758 -2.8113  1.7123 -0.5991
 7169TIP3   OH242997   0.485   4.331  12.451 -0.2332  0.5061  0.2432
 7169TIP3    H142998   0.490   4.339  12.546 -0.7230  2.8180  0.1445
 7169TIP3    H242999   0.572   4.299  12.425 -0.1943 -0.4585  1.4618
 7170TIP3   OH243000   5.059   3.827  15.894 -0.0636  0.5930 -0.5544
 7170TIP3    H143001   5.084   3.740  15.927 -0.5097  0.8406  0.4478
 7170TIP3    H243002   5.084   3.824  15.801  1.2886 -0.0884 -0.2077
 7171TIP3   OH243003   3.885   2.526  16.234 -0.4048 -0.3254  0.9310
 7171TIP3    H143004   3.832   2.602  16.214 -1.1172 -1.0602 -0.0413
 7171TIP3    H243005   3.867   2.464  16.164  0.4123 -1.2699  1.5186
 7172TIP3   OH243006   3.006   6.782   4.293 -0.3749 -0.3145 -0.2680
 7172TIP3    H143007   2.922   6.822   4.269 -0.0411  0.4790 -0.1695
 7172TIP3    H243008   3.050   6.849   4.345 -0.3691 -1.3600  1.1102
 7173TIP3   OH243009   6.591   0.857   4.739 -0.2842  0.3125  0.6438
 7173TIP3    H143010   6.575   0.763   4.750 -0.8835  0.3172 -0.0830
 7173TIP3    H243011   6.509   0.899   4.767  0.7163  0.7856  3.0627
 7174TIP3   OH243012   5.061   0.386   0.256  0.4291  0.4297 -0.1092
 7174TIP3    H143013   4.992   0.328   0.223 -0.6054  0.4921  1.7905
 7174TIP3    H243014   5.134   0.328   0.275  0.6858  0.2658 -1.4930
 7175TIP3   OH243015   3.514   0.281  14.692  0.0106 -0.0646 -0.9820
 7175TIP3    H143016   3.581   0.247  14.633  0.6907  0.5696 -0.5931
 7175TIP3    H243017   3.559   0.292  14.776 -0.9097 -0.8291 -0.3638
 7176TIP3   OH243018   4.402   2.690   1.661 -0.7335  0.1768 -0.4257
 7176TIP3    H143019   4.370   2.709   1.573 -0.5583  1.5006 -0.2252
 7176TIP3    H243020   4.497   2.700   1.655 -0.5508 -1.3050 -0.4367
 7177TIP3   OH243021   3.817   2.269  16.324  0.2268 -0.7537 -0.1270
 7177TIP3    H143022   3.731   2.267  16.282  0.2597  0.0289 -0.2348
 7177TIP3    H243023   3.850   2.357  16.309  0.2263 -0.4274  1.5862
 7178TIP3   OH243024   2.946   5.358  15.421 -0.9563  0.1787  0.3097
 7178TIP3    H143025   2.997   5.438  15.409 -0.6289  0.5333  3.2011
 7178TIP3    H243026   2.863   5.389  15.457 -1.5801 -0.6749 -0.3770
 7179TIP3   OH243027   1.911   2.236  11.314 -0.2891 -0.1713 -0.5582
 7179TIP3    H143028   1.939   2.219  11.224 -2.3247  0.6977 -1.4205
 7179TIP3    H243029   1.935   2.327  11.330  0.2803 -0.3951 -0.1327
 7180TIP3   OH243030   1.759   4.180   2.524 -0.2728  0.0993  0.3019
 7180TIP3    H143031   1.734   4.268   2.551 -1.5049 -0.2751  0.4342
 7180TIP3    H243032   1.682   4.126   2.542  0.6144 -1.0974  0.6576
 7181TIP3   OH243033   4.208   0.067   4.109  0.2161  0.2154  0.3060
 7181TIP3    H143034   4.282   0.035   4.058  0.5823  0.4260  0.6944
 7181TIP3    H243035   4.200   0.005   4.181 -1.1268 -0.8346 -0.6981
 7182TIP3   OH243036   3.619   0.967  16.786 -0.8346 -0.2043  0.0317
 7182TIP3    H143037   3.618   0.871  16.781  0.5359 -0.2421  0.1235
 7182TIP3    H243038   3.664   0.995  16.707 -1.2331  0.3783  0.0043
 7183TIP3   OH243039   5.031   4.758   3.500 -0.3386 -0.1579 -0.3452
 7183TIP3    H143040   5.053   4.748   3.407  1.4176  0.7862 -0.0883
 7183TIP3    H243041   4.963   4.825   3.501 -0.6706 -0.4744 -0.9750
 7184TIP3   OH243042   4.843   4.496  13.596  0.5883  0.4236  0.2743
 7184TIP3    H143043   4.858   4.474  13.504  1.0808 -1.1888  0.7104
 7184TIP3    H243044   4.923   4.542  13.622  0.2849  1.2348 -0.1930
 7185TIP3   OH243045   5.569   2.860  14.848 -0.1676 -0.2032  0.0430
 7185TIP3    H143046   5.501   2.805  14.809 -0.7795  0.6219 -0.0757
 7185TIP3    H243047   5.565   2.841  14.942  0.1743 -0.9445 -0.0799
 7186TIP3   OH243048   3.154   2.653  16.521  0.8804  0.9613  0.2676
 7186TIP3    H143049   3.144   2.692  16.434  2.9939  0.5930 -0.1937
 7186TIP3    H243050   3.129   2.562  16.509  0.7189  1.0216  0.1464
 7187TIP3   OH243051   5.518   0.139   4.528  0.3293  0.6980 -0.2021
 7187TIP3    H143052   5.504   0.052   4.490  1.5271  0.4017 -0.0037
 7187TIP3    H243053   5.430   0.168   4.553 -0.1825 -0.1254 -0.9624
 7188TIP3   OH243054   1.437   1.325  16.399 -0.4242  0.6708 -0.0077
 7188TIP3    H143055   1.527   1.357  16.389 -0.4812  1.4655  1.6992
 7188TIP3    H243056   1.389   1.366  16.327  0.6584 -0.1939 -1.2635
 7189TIP3   OH243057   5.323   3.826   0.066  0.3207 -0.2679  0.6941
 7189TIP3    H143058   5.271   3.794   0.139 -0.5760 -2.1819 -0.6984
 7189TIP3    H243059   5.305   3.920   0.062 -0.0889 -0.2409  2.5078
 7190TIP3   OH243060   2.966   0.407   3.434 -0.3704 -0.0553 -0.0044
 7190TIP3    H143061   3.016   0.361   3.501  0.1427  1.5126  0.7458
 7190TIP3    H243062   3.032   0.452   3.381 -0.7979 -0.8839 -1.2918
 7191TIP3   OH243063   3.821   3.870   3.272 -0.3106 -0.1412  0.9639
 7191TIP3    H143064   3.784   3.958   3.269 -0.9822 -0.4451 -0.7682
 7191TIP3    H243065   3.914   3.882   3.254 -0.5452  0.1672 -0.1376
 7192TIP3   OH243066   6.561   3.437  15.079  0.0552 -0.1901  0.0290
 7192TIP3    H143067   6.601   3.483  15.005  1.3289 -0.4268  0.5410
 7192TIP3    H243068   6.598   3.349  15.074 -0.0165 -0.2661  0.8175
 7193TIP3   OH243069   1.383   3.340  13.722 -0.3220  0.3114 -0.3081
 7193TIP3    H143070   1.409   3.251  13.745  0.0644  0.9227  1.8597
 7193TIP3    H243071   1.464   3.383  13.694 -0.3323  0.2584 -0.4209
 7194TIP3   OH243072   4.131   4.443   2.480  0.0978  0.1697 -0.5912
 7194TIP3    H143073   4.178   4.523   2.501 -0.4082  0.6094 -1.1221
 7194TIP3    H243074   4.199   4.376   2.473  0.4915  0.4801  0.1665
 7195TIP3   OH243075   6.738   1.805   1.056 -0.4022 -0.1256  0.6965
 7195TIP3    H143076   6.730   1.889   1.102  0.7616  0.4087 -0.0345
 7195TIP3    H243077   6.804   1.757   1.107 -1.4258 -0.8239  1.4051
 7196TIP3   OH243078   0.648   1.102  12.540  0.3913 -0.0126  0.1044
 7196TIP3    H143079   0.622   1.011  12.555 -0.8037  0.6136  2.2528
 7196TIP3    H243080   0.587   1.154  12.592  1.2021  2.0302 -0.8543
 7197TIP3   OH243081   3.184   2.488  13.505  0.2192  0.0350  0.5202
 7197TIP3    H143082   3.251   2.479  13.573  0.7409 -0.0901 -0.0052
 7197TIP3    H243083   3.203   2.418  13.443 -0.2025  0.2008  0.2005
 7198TIP3   OH243084   1.576   6.546  13.149 -0.3695 -0.3638 -0.2784
 7198TIP3    H143085   1.531   6.608  13.092  0.0954 -0.1425 -0.4148
 7198TIP3    H243086   1.643   6.599  13.192  1.1340 -1.0947 -1.6291
 7199TIP3   OH243087   4.438   5.743   5.747 -0.3882  0.0083  0.8175
 7199TIP3    H143088   4.405   5.654   5.759  0.9578 -0.7840 -0.9441
 7199TIP3    H243089   4.474   5.744   5.658 -1.6229  2.7439  0.2397
 7200TIP3   OH243090   0.374   5.324  10.953  0.4680 -0.2569  0.3444
 7200TIP3    H143091   0.387   5.260  10.882  2.7221  1.0580 -0.5544
 7200TIP3    H243092   0.395   5.276  11.033 -1.8706 -1.7006  0.1836
 7201TIP3   OH243093   5.135   5.695  11.603 -0.1924  0.0236  0.2885
 7201TIP3    H143094   5.200   5.719  11.668  2.1220 -1.7160 -1.2387
 7201TIP3    H243095   5.135   5.600  11.602  0.0469 -0.0296 -2.3391
 7202TIP3   OH243096   0.699   1.697   4.494 -0.7787 -0.0775 -0.5255
 7202TIP3    H143097   0.688   1.603   4.510 -1.7272  0.1639  0.3230
 7202TIP3    H243098   0.791   1.707   4.472 -0.8312 -1.3116 -1.3923
 7203TIP3   OH243099   6.119   5.087   3.425 -0.2713  0.5587 -0.0140
 7203TIP3    H143100   6.031   5.062   3.396 -0.8842 -0.2458  2.3070
 7203TIP3    H243101   6.113   5.182   3.441 -0.5275  0.6166 -0.4292
 7204TIP3   OH243102   2.338   3.824   1.425  0.1875 -0.2123  0.2927
 7204TIP3    H143103   2.247   3.798   1.434  0.4353 -0.6728  1.7154
 7204TIP3    H243104   2.385   3.770   1.488  1.4004  0.2623 -0.1752
 7205TIP3   OH243105   0.176   0.087  13.210  0.2630 -0.9897 -0.4770
 7205TIP3    H143106   0.229   0.054  13.282  1.0442 -2.2310 -1.5653
 7205TIP3    H243107   0.102   0.130  13.252  0.5389 -1.9407  1.0597
 7206TIP3   OH243108   3.608   1.105  11.962 -0.1680  0.2506  0.3367
 7206TIP3    H143109   3.631   1.021  11.921  0.6526  1.0605 -0.9281
 7206TIP3    H243110   3.516   1.095  11.988 -0.2710 -0.8050 -0.3820
 7207TIP3   OH243111   3.160   5.430  12.291  0.3024 -0.4653  0.1764
 7207TIP3    H143112   3.151   5.368  12.364 -1.1530 -0.1072  0.3295
 7207TIP3    H243113   3.166   5.516  12.333 -2.0462 -0.0970 -0.0913
 7208TIP3   OH243114   3.347   1.306  16.823 -0.8278  0.0888 -0.2248
 7208TIP3    H143115   3.284   1.378  16.822 -0.6413  0.2526 -0.9531
 7208TIP3    H243116   3.416   1.334  16.764  0.6207  0.4983  1.5732
 7209TIP3   OH243117   5.485   6.102  14.515  0.2178 -0.1079  0.0133
 7209TIP3    H143118   5.535   6.026  14.545  2.4333  1.4524  0.4979
 7209TIP3    H243119   5.533   6.178  14.548 -0.0706  1.6390 -3.1375
 7210TIP3   OH243120   2.731   0.942  14.419  0.8910  0.1035  0.0949
 7210TIP3    H143121   2.784   0.930  14.498 -0.2296 -0.6460  0.7621
 7210TIP3    H243122   2.641   0.946  14.451  0.6003  2.9463 -0.8647
 7211TIP3   OH243123   5.295   6.339   5.205  0.0553  0.1558 -0.5108
 7211TIP3    H143124   5.390   6.352   5.214 -0.1268  0.5719  1.1099
 7211TIP3    H243125   5.266   6.412   5.151  0.7743 -0.5392 -1.9076
 7212TIP3   OH243126   1.675   1.677  14.627  0.0604  0.4850 -0.2094
 7212TIP3    H143127   1.641   1.760  14.662 -1.5069  0.2860 -1.1816
 7212TIP3    H243128   1.597   1.628  14.601  1.0516  0.5880 -3.8571
 7213TIP3   OH243129   0.166   5.262  16.864 -0.7070 -0.5054 -0.2946
 7213TIP3    H143130   0.082   5.235  16.901  1.3084 -3.2703  2.9431
 7213TIP3    H243131   0.180   5.351  16.895 -1.8415 -0.5308  0.3074
 7214TIP3   OH243132   6.639   2.852  13.470 -0.9144  0.4434  0.5055
 7214TIP3    H143133   6.669   2.761  13.473 -0.6803  0.5088  0.2090
 7214TIP3    H243134   6.629   2.877  13.562  2.3228  1.1886  0.7781
 7215TIP3   OH243135   4.295   0.294   4.369  0.3386  0.2348 -0.2506
 7215TIP3    H143136   4.353   0.302   4.293  0.6136  1.0058  0.0287
 7215TIP3    H243137   4.293   0.200   4.388  0.3883  0.0519 -1.1109
 7216TIP3   OH243138   4.399   6.159  11.372 -0.0428 -0.4586  0.2599
 7216TIP3    H143139   4.396   6.064  11.367 -1.8489 -0.3827 -1.5627
 7216TIP3    H243140   4.410   6.187  11.281 -1.1638  1.0814  0.5524
 7217TIP3   OH243141   4.708   0.693   0.660 -0.4821 -0.3509  0.6741
 7217TIP3    H143142   4.759   0.612   0.660 -0.3509 -0.2734  0.3105
 7217TIP3    H243143   4.639   0.677   0.595  1.2995  0.8847 -1.6958
 7218TIP3   OH243144   3.027   0.501  13.497  0.4024  0.4035 -0.1448
 7218TIP3    H143145   2.998   0.473  13.584  0.3389  0.1088 -0.2577
 7218TIP3    H243146   2.955   0.476  13.439  0.3013  0.9053 -0.2351
 7219TIP3   OH243147   2.048   0.322   1.094 -0.4349 -0.4217 -0.0819
 7219TIP3    H143148   2.102   0.401   1.100 -2.2700  0.9120 -0.2400
 7219TIP3    H243149   2.097   0.264   1.035  1.4202  0.1756  0.8063
 7220TIP3   OH243150   2.902   2.209   4.937  0.4650 -0.2594 -0.5774
 7220TIP3    H143151   2.851   2.220   5.017 -0.0816  0.1433 -0.9678
 7220TIP3    H243152   2.971   2.274   4.942  0.8589 -0.7053 -0.1148
 7221TIP3   OH243153   1.309   5.040  13.108 -0.2326  0.7158  0.4509
 7221TIP3    H143154   1.292   5.070  13.019  0.9393  1.6504  0.5236
 7221TIP3    H243155   1.237   4.980  13.127 -0.1927  0.0519 -1.3257
 7222TIP3   OH243156   5.610   6.231  13.072 -0.2261  0.0680  0.5012
 7222TIP3    H143157   5.550   6.300  13.101 -0.2430  0.6340 -0.8157
 7222TIP3    H243158   5.587   6.217  12.980  1.5589  0.1761  0.0150
 7223TIP3   OH243159   3.400   0.768  13.775  0.1261 -1.0529 -0.2988
 7223TIP3    H143160   3.449   0.772  13.857 -0.3689 -0.6292 -0.0172
 7223TIP3    H243161   3.432   0.688  13.732 -0.3237 -1.8441  0.7676
 7224TIP3   OH243162   3.502   5.174   2.486  0.2785 -0.1283  0.4644
 7224TIP3    H143163   3.565   5.193   2.556  3.0664 -1.8411 -1.3637
 7224TIP3    H243164   3.516   5.243   2.421 -0.7513  0.2413  0.6144
 7225TIP3   OH243165   6.247   3.600   3.895 -0.4365 -0.6553  0.1264
 7225TIP3    H143166   6.171   3.641   3.937 -1.4213 -3.7987  1.7399
 7225TIP3    H243167   6.308   3.584   3.967 -0.4949 -2.7459 -0.2475
 7226TIP3   OH243168   4.259   4.756   0.753  0.3244  0.2803  0.1892
 7226TIP3    H143169   4.332   4.705   0.790  2.5108  2.5247 -0.7282
 7226TIP3    H243170   4.246   4.828   0.814 -0.7560  0.2226  0.0362
 7227TIP3   OH243171   4.995   3.078   1.943 -0.4363  0.4001 -0.1667
 7227TIP3    H143172   4.949   3.098   2.025 -0.8344  1.2607 -0.5903
 7227TIP3    H243173   5.086   3.102   1.960 -0.0357 -1.5458  0.7594
 7228TIP3   OH243174   4.468   1.382   2.879 -0.9275 -0.4192  0.0922
 7228TIP3    H143175   4.432   1.443   2.943 -0.1448 -0.8597  0.9791
 7228TIP3    H243176   4.500   1.309   2.931  0.8777 -0.2345 -0.6789
 7229TIP3   OH243177   4.813   6.743   2.428 -0.2802  0.2358 -0.0428
 7229TIP3    H143178   4.890   6.687   2.439  0.8540  1.8831  0.8686
 7229TIP3    H243179   4.766   6.705   2.353  0.1179 -2.2153  0.8703
 7230TIP3   OH243180   5.640   5.269  14.225 -0.4934  0.1777 -0.4574
 7230TIP3    H143181   5.656   5.358  14.193  2.8765  0.4896  1.5369
 7230TIP3    H243182   5.587   5.281  14.303  2.4064  0.9427  1.5618
 7231TIP3   OH243183   0.197   6.821  16.158 -0.1595  0.4773 -0.2640
 7231TIP3    H143184   0.125   6.815  16.096  0.3670 -1.4353 -0.7556
 7231TIP3    H243185   0.242   6.903  16.135 -0.2827  0.0681 -2.0761
 7232TIP3   OH243186   2.962   0.474   5.506 -0.0399 -0.3986 -0.3161
 7232TIP3    H143187   2.993   0.395   5.460 -0.5962 -0.4048 -0.6862
 7232TIP3    H243188   2.927   0.530   5.436  0.2539  0.1364 -0.0434
 7233TIP3   OH243189   1.536   5.619  17.288 -0.1371  0.7132 -0.3389
 7233TIP3    H143190   1.596   5.595  17.217 -1.1121 -0.1072 -0.8930
 7233TIP3    H243191   1.482   5.688  17.251  0.9035  1.9849  0.4030
 7234TIP3   OH243192   4.596   4.029   1.907 -0.1581  0.5493 -0.3121
 7234TIP3    H143193   4.675   3.974   1.909 -0.1987  0.5031  0.5691
 7234TIP3    H243194   4.594   4.065   1.819 -0.3252 -1.1594 -1.0529
 7235TIP3   OH243195   5.490   0.530   1.810  0.1178  0.7867  0.4129
 7235TIP3    H143196   5.415   0.485   1.771  1.5743 -0.4591 -1.1040
 7235TIP3    H243197   5.490   0.617   1.770 -1.3412  1.3571  1.5651
 7236TIP3   OH243198   2.298   4.968  15.697  0.3262 -0.4755 -0.2605
 7236TIP3    H143199   2.241   4.899  15.732  0.1216 -0.1117  0.1394
 7236TIP3    H243200   2.322   4.938  15.610  0.1707 -1.0127 -0.1210
 7237TIP3   OH243201   2.887   2.525  14.454  0.7056  0.5496  0.1678
 7237TIP3    H143202   2.908   2.618  14.462  2.6912  0.5440 -3.2078
 7237TIP3    H243203   2.964   2.487  14.413  0.2324 -2.7953  2.0636
 7238TIP3   OH243204   6.361   5.139  17.137  0.1558  0.1347 -0.4086
 7238TIP3    H143205   6.411   5.103  17.210 -1.6435  0.8033  1.2348
 7238TIP3    H243206   6.393   5.091  17.061  2.2831 -0.4207  0.7456
 7239TIP3   OH243207   3.791   3.274   4.040  0.3259 -0.2515  0.4207
 7239TIP3    H143208   3.748   3.195   4.072 -0.5218  0.9226  2.3767
 7239TIP3    H243209   3.885   3.257   4.053  0.2403 -1.3797 -0.3355
 7240TIP3   OH243210   0.423   5.590   4.151  0.0461 -0.0354 -0.1954
 7240TIP3    H143211   0.350   5.652   4.159 -1.0398 -1.2539 -0.2847
 7240TIP3    H243212   0.416   5.556   4.062  1.4619  0.6758 -0.6052
 7241TIP3   OH243213   3.471   1.591   2.444  0.0670 -0.6813 -0.0227
 7241TIP3    H143214   3.385   1.595   2.486  1.0004  0.5327  1.9262
 7241TIP3    H243215   3.495   1.683   2.430  1.6549 -0.9173  0.8836
 7242TIP3   OH243216   0.357   5.762   3.210 -0.2012  0.1456 -0.9425
 7242TIP3    H143217   0.447   5.740   3.183  0.3298  1.2065 -0.1128
 7242TIP3    H243218   0.302   5.727   3.140  0.6412 -2.6581 -0.3368
 7243TIP3   OH243219   3.066   4.140  17.082  0.9112  0.4020 -0.0739
 7243TIP3    H143220   3.045   4.057  17.038  1.5990  0.6653 -0.9187
 7243TIP3    H243221   3.000   4.147  17.151  1.3316 -1.2454  0.5411
 7244TIP3   OH243222   0.274   6.723  13.580  0.3806  0.0513 -0.0432
 7244TIP3    H143223   0.196   6.779  13.576 -0.2590 -0.6818  1.2548
 7244TIP3    H243224   0.271   6.672  13.500  0.0161  0.6669 -0.4295
 7245TIP3   OH243225   2.938   6.082  17.196  0.4551 -0.4708  0.2499
 7245TIP3    H143226   2.964   6.006  17.248  1.2540 -0.9301 -0.7838
 7245TIP3    H243227   2.899   6.142  17.259  1.6111 -0.9082  1.4156
 7246TIP3   OH243228   5.548   3.079  14.145 -0.3553 -0.1151  0.4615
 7246TIP3    H143229   5.483   3.094  14.215 -0.4633 -1.6168  0.7170
 7246TIP3    H243230   5.632   3.089  14.189 -0.3796  1.6225  0.1789
 7247TIP3   OH243231   6.285   0.507  14.313  0.0863  0.3341 -0.6830
 7247TIP3    H143232   6.249   0.425  14.281  3.0399 -0.6014 -2.0408
 7247TIP3    H243233   6.374   0.485  14.341  0.2627  2.7023  0.9612
 7248TIP3   OH243234   3.025   6.446   2.594 -0.2620 -0.2199 -0.3068
 7248TIP3    H143235   2.979   6.385   2.652  0.4074  0.4354  0.9384
 7248TIP3    H243236   2.956   6.482   2.539 -1.4371  1.2482  1.9679
 7249TIP3   OH243237   4.011   4.254   4.050  0.4431  0.5573  0.0896
 7249TIP3    H143238   4.007   4.195   3.974  3.0330 -0.4020  0.5860
 7249TIP3    H243239   3.990   4.340   4.015  0.7689 -0.0027 -1.5556
 7250TIP3   OH243240   1.922   1.127   0.985  0.7602 -0.4305 -0.0982
 7250TIP3    H143241   1.966   1.211   0.999  1.6233 -0.5391 -1.7937
 7250TIP3    H243242   1.991   1.062   1.000  0.4659 -0.7558 -0.1562
 7251TIP3   OH243243   5.829   2.812  15.476 -0.2454 -0.5011  0.0341
 7251TIP3    H143244   5.809   2.901  15.503 -0.7054 -1.0439  1.6255
 7251TIP3    H243245   5.884   2.821  15.399 -1.3345  1.1353 -0.5989
 7252TIP3   OH243246   5.449   1.933   3.432  0.1098 -0.3300  0.1874
 7252TIP3    H143247   5.449   1.850   3.479  0.4778 -0.6372 -0.3561
 7252TIP3    H243248   5.541   1.958   3.427 -0.0705  0.6047  1.2066
 7253TIP3   OH243249   5.950   3.773   1.405 -0.3790 -0.1685 -0.4608
 7253TIP3    H143250   5.911   3.858   1.421 -0.1984 -0.2229  0.3382
 7253TIP3    H243251   5.881   3.710   1.427 -0.8426 -0.2301 -1.9952
 7254TIP3   OH243252   3.624   0.027   2.928  0.3001 -0.1660 -0.0385
 7254TIP3    H143253   3.660   0.078   2.856  1.6552 -1.8547 -0.6311
 7254TIP3    H243254   3.655  -0.062   2.912 -1.7109 -1.1473  1.0948
 7255TIP3   OH243255   2.723   0.296   5.646 -0.2790  0.0220  0.0886
 7255TIP3    H143256   2.635   0.289   5.683  0.7383 -2.4724  2.4343
 7255TIP3    H243257   2.752   0.384   5.669 -1.8558  0.5939 -0.0298
 7256TIP3   OH243258   6.576   3.483  15.347  0.1533  0.4028 -0.4355
 7256TIP3    H143259   6.567   3.483  15.252  0.0583  1.5685 -0.4384
 7256TIP3    H243260   6.499   3.529  15.379 -0.7192 -1.4680  0.3326
 7257TIP3   OH243261   5.070   4.443  15.430  0.0913  0.0250  0.1616
 7257TIP3    H143262   5.115   4.367  15.395  1.1160  1.3320 -1.5322
 7257TIP3    H243263   5.077   4.509  15.361 -0.3430  1.8075  1.7269
 7258TIP3   OH243264   4.277   6.572  16.506 -0.8562 -0.1931 -0.4288
 7258TIP3    H143265   4.340   6.551  16.437 -0.6642 -0.6077 -0.1305
 7258TIP3    H243266   4.307   6.522  16.582 -0.3647  1.1720  0.3101
 7259TIP3   OH243267   2.742   3.124  12.297 -0.2132 -0.0304 -0.6642
 7259TIP3    H143268   2.824   3.138  12.251  0.2398 -0.0883  0.1073
 7259TIP3    H243269   2.697   3.208  12.293  1.2539  0.9427  1.5430
 7260TIP3   OH243270   4.034   1.629  16.649 -0.1730  0.2459 -0.5548
 7260TIP3    H143271   4.107   1.692  16.655  0.3476 -0.4097  0.2755
 7260TIP3    H243272   3.990   1.652  16.567 -0.1903  1.8981 -0.1291
 7261TIP3   OH243273   0.396   6.453  13.453  0.3454  0.5309  0.2949
 7261TIP3    H143274   0.402   6.470  13.359 -3.4744  1.1002  0.0234
 7261TIP3    H243275   0.485   6.467  13.486  1.3822  2.3043 -2.8960
 7262TIP3   OH243276   3.686   5.049  12.402 -0.0235  0.3931  0.1256
 7262TIP3    H143277   3.641   5.108  12.342  0.2756  0.8315  0.3322
 7262TIP3    H243278   3.772   5.035  12.364 -0.7263 -1.4446 -0.9267
 7263TIP3   OH243279   5.759   4.959  13.391 -0.4307 -0.4089 -0.1049
 7263TIP3    H143280   5.822   4.986  13.458 -0.1021  1.2731 -1.0313
 7263TIP3    H243281   5.761   4.864  13.394  1.1861 -0.3928  0.7977
 7264TIP3   OH243282   3.526   6.228  13.599 -0.0354  0.2913  0.2166
 7264TIP3    H143283   3.477   6.146  13.608 -2.2002  1.3369 -0.9681
 7264TIP3    H243284   3.464   6.288  13.556  2.3610  1.7301 -1.4906
 7265TIP3   OH243285   5.316   1.415  15.827 -0.1986 -0.2162 -0.6013
 7265TIP3    H143286   5.388   1.477  15.838 -0.6924  0.1820  0.5353
 7265TIP3    H243287   5.251   1.443  15.892 -0.1453 -2.3250  0.4411
 7266TIP3   OH243288   5.414   6.590   4.127  0.5663 -0.0222  0.0887
 7266TIP3    H143289   5.469   6.521   4.164  0.0260  0.3482  1.6571
 7266TIP3    H243290   5.456   6.672   4.152 -0.0306  0.2414  0.2675
 7267TIP3   OH243291   1.368   5.569  10.951 -0.3027 -0.4155 -0.5474
 7267TIP3    H143292   1.358   5.499  10.886  1.5735 -0.9264 -0.3604
 7267TIP3    H243293   1.460   5.564  10.977 -0.3220  1.6164  0.0828
 7268TIP3   OH243294   0.554   6.533   5.835  0.1073 -0.2779  0.1888
 7268TIP3    H143295   0.531   6.484   5.914 -0.6200  0.8196  0.6966
 7268TIP3    H243296   0.601   6.471   5.781 -2.3550 -2.1215 -0.0257
 7269TIP3   OH243297   1.730   1.395  13.775 -0.0844 -0.3572 -0.0988
 7269TIP3    H143298   1.796   1.396  13.706  0.2179 -1.0652  0.1726
 7269TIP3    H243299   1.781   1.398  13.856 -0.4267  0.2334  0.1005
 7270TIP3   OH243300   4.652   5.424   4.499 -0.3294 -0.0858  0.2020
 7270TIP3    H143301   4.671   5.392   4.588 -1.1380 -1.2273 -0.0109
 7270TIP3    H243302   4.562   5.396   4.482 -0.3182  0.4519 -0.8453
 7271TIP3   OH243303   1.279   4.066   5.943 -0.3841 -0.2498  0.1659
 7271TIP3    H143304   1.207   4.062   5.879  2.1196  1.5217 -3.0632
 7271TIP3    H243305   1.308   4.158   5.940  1.1324 -0.5842  2.4509
 7272TIP3   OH243306   1.171   1.258   0.350  0.0990  0.4233  0.6618
 7272TIP3    H143307   1.258   1.271   0.311  0.8560  0.6889  2.3494
 7272TIP3    H243308   1.110   1.290   0.283  1.1685 -1.3771 -1.2739
 7273TIP3   OH243309   5.708   0.302  11.445 -0.1567  0.1567  0.1498
 7273TIP3    H143310   5.651   0.375  11.467  0.1842 -0.5120  3.9345
 7273TIP3    H243311   5.796   0.340  11.443 -0.2405  0.3235 -0.8177
 7274TIP3   OH243312   2.837   3.171  13.926 -0.1122 -0.2011  0.1943
 7274TIP3    H143313   2.897   3.132  13.863  1.6987 -0.2893  1.8498
 7274TIP3    H243314   2.791   3.239  13.877  1.5008 -0.0064 -1.1410
 7275TIP3   OH243315   2.098   0.465  14.641 -0.1607 -0.3489 -0.1932
 7275TIP3    H143316   2.016   0.442  14.598 -0.7643 -0.0359  0.7595
 7275TIP3    H243317   2.106   0.560  14.629 -0.3260 -0.2609  0.3463
 7276TIP3   OH243318   4.230   3.552  13.456  0.1043 -0.0945 -0.1778
 7276TIP3    H143319   4.251   3.636  13.414 -1.9226  0.2671 -0.5758
 7276TIP3    H243320   4.163   3.514  13.400 -0.4539 -1.0410  1.0978
 7277TIP3   OH243321   6.524   3.688   0.504 -0.5676 -0.0803  0.0853
 7277TIP3    H143322   6.493   3.647   0.424 -0.3066  0.3848 -0.2568
 7277TIP3    H243323   6.607   3.645   0.523 -1.0143 -0.7673  0.5670
 7278TIP3   OH243324   5.680   6.758   3.601 -0.2839  0.0449  0.8526
 7278TIP3    H143325   5.617   6.767   3.673  0.1982 -0.3505  1.3376
 7278TIP3    H243326   5.626   6.752   3.522 -0.7852  1.7148  1.0436
 7279TIP3   OH243327   0.673   3.680  15.590  0.0564  0.1504 -0.7379
 7279TIP3    H143328   0.577   3.676  15.583 -0.0525  0.6502  0.1982
 7279TIP3    H243329   0.700   3.589  15.602 -0.1551 -0.1588 -2.4271
 7280TIP3   OH243330   5.976   4.806  15.983  0.1242  0.1972  0.1456
 7280TIP3    H143331   6.040   4.874  15.960 -1.2601  1.1290 -1.1510
 7280TIP3    H243332   5.972   4.750  15.906  0.4580 -0.7420  0.7996
 7281TIP3   OH243333   2.128   4.458   3.542  0.1064 -0.6353 -0.4181
 7281TIP3    H143334   2.057   4.457   3.477  1.6494 -0.7951 -2.1662
 7281TIP3    H243335   2.123   4.373   3.584  1.7425 -2.3748 -3.4336
 7282TIP3   OH243336   5.485   4.984   0.636  0.6836  0.3714 -0.0181
 7282TIP3    H143337   5.550   4.949   0.575  0.5388  0.9400 -0.5038
 7282TIP3    H243338   5.403   4.985   0.587  0.2765 -0.4015  0.6114
 7283TIP3   OH243339   1.660   2.729  11.903  0.0485  0.0195  0.3199
 7283TIP3    H143340   1.712   2.684  11.836  0.0176  0.5595 -0.0787
 7283TIP3    H243341   1.577   2.747  11.860  0.2980  1.0493  0.2363
 7284TIP3   OH243342   1.191   0.231  11.177  0.7858  0.2322 -0.0143
 7284TIP3    H143343   1.210   0.282  11.098  0.9554  0.1268 -0.0427
 7284TIP3    H243344   1.095   0.235  11.186  0.6272 -0.8640 -0.9899
 7285TIP3   OH243345   0.386   0.333   6.020 -0.7561 -0.5829 -0.0758
 7285TIP3    H143346   0.315   0.338   5.956 -0.2140 -2.9592 -0.9484
 7285TIP3    H243347   0.463   0.306   5.970  0.7478  1.5273  0.9141
 7286TIP3   OH243348   5.696   1.483  13.121  0.3568 -0.5934 -0.3566
 7286TIP3    H143349   5.761   1.413  13.114 -0.6446 -1.6080  0.1624
 7286TIP3    H243350   5.679   1.509  13.031  0.6330 -1.1293 -0.5686
 7287TIP3   OH243351   1.232   0.879   1.835  0.0044 -0.3695  0.5731
 7287TIP3    H143352   1.240   0.928   1.917  2.9363  0.6143 -0.1830
 7287TIP3    H243353   1.308   0.906   1.784 -0.4101 -2.8065 -1.4947
 7288TIP3   OH243354   5.024   3.068   4.538  0.4656  0.0539  0.3402
 7288TIP3    H143355   5.107   3.116   4.542  1.1529 -1.0709 -0.0898
 7288TIP3    H243356   5.049   2.976   4.545 -0.8779 -0.2371  1.8251
 7289TIP3   OH243357   1.664   1.988  11.657  0.2865 -0.4025  0.0653
 7289TIP3    H143358   1.664   1.893  11.641  0.0640 -0.8542  2.3960
 7289TIP3    H243359   1.574   2.015  11.640  0.2600 -0.6614 -0.2414
 7290TIP3   OH243360   4.287   4.889  13.581 -0.2590  0.6152  0.3713
 7290TIP3    H143361   4.340   4.826  13.531  0.7108  0.9014  0.9934
 7290TIP3    H243362   4.352   4.945  13.623 -1.1058  1.6081  0.3732
 7291TIP3   OH243363   3.874   5.753  11.775  0.1836  0.1442  0.2710
 7291TIP3    H143364   3.958   5.796  11.789  0.0911  0.6055 -0.5246
 7291TIP3    H243365   3.897   5.661  11.761  0.2258 -0.5304  3.9840
 7292TIP3   OH243366   0.216   2.028   1.084  0.1130  0.6147  0.8525
 7292TIP3    H143367   0.181   1.944   1.115 -2.3306  0.0053 -2.9226
 7292TIP3    H243368   0.163   2.094   1.127 -0.3699  0.0268  1.1696
 7293TIP3   OH243369   3.788   4.374  13.851  0.0282 -0.3708  0.4135
 7293TIP3    H143370   3.847   4.315  13.898 -0.0853  0.6285  1.8808
 7293TIP3    H243371   3.737   4.416  13.920  1.1013  2.4911 -0.4017
 7294TIP3   OH243372   2.725   0.318   0.999  0.0934 -0.2591  0.3062
 7294TIP3    H143373   2.820   0.314   0.982 -0.0205 -0.2640 -0.3842
 7294TIP3    H243374   2.714   0.401   1.046  0.0909  1.4469 -2.4143
 7295TIP3   OH243375   3.890   5.850  16.643  0.3084  0.1266 -0.2676
 7295TIP3    H143376   3.956   5.848  16.573 -0.4230  2.7588 -1.1340
 7295TIP3    H243377   3.908   5.931  16.690 -1.1921 -0.0363  0.6223
 7296TIP3   OH243378   4.282   4.227  12.214 -0.3475  0.3869  0.3619
 7296TIP3    H143379   4.266   4.155  12.154  1.5674  0.1097  0.1200
 7296TIP3    H243380   4.282   4.186  12.301 -1.3374  0.4840  0.4217
 7297TIP3   OH243381   4.857   6.784  12.524  0.0676  0.0426 -0.0729
 7297TIP3    H143382   4.772   6.784  12.566 -0.2911 -0.8048 -0.7645
 7297TIP3    H243383   4.897   6.867  12.550 -0.1465 -0.4350  1.8672
 7298TIP3   OH243384   4.181   2.980   1.264 -0.3628  0.6978 -0.1757
 7298TIP3    H143385   4.110   3.031   1.225  0.6477  1.0780 -1.6187
 7298TIP3    H243386   4.256   2.995   1.206  0.0450 -2.3066 -0.6253
 7299TIP3   OH243387   3.683   1.383  13.494 -0.0940 -0.2437 -0.3437
 7299TIP3    H143388   3.718   1.335  13.419  2.7829 -1.3173  1.5400
 7299TIP3    H243389   3.629   1.318  13.540 -1.8788  0.4220 -1.3888
 7300TIP3   OH243390   3.663   6.136  12.623 -0.3582  0.1337 -0.4023
 7300TIP3    H143391   3.732   6.076  12.596 -0.7992 -0.1529 -0.9119
 7300TIP3    H243392   3.582   6.093  12.596 -0.7756  0.1904  0.7105
 7301TIP3   OH243393   5.720   0.843  14.616  0.0990 -0.4376 -0.1188
 7301TIP3    H143394   5.796   0.832  14.673 -0.1255  0.7043  0.4392
 7301TIP3    H243395   5.649   0.801  14.663 -0.9206  3.5343  2.3536
 7302TIP3   OH243396   3.025   5.252   4.031 -0.1377  0.6490 -0.4737
 7302TIP3    H143397   3.096   5.308   4.064  1.2815 -1.9554  1.2914
 7302TIP3    H243398   3.036   5.252   3.936  1.7678  0.9769 -0.2969
 7303TIP3   OH243399   5.745   3.755   2.222 -0.6718  0.1127  0.2351
 7303TIP3    H143400   5.802   3.687   2.259  0.9606  1.7142  0.8194
 7303TIP3    H243401   5.675   3.765   2.286 -1.0755 -1.1710  0.0179
 7304TIP3   OH243402   3.786   1.879  16.290 -0.8055  0.2995 -0.3279
 7304TIP3    H143403   3.867   1.928  16.274 -0.6186  0.8456  1.9184
 7304TIP3    H243404   3.727   1.908  16.221  0.1302  1.7647 -0.5741
 7305TIP3   OH243405   1.588   3.796   0.035 -0.0186 -0.5543  0.8303
 7305TIP3    H143406   1.514   3.735   0.030 -1.2534  0.7079  2.4936
 7305TIP3    H243407   1.559   3.863   0.098  2.0286  0.7075  0.5001
 7306TIP3   OH243408   4.318   2.987   0.649 -0.0813  0.0852 -0.0408
 7306TIP3    H143409   4.307   2.892   0.646  0.3890  0.0449 -0.5438
 7306TIP3    H243410   4.391   3.001   0.709 -0.8278  0.1875  0.8516
 7307TIP3   OH243411   1.952   2.690   4.373  0.6410  0.1624  0.2267
 7307TIP3    H143412   1.964   2.729   4.460 -0.7811 -0.9071  0.9322
 7307TIP3    H243413   2.013   2.738   4.318  0.7507  1.6775  1.5708
 7308TIP3   OH243414   1.694   2.280  16.299 -0.1768 -0.4015  0.5342
 7308TIP3    H143415   1.684   2.256  16.391 -1.2578 -0.3064  0.4519
 7308TIP3    H243416   1.620   2.238  16.254 -0.8991  1.2850  0.0603
 7309TIP3   OH243417   0.318   0.961   5.485  0.0825 -0.2591  0.0134
 7309TIP3    H143418   0.241   0.997   5.440  0.6065 -0.1771 -0.8492
 7309TIP3    H243419   0.290   0.874   5.513 -0.1282 -0.4924 -0.8724
 7310TIP3   OH243420   0.946   2.277   3.759  0.0742 -0.0581  0.4140
 7310TIP3    H143421   1.015   2.257   3.696  1.4547 -0.4225  1.9646
 7310TIP3    H243422   0.889   2.340   3.715  1.0948 -0.1700 -1.1028
 7311TIP3   OH243423   2.076   5.919   3.606 -0.0845 -0.3087 -0.3184
 7311TIP3    H143424   2.165   5.913   3.640 -0.1837  1.5185  0.3676
 7311TIP3    H243425   2.050   6.009   3.623 -1.6198 -0.4604 -1.6428
 7312TIP3   OH243426   3.253   1.227   4.343  0.2298 -0.3079  0.1973
 7312TIP3    H143427   3.172   1.176   4.349  0.3935 -0.4304  1.7000
 7312TIP3    H243428   3.312   1.172   4.292 -0.3520 -0.6018 -0.1660
 7313TIP3   OH243429   1.700   2.309   3.844  0.2876 -0.4109  0.1529
 7313TIP3    H143430   1.710   2.382   3.782 -2.4396  0.0169  0.1002
 7313TIP3    H243431   1.607   2.286   3.839  0.2124 -1.1714  3.2000
 7314TIP3   OH243432   2.918   6.281  16.428 -0.2172 -0.6386  0.1424
 7314TIP3    H143433   2.826   6.298  16.449 -0.5019 -2.3294  0.3688
 7314TIP3    H243434   2.915   6.213  16.361  0.8798 -0.3272 -0.2472
 7315TIP3   OH243435   6.427   2.016   5.690  0.3808  0.0010  0.0358
 7315TIP3    H143436   6.419   2.041   5.598 -0.7869 -1.3021 -0.2457
 7315TIP3    H243437   6.460   2.095   5.733 -0.5668  1.1379 -1.2359
 7316TIP3   OH243438   5.300   2.555  15.897 -0.0064  0.4457  0.1011
 7316TIP3    H143439   5.305   2.645  15.930 -0.3010  0.1130  1.0893
 7316TIP3    H243440   5.306   2.564  15.802  1.5815  1.3927  0.2443
 7317TIP3   OH243441   3.811   0.915  15.066  0.8275  0.2473 -0.1570
 7317TIP3    H143442   3.850   0.889  15.150 -0.1688  0.6262  0.4457
 7317TIP3    H243443   3.861   0.992  15.039 -0.5020  1.7807  1.4619
 7318TIP3   OH243444   2.620   4.419   3.450 -0.3331 -0.0551  0.1262
 7318TIP3    H143445   2.592   4.482   3.516  0.4588  0.9419 -0.4663
 7318TIP3    H243446   2.709   4.446   3.427 -0.8154  0.0468 -1.8173
 7319TIP3   OH243447   0.106   6.732   5.603 -0.0563  0.2127 -0.1376
 7319TIP3    H143448   0.068   6.764   5.685 -0.0537  1.8483 -0.7447
 7319TIP3    H243449   0.075   6.794   5.537  0.9838 -0.3503 -1.1775
 7320TIP3   OH243450   1.348   0.010  11.697 -0.1410 -0.1324  0.3347
 7320TIP3    H143451   1.431  -0.019  11.735  0.7282  0.1441 -1.2563
 7320TIP3    H243452   1.326   0.089  11.745  1.1205  0.4184  0.0397
 7321TIP3   OH243453   4.852   0.354   5.090  0.3590  0.3463  0.3645
 7321TIP3    H143454   4.895   0.439   5.105 -0.2640  0.9632 -1.1962
 7321TIP3    H243455   4.899   0.316   5.017 -1.6707  1.0405 -1.3999
 7322TIP3   OH243456   4.542   6.319   5.240 -0.1580 -0.2422 -0.8530
 7322TIP3    H143457   4.458   6.281   5.214 -0.5109 -0.7053  0.8746
 7322TIP3    H243458   4.519   6.406   5.274 -0.1106 -0.7762  0.6186
 7323TIP3   OH243459   5.924   6.715   4.228  0.0983 -0.0900  0.0734
 7323TIP3    H143460   5.858   6.661   4.184  0.3546  0.6450 -1.2283
 7323TIP3    H243461   5.889   6.727   4.317 -0.1615 -2.0403  0.2887
 7324TIP3   OH243462   2.980   2.411   3.652 -0.2073 -0.3189 -0.3352
 7324TIP3    H143463   3.074   2.400   3.638 -0.1268  1.0159 -1.0268
 7324TIP3    H243464   2.973   2.477   3.721 -0.6464 -1.3422  0.6214
 7325TIP3   OH243465   3.732   5.204   3.497  0.1104 -0.1867  0.5892
 7325TIP3    H143466   3.718   5.138   3.566  2.8380 -0.6318  0.8370
 7325TIP3    H243467   3.825   5.228   3.506 -0.5588  3.0793 -0.0847
 7326TIP3   OH243468   1.920   6.575  15.761 -0.6847 -0.0907 -0.8364
 7326TIP3    H143469   1.913   6.621  15.844  0.0434  1.5477 -1.6395
 7326TIP3    H243470   1.955   6.640  15.700  1.3967 -1.9884 -1.8063
 7327TIP3   OH243471   6.721   1.289  17.223 -0.5515  0.0875 -0.1547
 7327TIP3    H143472   6.697   1.221  17.161  0.9293 -0.3170 -0.3349
 7327TIP3    H243473   6.773   1.351  17.172  0.8784 -0.3677  0.6860
 7328TIP3   OH243474   4.090   2.507   1.534 -0.0614 -0.1649  0.4618
 7328TIP3    H143475   4.014   2.451   1.549 -1.2691  1.4979  0.8254
 7328TIP3    H243476   4.076   2.583   1.591  1.9890  0.1011  0.6972
 7329TIP3   OH243477   4.410   0.660   4.487  0.1793  0.3808  0.4235
 7329TIP3    H143478   4.370   0.614   4.561  1.4164  0.8967  1.4522
 7329TIP3    H243479   4.338   0.673   4.425 -0.9305  0.0711  1.5956
 7330TIP3   OH243480   1.917   5.626  11.827 -0.0230 -0.6661 -0.2279
 7330TIP3    H143481   1.868   5.669  11.756  1.4204 -0.5673 -1.2082
 7330TIP3    H243482   1.850   5.604  11.892 -1.0820  1.4913 -0.4653
 7331TIP3   OH243483   6.588   0.055   4.758 -0.0051 -0.6120  0.6332
 7331TIP3    H143484   6.521   0.113   4.723 -0.0397 -0.8781  0.2581
 7331TIP3    H243485   6.580  -0.026   4.707  0.4231 -0.7408  0.7621
 7332TIP3   OH243486   1.387   1.023   1.671  0.4589  0.0778  0.4499
 7332TIP3    H143487   1.324   1.091   1.647  1.4457  1.3051  1.2106
 7332TIP3    H243488   1.438   1.010   1.592  0.1005  0.0290  0.2228
 7333TIP3   OH243489   2.839   0.658   5.748 -0.3092  0.4048  0.1307
 7333TIP3    H143490   2.749   0.634   5.723  0.1388 -1.0263 -0.2010
 7333TIP3    H243491   2.877   0.577   5.780  0.8935  0.9857  0.2138
 7334TIP3   OH243492   4.496   1.307   1.098 -1.2573  0.3481  0.0400
 7334TIP3    H143493   4.507   1.388   1.149  0.0159  0.1261  0.1627
 7334TIP3    H243494   4.562   1.314   1.029 -0.7224 -0.8548  0.4081
 7335TIP3   OH243495   3.125   0.214   3.234  0.3365 -0.1174 -0.6311
 7335TIP3    H143496   3.085   0.260   3.308  0.0215 -1.3309 -0.0227
 7335TIP3    H243497   3.210   0.183   3.267 -0.3139 -1.7074 -0.3529
 7336TIP3   OH243498   0.597   4.177  16.502  0.0808  0.7725 -0.0586
 7336TIP3    H143499   0.648   4.183  16.421 -0.5094 -2.6672 -0.8696
 7336TIP3    H243500   0.656   4.132  16.564 -1.3243 -1.9924 -0.5748
 7337TIP3   OH243501   1.111   4.829   3.181 -0.3016 -0.6330 -0.5089
 7337TIP3    H143502   1.145   4.831   3.091 -1.4186  0.2069 -0.9466
 7337TIP3    H243503   1.026   4.786   3.173  0.1345 -1.6920  0.3687
 7338TIP3   OH243504   6.436   2.225  13.184 -1.0597 -0.3068 -0.8342
 7338TIP3    H143505   6.522   2.189  13.161 -0.5552 -0.5006  1.1898
 7338TIP3    H243506   6.379   2.148  13.186 -0.6045 -0.6411  0.6810
 7339TIP3   OH243507   1.701   4.585   2.509  0.8716  0.0310  0.5488
 7339TIP3    H143508   1.689   4.503   2.556 -1.2495 -0.3985 -0.6249
 7339TIP3    H243509   1.705   4.560   2.417 -0.9011  1.2572  0.0723
 7340TIP3   OH243510   6.232   2.045  13.087 -0.2025  0.2438  0.8584
 7340TIP3    H143511   6.199   2.017  13.002  0.0271  0.2034  0.7826
 7340TIP3    H243512   6.235   1.965  13.140  0.4226  0.1292  0.6525
 7341TIP3   OH243513   3.735   6.214   6.780 -0.3424  0.1546  0.6170
 7341TIP3    H143514   3.675   6.145   6.809 -0.2082  1.5185  4.7369
 7341TIP3    H243515   3.812   6.204   6.836  1.9405  0.5978 -2.1936
 7342TIP3   OH243516   2.228   2.404   4.437  0.2065  0.4140  0.1506
 7342TIP3    H143517   2.148   2.352   4.444  1.4934 -1.7388 -0.0604
 7342TIP3    H243518   2.219   2.453   4.355 -0.6293 -0.2902 -0.1851
 7343TIP3   OH243519   4.942   6.819  13.289 -0.4104 -0.4415 -0.2429
 7343TIP3    H143520   4.962   6.911  13.270 -0.1095 -0.5948 -0.6869
 7343TIP3    H243521   4.953   6.811  13.383 -0.4127 -0.0262 -0.2063
 7344TIP3   OH243522   1.953   3.359  13.069  0.3334 -0.4374 -0.4929
 7344TIP3    H143523   1.987   3.272  13.091  0.7299 -0.2427 -0.3321
 7344TIP3    H243524   2.029   3.417  13.077 -0.6129  0.5712  2.9716
 7345TIP3   OH243525   3.951   5.028  12.812  0.1271 -0.9176 -0.0805
 7345TIP3    H143526   3.933   5.110  12.767  1.5592  0.9011  2.4103
 7345TIP3    H243527   3.867   5.003  12.851 -0.3220 -0.6536 -0.8670
 7346TIP3   OH243528   6.352   0.579   4.323 -0.4424  0.6637 -0.4483
 7346TIP3    H143529   6.331   0.580   4.229 -0.9135 -0.1568 -0.3517
 7346TIP3    H243530   6.412   0.653   4.334  0.3373  0.2361 -1.5699
 7347TIP3   OH243531   1.698   0.373  12.981 -0.1048  0.5882  0.0600
 7347TIP3    H143532   1.711   0.458  13.022 -1.6521  0.4090  1.0051
 7347TIP3    H243533   1.763   0.316  13.023 -0.3475  0.8667  0.8261
 7348TIP3   OH243534   5.312   0.450  15.926 -0.1957  0.2665  0.4505
 7348TIP3    H143535   5.359   0.392  15.866  0.9549 -1.6210  2.9957
 7348TIP3    H243536   5.346   0.537  15.908  1.1296 -0.4569 -0.6846
 7349TIP3   OH243537   4.879   5.086  16.221 -0.0362  0.2853  0.1624
 7349TIP3    H143538   4.842   4.998  16.211 -1.2948  0.9721 -1.5975
 7349TIP3    H243539   4.807   5.145  16.199  1.1326  1.7486  0.1451
 7350TIP3   OH243540   6.453   2.132   5.187  0.4868  0.2568 -0.4258
 7350TIP3    H143541   6.409   2.163   5.108 -1.1736 -2.0907 -0.5261
 7350TIP3    H243542   6.511   2.203   5.212 -1.5540  2.5272 -1.7400
 7351TIP3   OH243543   0.239   2.007  16.304 -0.3431  0.5788 -0.3162
 7351TIP3    H143544   0.166   2.050  16.347 -1.3998 -1.0568 -0.3732
 7351TIP3    H243545   0.205   1.921  16.280  1.2649  0.1882 -1.3574
 7352TIP3   OH243546   4.253   6.033   4.554 -0.1644  0.4343 -0.1023
 7352TIP3    H143547   4.206   5.958   4.591 -0.2802  1.2962  1.6292
 7352TIP3    H243548   4.201   6.058   4.478 -1.3139  0.0422  0.5287
 7353TIP3   OH243549   2.048   0.081  16.379 -0.3838  0.0568 -0.0817
 7353TIP3    H143550   2.014   0.090  16.468 -0.1076 -0.7012  0.1094
 7353TIP3    H243551   2.074  -0.010  16.373  1.3409  0.5251 -0.3107
 7354TIP3   OH243552   3.468   5.305   3.684  0.5968 -0.6344  0.3462
 7354TIP3    H143553   3.563   5.306   3.693  0.9543  2.4202 -2.0892
 7354TIP3    H243554   3.437   5.380   3.735 -0.3523 -0.7833  0.0221
 7355TIP3   OH243555   4.638   1.708  13.316  0.2848 -0.3560 -0.5898
 7355TIP3    H143556   4.625   1.781  13.377 -0.6918 -1.7553  0.9433
 7355TIP3    H243557   4.729   1.681  13.330 -0.4610 -1.9144  1.7837
 7356TIP3   OH243558   1.039   4.467   2.841 -0.0251  0.5271 -0.2154
 7356TIP3    H143559   1.045   4.404   2.769  1.2425 -0.1499  0.4327
 7356TIP3    H243560   1.061   4.551   2.801  1.6016  0.0157 -0.4688
 7357TIP3   OH243561   5.233   3.740  16.198  0.4103 -0.3545  0.2535
 7357TIP3    H143562   5.289   3.785  16.135  0.2881 -0.6185 -0.0465
 7357TIP3    H243563   5.147   3.779  16.186 -0.0785 -1.7654 -1.1543
 7358TIP3   OH243564   0.693   6.094  15.581  0.3614  0.4398 -0.2224
 7358TIP3    H143565   0.774   6.055  15.615 -0.3806 -2.4024 -1.4323
 7358TIP3    H243566   0.626   6.027  15.595 -1.2639  1.7071 -1.5127
 7359TIP3   OH243567   1.323   4.966   2.717  0.9885  0.0366 -0.4123
 7359TIP3    H143568   1.257   4.921   2.664  1.7229 -2.8694  0.9300
 7359TIP3    H243569   1.303   4.940   2.807  1.9550  1.8769  0.3946
 7360TIP3   OH243570   2.358   0.918   1.941  0.3444  0.1724  0.2464
 7360TIP3    H143571   2.380   0.825   1.934 -0.6572  0.0050 -1.0102
 7360TIP3    H243572   2.373   0.953   1.854  0.2918  1.0950  0.6045
 7361TIP3   OH243573   6.295   3.309  10.485  0.9580 -0.3821  0.1400
 7361TIP3    H143574   6.338   3.258  10.416  0.1618 -0.0749 -0.6095
 7361TIP3    H243575   6.219   3.256  10.510  0.5710  0.0503 -0.0858
 7362TIP3   OH243576   2.855   3.825  13.794  0.1367  0.0093  0.3138
 7362TIP3    H143577   2.828   3.880  13.868 -0.0762 -1.5141  1.4092
 7362TIP3    H243578   2.895   3.886  13.732  0.0404  1.3663  1.5407
 7363TIP3   OH243579   1.190   0.282  12.983  0.2396  0.1491  0.4486
 7363TIP3    H143580   1.219   0.250  13.068  1.6585  1.4250  0.4762
 7363TIP3    H243581   1.099   0.253  12.977  0.1810 -0.1793  2.2770
 7364TIP3   OH243582   3.059   5.817   2.071  0.5578  0.0649  0.2239
 7364TIP3    H143583   2.986   5.826   2.131 -0.0612 -1.3996 -0.2526
 7364TIP3    H243584   3.127   5.874   2.106 -1.5431  3.3036 -0.5549
 7365TIP3   OH243585   3.915   1.687  16.403 -0.0086 -0.3373  0.2857
 7365TIP3    H143586   3.846   1.749  16.379 -0.2396 -0.2685  1.0918
 7365TIP3    H243587   3.996   1.737  16.397 -0.2053  0.1043  1.0666
 7366TIP3   OH243588   5.885   0.252  12.589  0.6052  0.1769 -0.0417
 7366TIP3    H143589   5.883   0.234  12.495 -0.4135 -0.3158  0.0656
 7366TIP3    H243590   5.813   0.313  12.604  0.9550  0.4945  0.3770
 7367TIP3   OH243591   1.773   5.602   4.484  0.7001  0.2125  0.4284
 7367TIP3    H143592   1.718   5.662   4.534  0.3374 -0.5170  0.9248
 7367TIP3    H243593   1.862   5.621   4.514  0.5048 -0.0680  1.2048
 7368TIP3   OH243594   4.300   5.020   4.446  0.0761  0.6984 -0.5365
 7368TIP3    H143595   4.280   4.960   4.373  1.1240 -0.1017 -0.2010
 7368TIP3    H243596   4.237   4.996   4.514  0.5939 -0.1747 -0.3406
 7369TIP3   OH243597   3.229   2.341   2.444 -0.1829  0.0280 -0.3028
 7369TIP3    H143598   3.308   2.298   2.411 -0.1511 -1.1056  1.1137
 7369TIP3    H243599   3.161   2.275   2.437  0.0207 -0.6621  2.5924
 7370TIP3   OH243600   5.766   6.245  15.126 -0.0589 -0.7809  0.0158
 7370TIP3    H143601   5.713   6.169  15.151 -1.2101  0.6741  2.2898
 7370TIP3    H243602   5.729   6.273  15.042 -2.4940 -0.2713  1.1725
 7371TIP3   OH243603   0.653   0.352  16.728 -0.0207 -0.1574  0.2467
 7371TIP3    H143604   0.585   0.320  16.670 -0.9971  1.2108  0.5775
 7371TIP3    H243605   0.716   0.395  16.671 -0.4540  0.2932  0.1053
 7372TIP3   OH243606   0.583   4.247  15.820 -0.6179 -0.1280 -0.2850
 7372TIP3    H143607   0.667   4.293  15.830 -0.7933  0.1280  0.0020
 7372TIP3    H243608   0.521   4.315  15.793 -0.7289 -0.3223 -0.5219
 7373TIP3   OH243609   6.394   4.967   0.758  0.2619  0.4277  0.1336
 7373TIP3    H143610   6.485   4.994   0.752  0.0003  1.4866  0.7991
 7373TIP3    H243611   6.372   4.973   0.851 -0.5249  0.2942 -0.0292
 7374TIP3   OH243612   0.884   4.265   1.206  0.7011 -0.0999  0.2067
 7374TIP3    H143613   0.883   4.278   1.301  1.6385  0.8880  0.0994
 7374TIP3    H243614   0.966   4.305   1.177  0.7509 -0.9919 -0.9472
 7375TIP3   OH243615   6.094   4.082  15.909  0.0118 -0.1719  0.0425
 7375TIP3    H143616   6.162   4.124  15.963  0.0910 -1.6813  1.1739
 7375TIP3    H243617   6.135   4.002  15.876 -1.0516 -0.8748  0.3672
 7376TIP3   OH243618   5.021   2.011  14.346  0.0027  0.2826 -0.1694
 7376TIP3    H143619   4.998   2.002  14.438 -2.4530 -0.1560 -0.7704
 7376TIP3    H243620   4.965   1.948  14.300  2.0850 -0.4770 -1.8867
 7377TIP3   OH243621   1.572   5.689  12.378  0.0664  0.1816 -0.2294
 7377TIP3    H143622   1.543   5.602  12.404 -0.4821  0.3003 -0.4373
 7377TIP3    H243623   1.502   5.748  12.408  0.5880  0.5934  0.2198
 7378TIP3   OH243624   4.728   5.298  11.700  0.4478 -0.1674 -0.3850
 7378TIP3    H143625   4.747   5.388  11.727 -1.1282  0.4623 -1.2353
 7378TIP3    H243626   4.678   5.308  11.619  2.4311 -1.8828 -1.9256
 7379TIP3   OH243627   3.028   1.464  12.180 -0.8641 -0.1953 -0.0754
 7379TIP3    H143628   3.093   1.406  12.222 -1.1681  0.4440  1.3449
 7379TIP3    H243629   3.079   1.538  12.148 -0.8704  0.4227  1.2512
 7380TIP3   OH243630   1.463   2.896  14.777 -0.1133 -0.5129  0.2032
 7380TIP3    H143631   1.516   2.838  14.832  0.1650 -0.4050  0.0473
 7380TIP3    H243632   1.437   2.841  14.703  0.0516 -0.4729  0.1157
 7381TIP3   OH243633   5.993   1.487  14.879 -0.3837 -0.5226  0.1761
 7381TIP3    H143634   5.907   1.474  14.919 -1.0760  0.9628 -0.7741
 7381TIP3    H243635   5.997   1.422  14.809 -1.3544  0.3366 -0.7065
 7382TIP3   OH243636   0.791   3.257   4.898 -0.1802  0.4829 -0.4548
 7382TIP3    H143637   0.876   3.291   4.927  0.1137  0.0554 -0.8102
 7382TIP3    H243638   0.782   3.287   4.808 -0.1913  0.1213 -0.5749
 7383TIP3   OH243639   4.204   2.998  16.875 -0.0716  0.4245 -0.3347
 7383TIP3    H143640   4.265   2.928  16.899 -0.1044  0.2293 -0.8150
 7383TIP3    H243641   4.159   2.965  16.797 -2.6456 -0.5687  1.4321
 7384TIP3   OH243642   1.488   6.402  17.106  0.0861  0.1285 -0.4817
 7384TIP3    H143643   1.428   6.476  17.113 -0.4040 -0.2084 -1.0701
 7384TIP3    H243644   1.568   6.439  17.071 -0.3412  0.2956 -1.3011
 7385TIP3   OH243645   0.071   2.608  11.180 -0.3706  0.3083  0.1828
 7385TIP3    H143646   0.140   2.574  11.236 -0.7461 -0.5159  0.1583
 7385TIP3    H243647  -0.005   2.553  11.199 -0.3344 -0.4103 -1.5934
 7386TIP3   OH243648   3.799   4.850  13.947  0.4787  0.0643 -0.2083
 7386TIP3    H143649   3.813   4.822  13.856  2.8431  1.8234 -0.4511
 7386TIP3    H243650   3.729   4.915  13.941  0.2573 -0.2106 -0.6877
 7387TIP3   OH243651   0.802   1.420  13.028 -0.4216  0.4377  0.2944
 7387TIP3    H143652   0.762   1.435  12.943  2.7914 -0.0100 -1.4282
 7387TIP3    H243653   0.858   1.496  13.043  1.2176 -0.7673  0.6171
 7388TIP3   OH243654   0.956   1.818   1.086 -0.0622 -0.1139 -0.1401
 7388TIP3    H143655   0.928   1.797   1.175  1.4930 -3.2133 -0.2481
 7388TIP3    H243656   0.903   1.761   1.029 -0.9969  1.7761 -1.2883
 7389TIP3   OH243657   4.913   3.337   0.823 -0.3899 -0.4389 -0.0699
 7389TIP3    H143658   4.969   3.389   0.765  0.7588 -0.1141  1.2580
 7389TIP3    H243659   4.825   3.369   0.807  0.3113  2.4855  1.1383
 7390TIP3   OH243660   4.100   0.634   4.537  0.0770  0.6244  0.2259
 7390TIP3    H143661   4.008   0.644   4.561 -0.4657 -2.0260 -0.4506
 7390TIP3    H243662   4.138   0.584   4.609  0.7579  0.8447  0.0292
 7391TIP3   OH243663   1.890   6.049  14.428  0.4652 -0.4285  0.0466
 7391TIP3    H143664   1.823   6.097  14.380 -0.1330  0.0924  1.3427
 7391TIP3    H243665   1.914   6.107  14.500  0.6381 -1.5602  0.9336
 7392TIP3   OH243666   1.949   4.701  15.206  0.6419 -0.0614  0.4838
 7392TIP3    H143667   1.882   4.633  15.198  1.6099 -0.8593 -1.6761
 7392TIP3    H243668   1.981   4.693  15.295 -1.9711  0.2329  1.5294
 7393TIP3   OH243669   3.422   6.045   0.902  0.0714 -0.0187 -0.3677
 7393TIP3    H143670   3.446   6.051   0.810  2.7092  3.9277  0.3108
 7393TIP3    H243671   3.501   6.013   0.945  0.6515  2.8066  0.8836
 7394TIP3   OH243672   1.021   6.457   3.442 -0.2480 -0.5977 -0.7813
 7394TIP3    H143673   1.069   6.384   3.481 -1.2837 -0.6894  0.4021
 7394TIP3    H243674   1.030   6.528   3.506 -0.0803 -0.0034 -1.4548
 7395TIP3   OH243675   0.454   0.430   3.765 -0.3721  0.1180 -0.9186
 7395TIP3    H143676   0.446   0.502   3.702 -1.8203  0.1930 -0.6909
 7395TIP3    H243677   0.366   0.392   3.769  0.1219 -0.9974 -0.2455
 7396TIP3   OH243678   3.926   1.486  11.525 -0.5156 -0.0119  0.6221
 7396TIP3    H143679   3.955   1.399  11.500  0.3481  0.2564  0.6669
 7396TIP3    H243680   3.853   1.471  11.586 -0.6610 -0.6879  0.2827
 7397TIP3   OH243681   1.921   1.348  12.968  0.0671  0.3860 -0.4036
 7397TIP3    H143682   1.850   1.386  12.917  0.1654  0.9984 -0.0930
 7397TIP3    H243683   1.878   1.304  13.041 -0.0287  0.2041 -0.5698
 7398TIP3   OH243684   4.842   1.065   0.923 -0.1308 -0.2747 -0.3837
 7398TIP3    H143685   4.909   1.124   0.957 -0.3951 -0.0799 -0.1928
 7398TIP3    H243686   4.847   1.074   0.828 -1.6475  1.7484 -0.3301
 7399TIP3   OH243687   4.427   6.454  17.011 -0.2507  0.2403 -0.0583
 7399TIP3    H143688   4.496   6.488  17.068 -0.1091  1.7640 -1.0808
 7399TIP3    H243689   4.360   6.423  17.071  0.2825  0.9612  0.9474
 7400TIP3   OH243690   2.569   1.601  17.266 -0.0409 -0.2859 -0.3185
 7400TIP3    H143691   2.651   1.574  17.224  0.7223  0.0398  0.9038
 7400TIP3    H243692   2.560   1.543  17.341 -0.1024  0.6928  0.4523
 7401TIP3   OH243693   5.885   0.146  11.136 -0.4904 -0.6487 -0.0365
 7401TIP3    H143694   5.928   0.125  11.219  0.3729 -0.8129 -0.5168
 7401TIP3    H243695   5.883   0.063  11.088  0.7669 -0.1794 -0.9572
 7402TIP3   OH243696   1.735   0.813  16.652  0.1226 -0.6842 -0.8780
 7402TIP3    H143697   1.755   0.901  16.619 -0.8256 -1.0626 -2.6117
 7402TIP3    H243698   1.698   0.827  16.739  1.3090  0.5073 -0.5324
 7403TIP3   OH243699   6.368   5.527   2.087  0.4543 -0.0451  0.5638
 7403TIP3    H143700   6.388   5.521   2.181  1.6203  2.4078  0.5658
 7403TIP3    H243701   6.330   5.615   2.078  0.8749 -0.0408 -1.3581
 7404TIP3   OH243702   4.444   5.013  16.000  0.1369  0.0823 -0.1881
 7404TIP3    H143703   4.381   5.040  16.067  1.5664 -0.5219  1.4431
 7404TIP3    H243704   4.501   5.089  15.988  0.9476 -0.3847  0.5867
 7405TIP3   OH243705   1.794   3.826  11.988 -0.4415 -0.1283  0.4433
 7405TIP3    H143706   1.805   3.889  11.917 -0.7401  0.0684  0.5666
 7405TIP3    H243707   1.811   3.741  11.948  1.1654  0.1234  0.5587
 7406TIP3   OH243708   2.103   0.486   5.293  0.3453  0.0820 -0.0098
 7406TIP3    H143709   2.102   0.392   5.311  0.1550 -0.5377 -2.8869
 7406TIP3    H243710   2.018   0.504   5.253  1.3034  0.9256 -1.7857
 7407TIP3   OH243711   3.001   3.172  11.685 -0.6231  0.4823 -0.2526
 7407TIP3    H143712   2.995   3.268  11.690 -0.4411  0.5127 -0.5530
 7407TIP3    H243713   2.920   3.145  11.642 -0.2555  0.5875 -1.0381
 7408TIP3   OH243714   6.679   6.209   2.262  0.1146 -0.6504 -0.3935
 7408TIP3    H143715   6.731   6.255   2.197  0.9502  0.2300  0.8521
 7408TIP3    H243716   6.742   6.181   2.328 -1.1436  4.1608  3.4625
 7409TIP3   OH243717   5.556   5.000   5.627 -0.5168  0.3856  0.6885
 7409TIP3    H143718   5.470   5.041   5.630 -0.6467  0.2187 -0.3987
 7409TIP3    H243719   5.544   4.915   5.670 -1.4304 -0.5197 -1.2368
 7410TIP3   OH243720   3.396   1.983   6.279 -0.3660 -0.4453 -0.3460
 7410TIP3    H143721   3.354   1.901   6.305 -1.5555  0.0531 -0.6247
 7410TIP3    H243722   3.462   1.957   6.215  0.4222 -1.3501  0.8150
 7411TIP3   OH243723   4.759   3.444  16.734  0.1550 -0.3907 -0.0256
 7411TIP3    H143724   4.768   3.485  16.648 -1.4863 -0.1902 -0.1270
 7411TIP3    H243725   4.725   3.356  16.715  2.0616 -1.2533  0.2979
 7412TIP3   OH243726   2.157   3.522  12.941  0.3376 -0.3125  0.1990
 7412TIP3    H143727   2.230   3.578  12.965  0.4122  0.2143 -1.1884
 7412TIP3    H243728   2.198   3.438  12.919  0.4990 -0.1276 -0.2214
 7413TIP3   OH243729   1.399   6.630   5.263  0.2756 -0.1562  0.0970
 7413TIP3    H143730   1.427   6.655   5.175 -0.0228  0.3156  0.1352
 7413TIP3    H243731   1.305   6.648   5.265  0.7208  2.4483  1.3784
 7414TIP3   OH243732   3.752   1.157  11.209  0.3478 -0.0509 -0.1493
 7414TIP3    H143733   3.667   1.180  11.170  0.6792  0.4700 -0.5823
 7414TIP3    H243734   3.748   1.063  11.222 -1.1421  0.1981  1.8347
 7415TIP3   OH243735   0.970   0.353   1.944 -0.4299 -0.2068 -0.1934
 7415TIP3    H143736   1.021   0.317   2.017 -1.0680 -1.1225 -0.1807
 7415TIP3    H243737   1.034   0.402   1.892  0.5803 -1.7183 -0.4397
 7416TIP3   OH243738   2.152   1.744  11.092  0.2207  0.4906  0.0870
 7416TIP3    H143739   2.159   1.753  10.997 -0.8644 -1.1057 -0.1745
 7416TIP3    H243740   2.058   1.753  11.110  0.3258  0.0158  0.9154
 7417TIP3   OH243741   0.918   2.721   0.957  0.0238 -0.3267 -0.7087
 7417TIP3    H143742   0.846   2.754   1.011  0.5910 -1.1665  0.6041
 7417TIP3    H243743   0.896   2.749   0.868 -0.8754  1.1882 -0.0384
 7418TIP3   OH243744   2.237   5.261   5.304  0.4427 -0.4211  0.5916
 7418TIP3    H143745   2.144   5.246   5.321  0.4879  0.2045  1.4290
 7418TIP3    H243746   2.274   5.173   5.296 -0.0375 -0.6987  1.2934
 7419TIP3   OH243747   1.672   5.604   2.519  0.4788 -0.3973 -0.6619
 7419TIP3    H143748   1.594   5.592   2.464 -1.7142 -0.1556  2.1782
 7419TIP3    H243749   1.698   5.516   2.544 -0.4946 -0.4208  0.3781
 7420TIP3   OH243750   0.874   1.841   6.291 -0.4786 -0.7865  0.6297
 7420TIP3    H143751   0.827   1.796   6.361 -0.0420  0.1269  1.5382
 7420TIP3    H243752   0.964   1.812   6.298 -0.0663  0.6015  1.6026
 7421TIP3   OH243753   2.250   1.750   2.643 -0.2156 -0.0738 -0.9394
 7421TIP3    H143754   2.197   1.766   2.721  0.9980 -0.5520  0.0180
 7421TIP3    H243755   2.314   1.820   2.642  1.2718 -1.3490 -0.1339
 7422TIP3   OH243756   4.097   4.923   4.991  0.2057 -0.2299 -0.2409
 7422TIP3    H143757   4.019   4.868   4.992  0.1713 -0.1761  0.2976
 7422TIP3    H243758   4.063   5.012   4.994  0.2527 -0.1607 -1.3762
 7423TIP3   OH243759   6.401   2.348  16.907  0.7274  0.0550 -0.3995
 7423TIP3    H143760   6.309   2.340  16.881  0.8411  1.1314 -1.2154
 7423TIP3    H243761   6.406   2.307  16.993 -0.6329  0.4692 -0.0993
 7424TIP3   OH243762   3.836   4.773   1.095  0.1224  0.3335  0.2209
 7424TIP3    H143763   3.797   4.781   1.182 -0.5993 -1.1468  0.0639
 7424TIP3    H243764   3.828   4.680   1.073 -0.7891  0.8403 -1.9265
 7425TIP3   OH243765   0.504   4.640   4.173 -0.0972  0.3752  0.0146
 7425TIP3    H143766   0.579   4.650   4.114  0.8179  1.1494  1.2783
 7425TIP3    H243767   0.501   4.721   4.223 -0.3072 -0.6062  1.6657
 7426TIP3   OH243768   1.758   5.107   6.132 -0.3643 -0.5800  0.4562
 7426TIP3    H143769   1.744   5.116   6.226  0.8768 -1.7040  0.7896
 7426TIP3    H243770   1.786   5.016   6.121  1.1509 -0.0121 -0.7692
 7427TIP3   OH243771   4.193   3.985   5.495 -0.3437  0.1416  0.0294
 7427TIP3    H143772   4.154   4.063   5.456  1.0275  0.1427 -1.4595
 7427TIP3    H243773   4.277   4.014   5.529  0.2803 -0.7075 -0.7324
 7428TIP3   OH243774   4.088   6.026   0.705  0.2197 -0.1436 -0.2284
 7428TIP3    H143775   4.159   6.090   0.706  0.4803 -0.4320 -0.0457
 7428TIP3    H243776   4.017   6.069   0.752  0.6892 -0.3148  0.6650
 7429TIP3   OH243777   3.939   0.970  12.028 -0.1344 -0.1761  0.0420
 7429TIP3    H143778   3.993   0.935  11.957 -0.3218 -1.1192  0.3447
 7429TIP3    H243779   3.919   1.060  12.002  0.4188 -0.2727 -0.7345
 7430TIP3   OH243780   3.096   6.052   4.380  0.2430 -0.2468 -0.0627
 7430TIP3    H143781   3.169   5.993   4.359  0.8019  1.3387 -3.2180
 7430TIP3    H243782   3.027   6.028   4.318 -0.4676  0.7500  0.3196
 7431TIP3   OH243783   2.603   2.909  12.363 -0.9316 -0.1850 -0.3756
 7431TIP3    H143784   2.643   2.989  12.328  0.9695 -0.0105  1.9443
 7431TIP3    H243785   2.651   2.838  12.321  0.0455 -0.0064  0.3953
 7432TIP3   OH243786   5.072   4.351   2.173  0.2706  0.2133  0.0783
 7432TIP3    H143787   5.142   4.286   2.181 -0.7061 -1.0125 -0.9472
 7432TIP3    H243788   4.997   4.310   2.217 -0.3325  0.6655 -0.5171
 7433TIP3   OH243789   5.212   0.291  12.847  0.4352 -0.8241 -0.4072
 7433TIP3    H143790   5.301   0.282  12.815  0.5497  0.1511 -0.3908
 7433TIP3    H243791   5.174   0.361  12.794 -0.2664 -1.1127 -0.2987
 7434TIP3   OH243792   4.877   2.475  15.236  0.4506  0.6311  0.0556
 7434TIP3    H143793   4.820   2.421  15.182 -1.0070  1.8873  0.2735
 7434TIP3    H243794   4.870   2.438  15.324  1.3289 -0.2401 -0.2187
 7435TIP3   OH243795   2.698   2.767  12.880  0.1148 -0.3148 -0.1807
 7435TIP3    H143796   2.728   2.761  12.789  2.3425  1.1269  0.3839
 7435TIP3    H243797   2.692   2.676  12.909 -0.9012 -0.8258 -1.8080
 7436TIP3   OH243798   1.575   6.608   4.038 -0.4032 -0.0813 -0.1546
 7436TIP3    H143799   1.497   6.623   3.985  0.2105  1.6183 -0.6641
 7436TIP3    H243800   1.646   6.647   3.987  0.3543  0.8060  1.4849
 7437TIP3   OH243801   2.077   2.545  11.961 -0.0605 -0.7374  0.2232
 7437TIP3    H143802   2.020   2.471  11.983  0.0086 -0.8361  0.0705
 7437TIP3    H243803   2.023   2.602  11.906  0.1401 -1.0678 -0.3212
 7438TIP3   OH243804   2.133   3.000  10.352  0.1509  0.2157 -0.3686
 7438TIP3    H143805   2.202   3.051  10.309  1.0523  1.5401  2.4383
 7438TIP3    H243806   2.061   3.061  10.363 -1.5669 -1.1077 -3.1075
 7439TIP3   OH243807   1.140   5.237  11.073  0.4479  0.0690  0.0555
 7439TIP3    H143808   1.101   5.265  10.990 -2.4700  0.2233  1.3372
 7439TIP3    H243809   1.155   5.318  11.122 -1.5322 -0.1384  1.1089
 7440TIP3   OH243810   4.331   2.448  12.191 -0.5413 -0.7121 -0.5692
 7440TIP3    H143811   4.334   2.433  12.097 -1.7078  1.1500 -0.9562
 7440TIP3    H243812   4.245   2.416  12.218 -0.5625 -0.4444 -0.3061
 7441TIP3   OH243813   0.363   5.210  13.994  0.0526 -0.2699  0.2894
 7441TIP3    H143814   0.338   5.303  13.995 -1.4425 -0.6419  1.0620
 7441TIP3    H243815   0.420   5.200  14.070  1.1311  0.2148 -0.4271
 7442TIP3   OH243816   0.622   2.975   6.539 -0.2422  0.0918  0.5165
 7442TIP3    H143817   0.592   2.885   6.528  0.2340 -0.5173  3.3166
 7442TIP3    H243818   0.718   2.967   6.544  0.1644  1.3064 -2.7714
 7443TIP3   OH243819   4.344   3.820   2.721 -0.4962  0.3138  0.1275
 7443TIP3    H143820   4.275   3.821   2.656 -0.3005  1.8368 -0.0796
 7443TIP3    H243821   4.336   3.904   2.767 -0.1236 -0.3796  1.5379
 7444TIP3   OH243822   3.543   4.256  12.904 -0.5024 -0.0111 -0.2452
 7444TIP3    H143823   3.558   4.194  12.976  2.3168  1.7789  0.8427
 7444TIP3    H243824   3.571   4.341  12.938  0.8185  0.9598 -3.3737
 7445TIP3   OH243825   2.258   5.755  11.491  0.0794 -0.2471  0.4707
 7445TIP3    H143826   2.299   5.788  11.411  2.3657 -0.3251  1.5317
 7445TIP3    H243827   2.182   5.811  11.504  2.1025  2.6930  0.5565
 7446TIP3   OH243828   5.281   0.401  12.305  0.0597  0.5021 -0.2897
 7446TIP3    H143829   5.319   0.319  12.275 -0.1218  0.4194 -0.2945
 7446TIP3    H243830   5.357   0.455  12.330  0.1347 -0.1689  1.0098
 7447TIP3   OH243831   5.027   1.461   2.744 -0.1588 -0.0964 -0.7126
 7447TIP3    H143832   4.964   1.503   2.802 -0.4306  0.2090 -1.2176
 7447TIP3    H243833   5.032   1.519   2.668  0.2696 -0.4331 -0.9474
 7448TIP3   OH243834   2.566   5.806   3.260  0.1422  0.2809  0.0488
 7448TIP3    H143835   2.602   5.888   3.292 -0.7700  0.8975 -0.4644
 7448TIP3    H243836   2.542   5.824   3.169  2.1092 -1.2416 -0.8322
 7449TIP3   OH243837   5.077   3.778  15.316  0.2274 -0.2077  0.7915
 7449TIP3    H143838   5.011   3.744  15.377 -2.0385 -0.7517 -1.7547
 7449TIP3    H243839   5.029   3.794  15.235  3.1245  0.0944 -1.0197
 7450TIP3   OH243840   5.249   4.829  16.532  0.2514 -0.2272  0.0030
 7450TIP3    H143841   5.326   4.874  16.497 -0.1128  0.8819  0.5835
 7450TIP3    H243842   5.195   4.810  16.456  1.5278 -1.9316 -0.5541
 7451TIP3   OH243843   6.694   2.273  14.871 -0.1781  0.0181  0.5388
 7451TIP3    H143844   6.628   2.205  14.883 -0.2610 -0.0089 -0.0172
 7451TIP3    H243845   6.711   2.306  14.959  1.7418 -2.4586  1.1793
 7452TIP3   OH243846   0.785   6.106   6.142  0.0775  0.2994 -0.2152
 7452TIP3    H143847   0.707   6.149   6.177  2.3339  3.8648  0.9624
 7452TIP3    H243848   0.777   6.113   6.047 -1.7673 -1.0001 -0.2044
 7453TIP3   OH243849   1.195   5.935   2.935  0.0397  0.2496 -0.0159
 7453TIP3    H143850   1.184   5.923   2.840 -0.6845  0.0624  0.0835
 7453TIP3    H243851   1.116   5.896   2.973 -0.3666  1.6023  0.5726
 7454TIP3   OH243852   6.615   0.435   5.662  0.3992 -0.5831 -0.0265
 7454TIP3    H143853   6.635   0.347   5.693  1.8449  0.1853  1.3952
 7454TIP3    H243854   6.535   0.459   5.708 -0.6895 -1.5775 -1.3513
 7455TIP3   OH243855   4.301   4.165  14.327 -0.0969  0.1356  0.3856
 7455TIP3    H143856   4.311   4.070  14.333 -1.4134 -0.1389 -1.0698
 7455TIP3    H243857   4.305   4.184  14.233  4.2255  2.0687  0.7417
 7456TIP3   OH243858   5.533   1.887  15.742 -0.0625 -0.1539  0.2712
 7456TIP3    H143859   5.595   1.928  15.683 -1.2450  0.6437 -0.4625
 7456TIP3    H243860   5.537   1.794  15.721  0.5345 -0.0449 -0.0922
 7457TIP3   OH243861   6.452   2.736   3.825 -0.3497  0.1488 -0.4100
 7457TIP3    H143862   6.430   2.825   3.799  0.6282  0.5713  0.1537
 7457TIP3    H243863   6.465   2.689   3.742 -0.7040  0.5687 -0.7053
 7458TIP3   OH243864   3.173   0.291  16.165 -0.0080 -0.0221  0.1217
 7458TIP3    H143865   3.212   0.255  16.244  0.8870 -2.3166 -1.2390
 7458TIP3    H243866   3.192   0.385  16.168  1.0491 -0.2599  2.0189
 7459TIP3   OH243867   3.473   6.681  14.981 -0.8103 -0.1431 -0.0158
 7459TIP3    H143868   3.385   6.645  14.970 -0.2550 -2.4090  2.1047
 7459TIP3    H243869   3.493   6.722  14.897 -4.3532  1.7006 -0.1630
 7460TIP3   OH243870   5.727   4.768   0.672  0.1623 -0.3661 -0.0841
 7460TIP3    H143871   5.703   4.827   0.601 -0.1160 -0.6927 -0.2667
 7460TIP3    H243872   5.794   4.815   0.722  1.5514 -0.7826 -1.4906
 7461TIP3   OH243873   5.056   6.410   2.965 -0.6208 -0.0047 -0.3667
 7461TIP3    H143874   4.999   6.440   2.895  0.0155 -0.0181 -0.8990
 7461TIP3    H243875   4.999   6.401   3.041 -1.5554 -1.1863 -1.1866
 7462TIP3   OH243876   6.759   5.213  14.243  0.4235  0.6445  0.7734
 7462TIP3    H143877   6.768   5.153  14.318  0.9870  0.3031  0.4349
 7462TIP3    H243878   6.675   5.258  14.259  0.9199  1.1712  2.0397
 7463TIP3   OH243879   2.562   4.941   6.022 -0.0053 -0.6351  0.3257
 7463TIP3    H143880   2.606   5.026   6.017 -0.7762 -0.1685  1.1606
 7463TIP3    H243881   2.604   4.888   5.954  1.7862 -0.1898  1.0361
 7464TIP3   OH243882   6.110   4.370  15.584 -0.5278  0.1153  0.6739
 7464TIP3    H143883   6.201   4.348  15.602 -0.1773  1.7624  1.0821
 7464TIP3    H243884   6.091   4.444  15.642 -1.4793  1.1173 -0.8465
 7465TIP3   OH243885   3.521   6.479   5.087 -0.5746 -0.1663 -0.7499
 7465TIP3    H143886   3.562   6.543   5.029 -0.4812 -0.5899 -1.1555
 7465TIP3    H243887   3.435   6.515   5.106 -0.3946  0.2451 -0.6961
 7466TIP3   OH243888   1.674   5.187  10.479  0.3455 -0.7491 -0.3673
 7466TIP3    H143889   1.763   5.210  10.452  0.1485 -1.0367 -1.2784
 7466TIP3    H243890   1.653   5.109  10.427 -0.6823 -0.3070 -0.6174
 7467TIP3   OH243891   2.185   0.991  15.697  0.1997 -0.0979 -0.0115
 7467TIP3    H143892   2.255   1.054  15.715  0.6152 -0.5952  0.1103
 7467TIP3    H243893   2.173   0.944  15.780  2.9332 -3.2284 -1.1899
 7468TIP3   OH243894   4.575   1.416  17.253  0.0373  0.2462  0.2874
 7468TIP3    H143895   4.520   1.473  17.201 -0.3905 -0.3602  0.0643
 7468TIP3    H243896   4.602   1.470  17.327  0.4204  1.0284 -0.4030
 7469TIP3   OH243897   0.355   2.069   5.763 -0.4625 -0.4003 -0.2575
 7469TIP3    H143898   0.377   2.057   5.855 -0.0448  2.0031  0.0241
 7469TIP3    H243899   0.263   2.043   5.755 -0.5346 -0.5000  0.8593
 7470TIP3   OH243900   2.527   4.958  15.827 -0.0048  0.5392  0.3303
 7470TIP3    H143901   2.454   4.948  15.766  0.5392  2.6328 -0.7900
 7470TIP3    H243902   2.486   4.994  15.906 -0.3217  0.8028  0.0542
 7471TIP3   OH243903   0.759   6.304   4.776  0.2219 -0.6859 -1.1773
 7471TIP3    H143904   0.725   6.373   4.832  3.3603  1.0393 -1.1777
 7471TIP3    H243905   0.727   6.223   4.815 -1.3576  0.6471  0.4283
 7472TIP3   OH243906   6.458   3.705   1.458  0.5689 -0.0315  0.4069
 7472TIP3    H143907   6.420   3.693   1.371 -1.6382 -0.3942  1.3551
 7472TIP3    H243908   6.536   3.757   1.443 -1.1558  2.2047 -1.5374
 7473TIP3   OH243909   1.297   4.169  15.851 -0.3180  0.2167 -0.7865
 7473TIP3    H143910   1.311   4.100  15.786 -0.9961 -0.9274  0.2266
 7473TIP3    H243911   1.240   4.128  15.917 -0.1269  1.5189  0.2247
 7474TIP3   OH243912   1.951   1.714   1.883  0.0028  0.2019  0.1493
 7474TIP3    H143913   1.924   1.793   1.836 -0.8186 -0.4170 -0.4410
 7474TIP3    H243914   1.892   1.709   1.958  1.3003  1.1785  1.3038
 7475TIP3   OH243915   6.818   2.067  12.901  0.5198 -0.6403 -0.0197
 7475TIP3    H143916   6.722   2.068  12.901  0.4148  0.2861  3.1657
 7475TIP3    H243917   6.842   2.104  12.816 -2.0257  1.7676  0.1497
 7476TIP3   OH243918   1.184   1.411   3.046 -0.7073  0.1372 -0.1553
 7476TIP3    H143919   1.104   1.376   3.086 -0.8835  0.4864 -0.1962
 7476TIP3    H243920   1.176   1.506   3.057 -0.0856  0.1486  0.2426
 7477TIP3   OH243921   6.674   4.809   1.511  0.1516 -0.1301  0.0764
 7477TIP3    H143922   6.639   4.894   1.536  0.6386  0.3537 -0.8670
 7477TIP3    H243923   6.601   4.765   1.467 -0.2767 -0.4421  1.0616
 7478TIP3   OH243924   3.503   4.206  17.095 -0.3812  0.5863  0.3146
 7478TIP3    H143925   3.448   4.181  17.169  1.7721 -3.2227  0.8915
 7478TIP3    H243926   3.490   4.136  17.030  3.4432 -0.4629  0.4288
 7479TIP3   OH243927   2.805   5.261  12.441 -0.7354  0.1807  0.1902
 7479TIP3    H143928   2.841   5.342  12.404 -1.6757  0.4807 -0.1038
 7479TIP3    H243929   2.878   5.199  12.438 -0.0379  0.9687  0.2855
 7480TIP3   OH243930   4.125   0.249  15.521 -0.7381 -0.0584 -0.1052
 7480TIP3    H143931   4.179   0.219  15.448  0.1370  1.7656 -0.2493
 7480TIP3    H243932   4.046   0.194  15.516  0.7415 -2.3128 -0.3144
 7481TIP3   OH243933   6.549   2.467  11.399 -0.3644 -0.0176  0.0410
 7481TIP3    H143934   6.537   2.375  11.418  0.7400 -0.5310 -1.4852
 7481TIP3    H243935   6.607   2.468  11.322 -0.4261  1.9324 -0.0357
 7482TIP3   OH243936   0.263   4.808  14.883  0.4122 -0.3711  0.0643
 7482TIP3    H143937   0.275   4.865  14.806 -0.3436 -0.4345 -0.1146
 7482TIP3    H243938   0.294   4.723  14.854  0.6364 -0.2691  0.0048
 7483TIP3   OH243939   3.039   2.737  12.142 -0.4586  0.1185  0.1298
 7483TIP3    H143940   3.040   2.832  12.157 -3.8273  0.1332  0.9648
 7483TIP3    H243941   3.041   2.699  12.229 -1.9115 -0.4498 -0.0633
 7484TIP3   OH243942   2.496   2.337   4.505  0.2016  0.4836 -0.7743
 7484TIP3    H143943   2.466   2.304   4.590 -1.1928 -0.0846 -1.4526
 7484TIP3    H243944   2.416   2.366   4.461  1.0059  1.5495 -1.5681
 7485TIP3   OH243945   5.943   1.140   1.299 -0.1695  0.0652  0.1724
 7485TIP3    H143946   5.859   1.097   1.317 -0.5294 -0.4730 -2.4132
 7485TIP3    H243947   6.008   1.071   1.310 -0.1685  0.2002  1.0799
 7486TIP3   OH243948   5.947   4.411   0.728 -0.1403 -0.3334  0.4866
 7486TIP3    H143949   6.011   4.439   0.793  0.8786 -0.5311 -0.3987
 7486TIP3    H243950   5.949   4.481   0.662 -1.3622  0.0070  0.7960
 7487TIP3   OH243951   0.509   6.227   4.297 -0.2643 -0.2593  0.3539
 7487TIP3    H143952   0.542   6.296   4.354 -0.5313  1.4757 -1.4544
 7487TIP3    H243953   0.432   6.192   4.343  0.0211  0.4829  1.4260
 7488TIP3   OH243954   3.479   0.080  17.247  0.2998 -0.0776  0.3912
 7488TIP3    H143955   3.531   0.000  17.256  2.3947  1.0240 -1.0929
 7488TIP3    H243956   3.395   0.051  17.211  1.2346 -1.5602 -0.6912
 7489TIP3   OH243957   0.076   5.578  16.680 -0.2662  0.3878 -0.3209
 7489TIP3    H143958   0.125   5.629  16.744 -2.1656  0.0057  1.5105
 7489TIP3    H243959   0.142   5.523  16.638  1.2073  1.5197  0.4256
 7490TIP3   OH243960   6.107   3.769  14.059  0.5776  0.0445  0.2990
 7490TIP3    H143961   6.068   3.798  14.141  0.0239  1.1386 -0.3351
 7490TIP3    H243962   6.200   3.756  14.080  0.2913 -0.5164  1.2881
 7491TIP3   OH243963   5.701   2.043  11.956  0.3836  0.1692 -0.3631
 7491TIP3    H143964   5.660   1.963  11.988  0.8585 -0.8279 -2.1105
 7491TIP3    H243965   5.696   2.036  11.861 -0.5499  2.7468 -0.6055
 7492TIP3   OH243966   1.902   1.908  11.823 -0.4974  0.4802  0.3483
 7492TIP3    H143967   1.921   1.819  11.794 -1.2282  0.3650  0.2077
 7492TIP3    H243968   1.829   1.937  11.768 -0.9490  0.7817  1.0797
 7493TIP3   OH243969   1.037   1.626  13.383  0.2293  0.1696 -0.4325
 7493TIP3    H143970   0.978   1.677  13.439  0.3956  0.2590 -0.3365
 7493TIP3    H243971   1.024   1.535  13.410  1.7538  0.3646  1.1694
 7494TIP3   OH243972   1.618   5.735  16.926  0.4828 -0.2763  0.1996
 7494TIP3    H143973   1.591   5.795  16.995  0.9129 -0.7543  0.7946
 7494TIP3    H243974   1.669   5.668  16.971 -0.9162 -1.7075 -0.2780
 7495TIP3   OH243975   0.358   0.621  17.055 -0.3646 -0.1557 -0.6656
 7495TIP3    H143976   0.388   0.659  17.138 -1.1208 -3.0077  1.0548
 7495TIP3    H243977   0.416   0.546  17.041 -1.2887 -0.6891 -1.8594
 7496TIP3   OH243978   0.435   2.008   2.864 -0.1061 -0.0152 -0.8446
 7496TIP3    H143979   0.437   2.064   2.942 -0.8964 -0.0605 -0.7828
 7496TIP3    H243980   0.473   2.062   2.795 -1.8642  1.0583 -1.0518
 7497TIP3   OH243981   1.564   6.462  14.707  0.4207 -0.0954 -0.0212
 7497TIP3    H143982   1.579   6.510  14.625 -3.9240  0.4762 -0.7439
 7497TIP3    H243983   1.545   6.373  14.679 -0.7677  0.0265  0.3465
 7498TIP3   OH243984   3.211   1.059   3.222  0.0662 -0.8640  0.2076
 7498TIP3    H143985   3.237   0.969   3.201  0.9547 -1.2108  2.6006
 7498TIP3    H243986   3.159   1.051   3.302 -1.2535  0.6191 -0.4405
 7499TIP3   OH243987   6.142   3.323   4.392  0.1737  0.4592 -0.0484
 7499TIP3    H143988   6.183   3.294   4.311 -0.8858  0.2806 -0.5329
 7499TIP3    H243989   6.063   3.370   4.365 -0.7585 -0.4913  0.8828
 7500TIP3   OH243990   4.288   3.216  15.621  0.4363  0.3458 -0.3151
 7500TIP3    H143991   4.219   3.282  15.633  1.7006  1.3604  1.8085
 7500TIP3    H243992   4.369   3.262  15.643  1.8827 -0.7797 -2.8736
 7501TIP3   OH243993   2.757   3.040  11.006 -0.3578  0.2868  0.3315
 7501TIP3    H143994   2.762   3.050  10.911  1.1108  0.0189  0.3534
 7501TIP3    H243995   2.718   2.954  11.020  0.8038 -0.3260 -0.0733
 7502TIP3   OH243996   4.964   0.456  15.418 -0.1635  0.5088  0.3026
 7502TIP3    H143997   4.880   0.433  15.457  0.3333  0.4474  1.3723
 7502TIP3    H243998   5.016   0.488  15.491  0.7242  0.6119 -0.3600
 7503TIP3   OH243999   6.766   6.316  13.533  0.5912  0.5565  0.1371
 7503TIP3    H144000   6.743   6.326  13.441  0.3517 -0.9617  0.0039
 7503TIP3    H244001   6.854   6.354  13.540  0.8150  0.2482 -0.8375
 7504TIP3   OH244002   0.876   5.113  16.306 -0.0171  0.0653  0.2723
 7504TIP3    H144003   0.965   5.082  16.286  1.2316  2.3833  1.6987
 7504TIP3    H244004   0.859   5.081  16.395 -0.1822  0.4907  0.3942
 7505TIP3   OH244005   5.103   1.953   2.634 -0.0026 -0.4826 -0.2801
 7505TIP3    H144006   5.104   1.952   2.539  0.2620 -1.1721 -0.2743
 7505TIP3    H244007   5.151   2.033   2.657 -1.1278  0.3523 -0.7177
 7506TIP3   OH244008   5.070   2.052   3.716 -0.4064  0.1203  0.1306
 7506TIP3    H144009   5.116   2.116   3.661 -0.4709  0.4419  0.4452
 7506TIP3    H244010   5.083   2.084   3.805 -1.5553  0.4199  0.1987
 7507TIP3   OH244011   6.028   4.946   0.259  0.2290  0.1259  0.5653
 7507TIP3    H144012   6.101   4.982   0.309  0.6257 -0.5948  0.5214
 7507TIP3    H244013   6.049   4.853   0.250 -1.3758 -0.3948  1.7622
 7508TIP3   OH244014   5.033   1.950   3.144 -0.2169  0.6352  0.4863
 7508TIP3    H144015   5.081   1.934   3.226  3.6968 -0.2784 -1.7000
 7508TIP3    H244016   4.982   1.870   3.129 -0.2942  0.4660  1.5981
 7509TIP3   OH244017   3.716   4.189   4.830 -0.2876 -0.4735  0.2531
 7509TIP3    H144018   3.772   4.221   4.759 -1.6060  0.1560 -0.5532
 7509TIP3    H244019   3.671   4.267   4.862 -1.3765 -1.0788  0.2525
 7510TIP3   OH244020   0.839   5.059  16.585  0.2356 -0.4231 -0.0031
 7510TIP3    H144021   0.748   5.062  16.613  0.6485  0.6483  1.3748
 7510TIP3    H244022   0.880   4.995  16.644  0.5636 -0.1596  0.0579
 7511TIP3   OH244023   4.945   1.434   5.776  0.1302  0.4782  0.7468
 7511TIP3    H144024   4.965   1.518   5.818  0.5630  1.7085 -1.7284
 7511TIP3    H244025   5.026   1.411   5.729 -1.4830  1.4107 -2.8349
 7512TIP3   OH244026   4.810   3.026  11.052  0.0234  0.2028 -0.0585
 7512TIP3    H144027   4.790   3.120  11.051 -1.2679 -0.0635 -0.7207
 7512TIP3    H244028   4.835   3.006  10.962  1.9909  0.2276  0.4376
 7513TIP3   OH244029   4.896   6.327   3.156 -0.2127 -0.0950  0.1152
 7513TIP3    H144030   4.821   6.309   3.098 -0.6490  0.1355  0.5935
 7513TIP3    H244031   4.860   6.385   3.224  0.7452  1.1667 -0.4245
 7514TIP3   OH244032   4.927   5.632  15.660  0.0164 -0.1960 -0.5326
 7514TIP3    H144033   4.918   5.643  15.755 -0.0639 -2.7684 -0.1765
 7514TIP3    H244034   4.841   5.602  15.632  0.4606 -0.8837 -1.1759
 7515TIP3   OH244035   1.479   0.544  13.173 -0.4027  0.0981 -0.1204
 7515TIP3    H144036   1.516   0.611  13.231  1.4310 -0.3048 -0.7601
 7515TIP3    H244037   1.478   0.464  13.226 -1.2861  0.2969  0.1906
 7516TIP3   OH244038   0.025   1.660   5.357 -0.5352 -0.1216 -0.3248
 7516TIP3    H144039  -0.023   1.716   5.418  0.4069 -0.3281  0.6341
 7516TIP3    H244040   0.093   1.717   5.320 -0.0934 -0.4151  0.0327
 7517TIP3   OH244041   3.395   0.923  10.388  0.4563 -0.2608  0.2159
 7517TIP3    H144042   3.309   0.909  10.348 -0.1706  0.6909  1.1930
 7517TIP3    H244043   3.395   0.866  10.465 -0.2565  1.4618  1.5494
 7518TIP3   OH244044   5.972   2.097  17.186  0.7374 -0.5467 -0.2265
 7518TIP3    H144045   6.044   2.160  17.190 -0.5168  0.9416 -0.0148
 7518TIP3    H244046   5.924   2.109  17.267 -1.2977  0.4714 -1.4987
 7519TIP3   OH244047   4.673   2.962  13.921 -0.2626 -0.1708 -0.0425
 7519TIP3    H144048   4.695   2.902  13.850 -0.7602  0.1043 -0.4324
 7519TIP3    H244049   4.633   3.037  13.878 -1.1601 -0.2774  0.5857
 7520TIP3   OH244050   2.996   4.963  16.661  0.5128  0.0825  0.1231
 7520TIP3    H144051   3.053   4.925  16.594 -0.1527  0.2001 -0.5364
 7520TIP3    H244052   2.974   5.050  16.627 -0.8294 -0.3314 -0.1318
 7521TIP3   OH244053   0.900   3.520  16.391  0.4840 -0.5223  0.0663
 7521TIP3    H144054   0.986   3.563  16.387  0.5915 -0.8277 -1.7674
 7521TIP3    H244055   0.840   3.583  16.353 -0.4409  0.2876  2.6598
 7522TIP3   OH244056   1.849   2.499  11.286 -0.7433 -0.1459 -0.0564
 7522TIP3    H144057   1.933   2.521  11.325  0.0691  0.2362 -1.9145
 7522TIP3    H244058   1.792   2.573  11.309 -0.8242 -0.7242  1.7778
 7523TIP3   OH244059   1.217   3.985  11.667 -0.4428  0.2420  0.3308
 7523TIP3    H144060   1.301   4.029  11.652 -0.4594  0.5103  0.9813
 7523TIP3    H244061   1.201   3.936  11.587 -1.5937  3.2882 -1.4981
 7524TIP3   OH244062   3.121   6.076  14.368 -0.1828  0.0904 -0.1215
 7524TIP3    H144063   3.183   6.134  14.410  0.0973 -0.8148  0.7494
 7524TIP3    H244064   3.125   5.995  14.418 -0.0913 -0.9163 -1.6649
 7525TIP3   OH244065   2.009   1.156   4.483 -0.4267  0.1133  0.4050
 7525TIP3    H144066   1.989   1.108   4.403  0.2730  0.2789  0.1277
 7525TIP3    H244067   1.952   1.117   4.549  0.3942 -1.3482  0.2767
 7526TIP3   OH244068   5.424   3.908  16.073  0.3654  0.4128 -0.4253
 7526TIP3    H144069   5.404   3.994  16.036 -0.4577  0.0510 -0.8616
 7526TIP3    H244070   5.416   3.848  15.998  2.4025  0.1269 -0.4720
 7527TIP3   OH244071   6.186   1.584   3.257  0.0844  0.7946  0.3143
 7527TIP3    H144072   6.159   1.510   3.201  0.8945  0.3506  0.4868
 7527TIP3    H244073   6.139   1.570   3.339 -1.6274  1.8121 -0.4358
 7528TIP3   OH244074   1.968   1.775  12.893  0.0767 -0.2029 -0.3698
 7528TIP3    H144075   2.003   1.835  12.958  0.6854 -0.1226 -0.7574
 7528TIP3    H244076   2.012   1.800  12.811  1.2495 -1.9120 -0.3302
 7529TIP3   OH244077   1.891   3.758  13.633  0.3890  0.4539  0.7156
 7529TIP3    H144078   1.854   3.846  13.624 -0.0635  0.1892 -0.1733
 7529TIP3    H244079   1.824   3.700  13.596  1.1523 -0.1553  0.2513
 7530TIP3   OH244080   4.725   3.902  13.418 -0.2963  0.4450 -0.5761
 7530TIP3    H144081   4.771   3.913  13.335 -0.3278  1.9786 -0.4231
 7530TIP3    H244082   4.766   3.826  13.459  1.7084  1.4010 -0.7008
 7531TIP3   OH244083   0.168   1.366  16.218 -0.0814  0.0644  0.0600
 7531TIP3    H144084   0.214   1.446  16.241 -0.4209  0.1291  0.5187
 7531TIP3    H244085   0.149   1.375  16.125 -0.6974  0.8102  0.2523
 7532TIP3   OH244086   1.341   0.853   0.022  0.4708 -0.6548  0.2673
 7532TIP3    H144087   1.391   0.866   0.103 -1.1542 -0.3202  1.2497
 7532TIP3    H244088   1.250   0.870   0.047  0.2087  2.5623 -2.2891
 7533TIP3   OH244089   5.684   6.595   1.105  0.3325  0.0128 -0.7279
 7533TIP3    H144090   5.724   6.679   1.084 -1.7251  0.4007 -3.7997
 7533TIP3    H244091   5.733   6.531   1.054  0.0894 -0.2168 -0.6782
 7534TIP3   OH244092   5.065   3.116  13.308  0.8931 -0.0662 -0.2638
 7534TIP3    H144093   5.061   3.111  13.404  0.2809  1.0402 -0.2125
 7534TIP3    H244094   5.134   3.179  13.290 -0.7014  1.6926 -0.4556
 7535TIP3   OH244095   6.605   1.412  13.420  0.5322 -0.2648  0.2415
 7535TIP3    H144096   6.682   1.470  13.421  1.4560 -1.4454  0.1935
 7535TIP3    H244097   6.593   1.390  13.328  1.8896 -2.2829  0.4957
 7536TIP3   OH244098   5.122   4.062   0.757  0.0436 -0.2750  0.5406
 7536TIP3    H144099   5.155   4.144   0.793 -1.2607 -0.5877  2.6180
 7536TIP3    H244100   5.060   4.089   0.689 -0.0305  0.4575  0.8829
 7537TIP3   OH244101   1.027   4.739   4.253  0.2580 -0.5117 -0.1449
 7537TIP3    H144102   0.962   4.694   4.307  0.9803 -3.4500 -1.5175
 7537TIP3    H244103   1.091   4.671   4.230  1.2165  1.1185 -2.7646
 7538TIP3   OH244104   1.312   0.193  12.321  0.2124  0.0027 -1.1416
 7538TIP3    H144105   1.287   0.123  12.381  1.9338  1.2842  1.2456
 7538TIP3    H244106   1.287   0.274  12.366  2.2036  1.0411 -1.7563
 7539TIP3   OH244107   4.057   2.449  10.756  0.4082 -0.0636  0.2178
 7539TIP3    H144108   4.004   2.510  10.704  0.3601 -0.4344 -0.1782
 7539TIP3    H244109   3.997   2.377  10.776 -0.2161  1.0467  2.6281
 7540TIP3   OH244110   4.159   4.086  12.474 -0.0255 -0.1656 -0.1281
 7540TIP3    H144111   4.179   4.008  12.526  1.0965 -0.8471 -1.5166
 7540TIP3    H244112   4.221   4.152  12.505 -1.8639  0.7154  2.0209
 7541TIP3   OH244113   4.426   6.706  12.112  0.2897 -0.2168  0.6370
 7541TIP3    H144114   4.417   6.671  12.023  1.2249 -0.3555  0.5802
 7541TIP3    H244115   4.514   6.679  12.139  0.5945  1.1093  1.0392
 7542TIP3   OH244116   5.972   0.219  12.312  0.3706 -0.1054 -0.2332
 7542TIP3    H144117   5.993   0.127  12.297 -1.4330 -0.8135  1.2855
 7542TIP3    H244118   6.053   0.256  12.348  1.2067 -1.0101 -1.1368
 7543TIP3   OH244119   3.038   0.854  11.317  0.5781  0.0316  0.2032
 7543TIP3    H144120   3.125   0.832  11.352  0.2105 -1.1437  0.4200
 7543TIP3    H244121   2.990   0.771  11.318  0.6946 -0.2501 -3.5785
 7544TIP3   OH244122   0.918   4.768   3.417  0.2734  0.3609  0.2748
 7544TIP3    H144123   0.852   4.699   3.421  0.1841  0.4450  0.2768
 7544TIP3    H244124   0.874   4.840   3.371  0.6848  0.0741 -0.5829
 7545TIP3   OH244125   2.147   3.341  16.049  0.1135  0.0002  0.7673
 7545TIP3    H144126   2.097   3.361  16.129 -1.4138 -1.5882  0.2727
 7545TIP3    H244127   2.183   3.425  16.022 -2.2295  1.2362  1.2317
 7546TIP3   OH244128   3.462   3.751  15.121 -0.1649 -0.4725 -0.6544
 7546TIP3    H144129   3.466   3.713  15.209  0.9991  0.2261 -0.3853
 7546TIP3    H244130   3.552   3.744  15.088 -0.0950  1.2512 -0.9117
 7547TIP3   OH244131   4.304   2.354   3.894 -0.4781  0.2103  0.6084
 7547TIP3    H144132   4.340   2.268   3.872  2.7300  1.7886 -0.9426
 7547TIP3    H244133   4.261   2.383   3.814 -0.1304  0.6920  0.5931
 7548TIP3   OH244134   1.295   0.666   4.257 -1.0719 -0.2293 -0.5589
 7548TIP3    H144135   1.233   0.593   4.264 -0.8658 -0.2774  1.4977
 7548TIP3    H244136   1.334   0.672   4.344  1.7100 -0.0609 -1.7372
 7549TIP3   OH244137   4.827   5.250   1.422  0.0912 -0.7196  0.5321
 7549TIP3    H144138   4.891   5.248   1.493  0.8302  0.3459 -0.0703
 7549TIP3    H244139   4.863   5.191   1.356  0.1441 -0.5836  0.4397
 7550TIP3   OH244140   6.224   5.622   0.474  0.0069 -0.2771  0.3811
 7550TIP3    H144141   6.156   5.565   0.511  0.3638 -0.6942  0.4028
 7550TIP3    H244142   6.231   5.694   0.537 -0.3444 -0.2766  0.4258
 7551TIP3   OH244143   2.327   6.377   0.117 -0.2328  0.2258 -0.1696
 7551TIP3    H144144   2.377   6.295   0.111 -0.0251  0.4013 -0.9989
 7551TIP3    H244145   2.258   6.367   0.052 -0.4219  0.5648 -0.0190
 7552TIP3   OH244146   1.169   2.367  13.095 -0.0468  0.2365 -0.1495
 7552TIP3    H144147   1.178   2.452  13.137  1.8047 -0.3485  0.7775
 7552TIP3    H244148   1.197   2.381  13.005 -0.3435  0.7268 -0.1685
 7553TIP3   OH244149   2.352   2.537  16.899  0.2639 -0.6208  0.1398
 7553TIP3    H144150   2.318   2.532  16.810 -1.2708 -1.0893  0.7061
 7553TIP3    H244151   2.427   2.597  16.894  0.5860 -1.1397 -1.5534
 7554TIP3   OH244152   0.908   2.152   1.810  0.2962  0.1912  0.6631
 7554TIP3    H144153   0.893   2.172   1.717  0.1105 -1.6188  0.2562
 7554TIP3    H244154   0.982   2.208   1.835 -0.9973  2.2853  0.0488
 7555TIP3   OH244155   3.410   1.718  11.857 -0.4487 -0.1317  0.1409
 7555TIP3    H144156   3.503   1.738  11.861 -0.8003  1.4535  1.4039
 7555TIP3    H244157   3.398   1.675  11.773  1.2023  0.8846 -0.6615
 7556TIP3   OH244158   3.808   0.638   4.507 -0.6166 -0.2928 -0.7704
 7556TIP3    H144159   3.815   0.598   4.421  2.2849 -1.3127 -0.1734
 7556TIP3    H244160   3.768   0.571   4.562  2.6845 -1.9832 -0.1599
 7557TIP3   OH244161   3.736   0.706   6.243  0.5444  0.6337 -0.1380
 7557TIP3    H144162   3.756   0.717   6.336  1.4688  1.1611 -0.3821
 7557TIP3    H244163   3.642   0.694   6.240  0.7867 -3.3946  1.2691
 7558TIP3   OH244164   1.129   6.597  14.366 -0.1083 -0.0635  0.8892
 7558TIP3    H144165   1.079   6.598  14.448 -0.0049  0.8373  0.9556
 7558TIP3    H244166   1.193   6.668  14.376  1.9614 -1.8921  1.2550
 7559TIP3   OH244167   5.172   3.347   3.496  0.0751 -0.1161  0.3071
 7559TIP3    H144168   5.209   3.350   3.584  0.3572 -0.0698  0.1875
 7559TIP3    H244169   5.201   3.429   3.455  0.4317 -0.3988 -0.0209
 7560TIP3   OH244170   0.947   0.394   4.856 -0.1793 -0.0368  0.3861
 7560TIP3    H144171   0.998   0.380   4.937  3.1552 -0.3375 -1.5718
 7560TIP3    H244172   0.917   0.306   4.831  0.0320 -0.1579  0.5523
 7561TIP3   OH244173   5.484   2.344  15.330 -0.2606  0.2835  0.4165
 7561TIP3    H144174   5.479   2.261  15.378  0.6972  0.0773  0.1919
 7561TIP3    H244175   5.568   2.381  15.357 -0.0094  0.4804 -0.6001
 7562TIP3   OH244176   6.385   5.869  15.403  0.1460  0.4078  0.3268
 7562TIP3    H144177   6.464   5.908  15.365  0.7978 -1.4810 -0.3732
 7562TIP3    H244178   6.322   5.941  15.407  1.1674  1.4465 -1.2062
 7563TIP3   OH244179   3.227   2.836  13.043  0.6477  0.5598 -0.2986
 7563TIP3    H144180   3.245   2.926  13.072  0.8905  0.9574 -1.6205
 7563TIP3    H244181   3.311   2.791  13.050  0.3809  0.2171  1.0236
 7564TIP3   OH244182   4.752   4.212  13.856  0.2176  0.1406  0.0471
 7564TIP3    H144183   4.764   4.175  13.769  0.3189  1.7291 -0.6508
 7564TIP3    H244184   4.713   4.298  13.841  3.1795  1.8659  1.3103
 7565TIP3   OH244185   3.839   2.534  12.246 -0.6681  0.5254 -0.4305
 7565TIP3    H144186   3.808   2.499  12.162 -1.5887  0.4692 -0.0805
 7565TIP3    H244187   3.812   2.626  12.245 -0.0180  0.7208 -0.5035
 7566TIP3   OH244188   1.308   2.265  10.710  0.1637  0.5087  0.5188
 7566TIP3    H144189   1.291   2.183  10.664 -0.7388 -0.1411  1.9254
 7566TIP3    H244190   1.222   2.293  10.742  0.8548  0.4177  2.5836
 7567TIP3   OH244191   0.587   0.162   2.103 -0.1650  0.1515 -0.9881
 7567TIP3    H144192   0.499   0.186   2.131  0.5212  1.1343  0.4338
 7567TIP3    H244193   0.576   0.129   2.014 -2.0391 -0.3147 -0.6233
 7568TIP3   OH244194   1.435   2.407  13.398 -0.1631  0.6933  0.7808
 7568TIP3    H144195   1.365   2.392  13.462 -1.4998  2.1910 -0.2325
 7568TIP3    H244196   1.445   2.323  13.354 -1.8444  0.5827  0.5211
 7569TIP3   OH244197   3.195   6.190   0.966  0.1751  0.3639 -0.4869
 7569TIP3    H144198   3.183   6.256   0.897 -0.1720 -1.0121 -1.7923
 7569TIP3    H244199   3.280   6.151   0.947  0.3012  0.3120  0.1719
 7570TIP3   OH244200   5.739   4.306  11.494 -0.0959 -0.0371  0.0295
 7570TIP3    H144201   5.676   4.377  11.504 -0.1714 -0.2887  1.5077
 7570TIP3    H244202   5.809   4.344  11.441 -1.0362  0.5267 -0.8349
 7571TIP3   OH244203   5.598   6.451  12.839 -0.0703 -0.1326 -0.1631
 7571TIP3    H144204   5.606   6.365  12.797  0.1649  0.2474 -0.9209
 7571TIP3    H244205   5.613   6.514  12.768 -0.1542  0.5366  0.3973
 7572TIP3   OH244206   2.192   2.038  10.701 -0.1865  0.3388 -0.1408
 7572TIP3    H144207   2.130   2.045  10.629  0.6461  0.2135 -0.8940
 7572TIP3    H244208   2.229   2.126  10.709  0.6057  0.0693 -0.6978
 7573TIP3   OH244209   2.807   5.160  17.180  0.0832 -0.0822 -0.6529
 7573TIP3    H144210   2.759   5.105  17.242 -1.6504 -0.0278 -1.8562
 7573TIP3    H244211   2.855   5.097  17.125 -2.0371 -0.5389 -2.1460
 7574TIP3   OH244212   0.829   2.510  16.571 -0.8890 -0.2293  0.3095
 7574TIP3    H144213   0.888   2.486  16.642 -1.3691 -1.2611  0.3675
 7574TIP3    H244214   0.768   2.437  16.564  0.5575 -1.3508 -2.7411
 7575TIP3   OH244215   0.838   6.367   0.240  0.1682 -0.5504  0.0164
 7575TIP3    H144216   0.841   6.302   0.170 -0.0143 -1.8710  1.1958
 7575TIP3    H244217   0.754   6.411   0.228 -0.1402 -1.1915 -0.2397
 7576TIP3   OH244218   0.349   5.940   1.633 -0.0040  0.4215 -0.3288
 7576TIP3    H144219   0.347   5.973   1.723  1.1153  0.4829 -0.3191
 7576TIP3    H244220   0.377   5.849   1.642 -0.9172  0.1117 -0.5382
 7577TIP3   OH244221   2.744   5.148   6.019 -0.1887  0.2647  0.8284
 7577TIP3    H144222   2.772   5.130   6.109  0.1645 -1.8078  0.3660
 7577TIP3    H244223   2.826   5.163   5.971 -0.4167  2.1963  0.9579
 7578TIP3   OH244224   0.737   0.388  13.838  0.3061 -0.8426 -0.0774
 7578TIP3    H144225   0.756   0.475  13.802  1.6824 -0.6994  0.9088
 7578TIP3    H244226   0.683   0.405  13.915  1.0659 -0.7956  0.4568
 7579TIP3   OH244227   3.892   6.079  12.178 -0.4663 -0.0666  0.1441
 7579TIP3    H144228   3.854   6.001  12.218 -1.5370  1.1341  1.5924
 7579TIP3    H244229   3.975   6.092  12.222  0.8101 -1.6034 -1.6738
 7580TIP3   OH244230   0.135   3.153   1.987 -0.1297 -0.1416  0.2105
 7580TIP3    H144231   0.092   3.071   1.964  1.1109 -0.4100 -1.3144
 7580TIP3    H244232   0.118   3.210   1.912  1.4117  0.0273 -0.0329
 7581TIP3   OH244233   5.351   6.729  13.063  0.3832  0.3816  0.2878
 7581TIP3    H144234   5.279   6.760  13.008  2.1280  1.5632 -1.4760
 7581TIP3    H244235   5.366   6.800  13.125 -0.9086 -0.5174  1.6985
 7582TIP3   OH244236   3.507   6.104  14.702  0.0617 -0.2723 -0.3068
 7582TIP3    H144237   3.487   6.013  14.726  0.7211 -0.9021 -1.9869
 7582TIP3    H244238   3.424   6.139  14.669  0.2019 -0.8785 -1.3637
 7583TIP3   OH244239   5.313   0.265  16.143 -0.7982 -0.5438 -0.5196
 7583TIP3    H144240   5.249   0.312  16.090 -0.3455  0.5810 -0.0846
 7583TIP3    H244241   5.398   0.290  16.106 -0.4503  0.6226  0.9965
 7584TIP3   OH244242   4.205   2.434   5.315 -0.0953 -0.3632 -0.4737
 7584TIP3    H144243   4.287   2.456   5.359 -0.7478  0.6584  0.2715
 7584TIP3    H244244   4.232   2.386   5.236  1.1246 -1.7150  0.7003
 7585TIP3   OH244245   4.858   3.195   2.198  0.1963 -0.5139 -0.8141
 7585TIP3    H144246   4.892   3.264   2.255  0.3718 -0.2254 -1.2581
 7585TIP3    H244247   4.820   3.130   2.258  1.4395 -0.8012 -0.2986
 7586TIP3   OH244248   1.434   4.836   0.462  0.2414 -0.2430  0.5436
 7586TIP3    H144249   1.518   4.860   0.423 -0.4739 -0.3915 -1.1427
 7586TIP3    H244250   1.453   4.758   0.514  0.8987 -1.0517 -0.8687
 7587TIP3   OH244251   0.812   1.966   3.359 -0.0718  0.6247  0.0703
 7587TIP3    H144252   0.724   1.996   3.338 -0.5225 -0.0032  1.0025
 7587TIP3    H244253   0.859   1.969   3.275 -0.3909  2.8345 -0.0849
 7588TIP3   OH244254   2.040   5.875  11.628  0.5555  0.0697  0.5022
 7588TIP3    H144255   1.976   5.942  11.607  1.4894  0.9224  0.2863
 7588TIP3    H244256   1.988   5.801  11.660 -0.5368  0.6441  0.1118
 7589TIP3   OH244257   1.121   3.016   0.121  0.0738  0.5842  0.0055
 7589TIP3    H144258   1.066   3.046   0.192  0.0071 -0.6339  0.5012
 7589TIP3    H244259   1.172   3.093   0.095  1.4521  0.6760  2.6137
 7590TIP3   OH244260   6.097   5.799  14.363  0.0486  0.0697  0.4454
 7590TIP3    H144261   6.113   5.879  14.413  4.6517  2.0244 -3.4145
 7590TIP3    H244262   6.124   5.728  14.422  1.1231  1.8094  2.1605
 7591TIP3   OH244263   5.391   2.867  12.543 -0.5486  0.5337 -0.3364
 7591TIP3    H144264   5.453   2.937  12.564 -1.4696  1.3661 -0.3223
 7591TIP3    H244265   5.442   2.787  12.550  0.2653  1.1214  0.7567
 7592TIP3   OH244266   3.193   0.481  16.768  0.0668 -0.0635  0.8712
 7592TIP3    H144267   3.176   0.391  16.743  0.6758  0.0303  0.0642
 7592TIP3    H244268   3.207   0.478  16.863 -2.5023 -0.4014  1.2986
 7593TIP3   OH244269   3.446   5.569  13.117 -0.3631  0.3360  0.1437
 7593TIP3    H144270   3.502   5.645  13.103 -2.1796  1.5292 -1.1537
 7593TIP3    H244271   3.453   5.518  13.037 -0.4287  0.0136  0.3421
 7594TIP3   OH244272   3.919   3.621   1.323  0.0291  0.2492 -0.5627
 7594TIP3    H144273   3.862   3.697   1.331  0.1968  0.2031  4.1963
 7594TIP3    H244274   3.860   3.547   1.319 -0.3959  0.3506  1.9962
 7595TIP3   OH244275   6.437   6.201   4.517  0.0525 -0.5929  0.4222
 7595TIP3    H144276   6.373   6.273   4.516  1.1743  0.4411 -0.2151
 7595TIP3    H244277   6.417   6.149   4.440  0.2904  0.0333 -0.0717
 7596TIP3   OH244278   2.909   5.482  14.399  0.0331  0.0163 -0.2559
 7596TIP3    H144279   2.976   5.416  14.381  0.3490  0.2077  0.1924
 7596TIP3    H244280   2.834   5.432  14.432  0.4268 -0.0919  0.5060
 7597TIP3   OH244281   3.190   2.453  11.165 -0.0683 -0.3341 -0.1390
 7597TIP3    H144282   3.276   2.411  11.159 -1.2946 -3.0174 -0.2008
 7597TIP3    H244283   3.178   2.495  11.079  0.7031 -0.8861 -0.5296
 7598TIP3   OH244284   4.505   6.028  12.134  0.4681  0.2554 -0.3957
 7598TIP3    H144285   4.442   5.966  12.169 -0.8221  1.2521 -0.8979
 7598TIP3    H244286   4.470   6.054  12.049  2.4085 -0.4102 -1.4728
 7599TIP3   OH244287   4.777   2.275  12.751 -0.0053  0.5172 -0.0487
 7599TIP3    H144288   4.713   2.205  12.739  0.8386 -0.0382 -1.5117
 7599TIP3    H244289   4.854   2.231  12.786  0.4029  0.7775 -0.6213
 7600TIP3   OH244290   4.677   0.468  17.109  0.0938  0.0222 -0.2096
 7600TIP3    H144291   4.631   0.503  17.185 -0.9574 -0.0335 -0.7916
 7600TIP3    H244292   4.704   0.380  17.136 -1.5601 -0.5667 -0.3586
 7601TIP3   OH244293   5.701   4.361   0.804 -0.0457 -0.1089  0.1884
 7601TIP3    H144294   5.657   4.441   0.832  1.1742  0.5918  0.1784
 7601TIP3    H244295   5.792   4.387   0.791  0.6012 -1.7258  1.1767
 7602TIP3   OH244296   1.973   3.833   4.963 -0.0095 -0.0825  0.1169
 7602TIP3    H144297   2.011   3.911   5.003 -1.7225  0.5775  0.5233
 7602TIP3    H244298   1.882   3.833   4.992 -0.4700 -1.3368 -1.2214
 7603TIP3   OH244299   6.023   3.172   3.387 -0.7579 -0.4032 -0.2575
 7603TIP3    H144300   6.007   3.160   3.481 -0.5030 -0.3782 -0.2075
 7603TIP3    H244301   6.050   3.264   3.379  1.3308 -0.9325 -0.0273
 7604TIP3   OH244302   3.246   5.935  13.141 -0.3636 -0.7509  0.0174
 7604TIP3    H144303   3.154   5.954  13.123  0.1120  1.9128 -0.1268
 7604TIP3    H244304   3.253   5.938  13.237 -0.0820  1.4204 -0.0212
 7605TIP3   OH244305   3.280   6.244  14.576 -0.0037 -0.3940  0.1173
 7605TIP3    H144306   3.233   6.295  14.510  1.7487  0.9912 -0.1367
 7605TIP3    H244307   3.277   6.298  14.655 -0.0120 -0.9325  0.4911
 7606TIP3   OH244308   5.428   0.458   3.450  0.5147  0.2826 -0.2872
 7606TIP3    H144309   5.376   0.387   3.410  0.2550  0.4647 -0.2750
 7606TIP3    H244310   5.369   0.533   3.451 -0.1551 -0.1719  2.1253
 7607TIP3   OH244311   5.036   6.325  16.812 -0.1616  0.0389  0.0826
 7607TIP3    H144312   5.096   6.399  16.800  3.5753 -2.1821  2.9807
 7607TIP3    H244313   5.072   6.256  16.756 -2.3143 -0.3224 -0.9341
 7608TIP3   OH244314   4.478   0.307   4.129 -0.1502  0.6606  0.1087
 7608TIP3    H144315   4.552   0.302   4.190 -0.7454 -0.3226  0.7764
 7608TIP3    H244316   4.508   0.367   4.061  0.6135  1.6240  1.2428
 7609TIP3   OH244317   4.993   6.525  14.133 -0.0467  0.1862  0.1641
 7609TIP3    H144318   4.969   6.607  14.090  0.0864  0.0930 -0.0918
 7609TIP3    H244319   5.016   6.550  14.223 -1.7886  0.1865  0.6360
 7610TIP3   OH244320   5.091   3.402  16.578 -0.0524  0.4259  0.6606
 7610TIP3    H144321   5.073   3.372  16.489 -0.5596  1.9263  0.2312
 7610TIP3    H244322   5.006   3.400  16.622  0.1968 -0.3133  1.1279
 7611TIP3   OH244323   2.991   3.258  16.302 -1.0139  0.2844  0.1041
 7611TIP3    H144324   3.006   3.268  16.396 -0.3973  2.2109 -0.1583
 7611TIP3    H244325   3.065   3.205  16.271 -0.6302  0.5677  0.5301
 7612TIP3   OH244326   4.625   0.613  13.334 -0.0757  0.2462 -0.2750
 7612TIP3    H144327   4.639   0.534  13.281  0.4744  0.7535 -0.9006
 7612TIP3    H244328   4.575   0.671  13.276 -0.4950  0.3594  0.1940
 7613TIP3   OH244329   4.232   2.838   0.099  0.5658  0.3557  0.3690
 7613TIP3    H144330   4.140   2.846   0.073  0.6144  0.6538  0.2916
 7613TIP3    H244331   4.266   2.927   0.096  0.9279  0.2101  0.1436
 7614TIP3   OH244332   6.407   5.815  15.035  0.5943 -0.4487 -0.0209
 7614TIP3    H144333   6.438   5.906  15.037 -1.6322  0.4062 -0.9228
 7614TIP3    H244334   6.312   5.822  15.042  0.3693 -2.7403 -0.0394
 7615TIP3   OH244335   3.009   4.219   4.476  0.5329 -0.2943  0.1726
 7615TIP3    H144336   3.071   4.290   4.462 -0.0815  0.2835  0.3108
 7615TIP3    H244337   3.048   4.168   4.547  1.4096 -0.6115 -0.5205
 7616TIP3   OH244338   5.169   6.084  14.562 -0.0175 -0.7306  0.2678
 7616TIP3    H144339   5.263   6.076  14.579  0.4523 -0.4080 -1.9097
 7616TIP3    H244340   5.154   6.031  14.484 -1.7174 -0.9902  0.7225
 7617TIP3   OH244341   5.420   5.244  11.641 -0.0644  0.1495  0.4250
 7617TIP3    H144342   5.446   5.178  11.707 -0.3421 -3.1235 -2.4477
 7617TIP3    H244343   5.497   5.254  11.586 -0.8954  0.0873 -0.7795
 7618TIP3   OH244344   3.412   2.784   0.060  0.4995 -0.5425  0.1557
 7618TIP3    H144345   3.496   2.800   0.016  0.7282 -0.2570  0.6828
 7618TIP3    H244346   3.412   2.846   0.133 -0.8994  0.6576 -0.7945
 7619TIP3   OH244347   2.815   0.391  14.108 -0.1174  0.8903 -0.0789
 7619TIP3    H144348   2.867   0.329  14.160 -0.8185  0.1083 -0.2816
 7619TIP3    H244349   2.821   0.474  14.156  0.2862  0.4949  0.5649
 7620TIP3   OH244350   2.050   3.350   4.066  0.1139 -0.2776  0.5660
 7620TIP3    H144351   1.958   3.324   4.057 -0.4889  1.6143  0.8530
 7620TIP3    H244352   2.066   3.352   4.160  0.5065 -0.7271  0.5148
 7621TIP3   OH244353   1.799   2.497  12.134  0.2850 -0.4739 -0.3974
 7621TIP3    H144354   1.817   2.461  12.047  2.8559  0.2487 -0.2587
 7621TIP3    H244355   1.731   2.440  12.170 -0.3764 -1.1950 -2.6084
 7622TIP3   OH244356   2.021   4.782   1.756  0.4818  0.0104  0.2372
 7622TIP3    H144357   2.046   4.723   1.686  0.7377  1.7567 -1.2037
 7622TIP3    H244358   2.093   4.844   1.762  0.2009  0.2362  1.6795
 7623TIP3   OH244359   4.354   4.675   1.987  1.0242  0.0016 -0.2919
 7623TIP3    H144360   4.388   4.662   1.898  1.9520 -1.2219  0.2081
 7623TIP3    H244361   4.266   4.708   1.975  1.4343  0.6412 -1.6698
 7624TIP3   OH244362   3.151   2.932  15.629  0.5902  0.1351 -0.3283
 7624TIP3    H144363   3.160   2.839  15.611 -0.5151  0.4268 -2.8987
 7624TIP3    H244364   3.217   2.974  15.575 -0.8186  0.9507 -1.4890
 7625TIP3   OH244365   3.165   0.893   4.339 -0.1271 -0.2195  0.4621
 7625TIP3    H144366   3.158   0.918   4.431 -0.0477 -1.0482  0.6985
 7625TIP3    H244367   3.090   0.836   4.323 -0.3839  0.2670 -0.1110
 7626TIP3   OH244368   3.867   4.702   6.766 -0.2234  0.4328 -0.3637
 7626TIP3    H144369   3.794   4.699   6.829 -0.5828 -0.2511 -0.7980
 7626TIP3    H244370   3.835   4.652   6.691 -0.0407  1.7593 -1.3598
 7627TIP3   OH244371   5.798   6.051  14.639 -1.0463 -0.1288  0.1638
 7627TIP3    H144372   5.743   6.125  14.614 -0.4898  0.1937 -0.1333
 7627TIP3    H244373   5.887   6.086  14.637 -0.6439 -1.1539 -1.2791
 7628TIP3   OH244374   5.805   0.702  10.913  0.6265 -0.2879 -0.6272
 7628TIP3    H144375   5.873   0.654  10.865  0.6174 -0.1552 -0.7729
 7628TIP3    H244376   5.832   0.794  10.906 -0.3882 -0.0616 -2.0085
 7629TIP3   OH244377   5.130   3.785   0.279  0.4846 -0.1440  0.6300
 7629TIP3    H144378   5.068   3.791   0.207  2.7683 -0.3783 -1.4979
 7629TIP3    H244379   5.081   3.814   0.356 -1.6622  1.5441 -1.2414
 7630TIP3   OH244380   1.070   6.588  12.797 -0.4106  0.0332 -0.0236
 7630TIP3    H144381   1.054   6.544  12.880 -0.9251  0.8680  0.3354
 7630TIP3    H244382   1.114   6.670  12.821 -0.1063  0.0465 -0.6125
 7631TIP3   OH244383   6.566   5.333  15.939 -0.1847  0.0285  0.2512
 7631TIP3    H144384   6.558   5.284  16.021  0.0976 -0.1363  0.1807
 7631TIP3    H244385   6.626   5.405  15.959 -1.2556  0.8605  0.5946
 7632TIP3   OH244386   4.761   5.781   3.026 -0.0108 -0.5735  0.3315
 7632TIP3    H144387   4.750   5.688   3.009  0.7734 -0.6221  0.0765
 7632TIP3    H244388   4.752   5.823   2.941 -2.0775 -0.2274  0.6613
 7633TIP3   OH244389   1.147   4.423   0.392  0.5110 -0.4431 -0.0865
 7633TIP3    H144390   1.144   4.403   0.299 -2.0413 -0.2878 -0.1136
 7633TIP3    H244391   1.171   4.516   0.396  0.9251 -0.5287 -0.5873
 7634TIP3   OH244392   2.672   5.832  16.068 -0.2449 -0.1567  0.5338
 7634TIP3    H144393   2.765   5.841  16.047 -0.0670 -0.4490  1.1925
 7634TIP3    H244394   2.631   5.811  15.984  0.1734  0.7139  0.0958
 7635TIP3   OH244395   5.327   5.575   0.405 -0.4939 -0.5799 -0.0734
 7635TIP3    H144396   5.233   5.575   0.424 -0.3324 -1.4733  0.8340
 7635TIP3    H244397   5.332   5.583   0.309 -1.4761 -0.1294 -0.0964
 7636TIP3   OH244398   5.633   2.035   1.245  0.3448  0.0426  0.5864
 7636TIP3    H144399   5.622   1.947   1.281 -0.3061  0.2102  0.8071
 7636TIP3    H244400   5.661   2.020   1.154 -2.8521 -0.4761 -0.4292
 7637TIP3   OH244401   1.246   1.157  11.153  0.9716  0.1515 -0.2409
 7637TIP3    H144402   1.166   1.190  11.112  0.2697 -0.1767  0.8378
 7637TIP3    H244403   1.236   1.176  11.246  1.0123 -2.0908  0.2897
 7638TIP3   OH244404   1.789   0.848  11.634  0.0434  0.6853 -0.3257
 7638TIP3    H144405   1.863   0.797  11.666  1.5424  2.3993 -0.8464
 7638TIP3    H244406   1.808   0.863  11.541 -0.5142  1.8428 -0.2776
 7639TIP3   OH244407   6.752   1.214  14.698  0.0293  0.3891  0.2793
 7639TIP3    H144408   6.831   1.268  14.711  0.2327  0.4346 -1.0591
 7639TIP3    H244409   6.680   1.276  14.706  0.0401  0.2082  2.3581
 7640TIP3   OH244410   2.457   6.512   1.877 -0.7498  0.3602 -0.3347
 7640TIP3    H144411   2.422   6.439   1.927 -0.7331  1.4506  1.3714
 7640TIP3    H244412   2.507   6.472   1.806  2.0743 -1.4366  2.3953
 7641TIP3   OH244413   6.766   4.634   1.697 -0.4619  0.5138 -0.6198
 7641TIP3    H144414   6.733   4.691   1.629 -1.7824 -0.7223 -1.0757
 7641TIP3    H244415   6.806   4.693   1.761 -1.3405  1.8829 -1.2874
 7642TIP3   OH244416   0.938   4.895   6.100 -0.0738 -0.0744 -0.9518
 7642TIP3    H144417   0.965   4.983   6.075 -0.7604  0.1300 -0.9924
 7642TIP3    H244418   0.996   4.871   6.172 -1.3447  1.3129  0.6062
 7643TIP3   OH244419   4.899   6.786   1.886  0.2136  0.1915 -0.2041
 7643TIP3    H144420   4.944   6.869   1.869  0.2150  0.1587 -0.3655
 7643TIP3    H244421   4.896   6.744   1.800 -2.0335  1.1378 -0.6570
 7644TIP3   OH244422   0.261   1.488   6.444 -0.5642 -0.5180 -0.4382
 7644TIP3    H144423   0.264   1.498   6.349 -1.6231  0.2265 -0.4154
 7644TIP3    H244424   0.173   1.453   6.461 -1.4702  2.0279  0.4571
 7645TIP3   OH244425   0.875   3.062  16.052  0.0053  0.2891 -0.1137
 7645TIP3    H144426   0.962   3.054  16.013  0.0348 -0.2516  0.0482
 7645TIP3    H244427   0.883   3.136  16.113  0.2189  0.5375 -0.4411
 7646TIP3   OH244428   0.401   0.400  13.827  0.6314 -0.6148  0.4400
 7646TIP3    H144429   0.469   0.395  13.760  1.2594 -1.7669  1.1236
 7646TIP3    H244430   0.345   0.472  13.799  0.8382 -1.1073 -1.3549
 7647TIP3   OH244431   6.091   5.992   0.057  0.0465  0.3933 -0.4465
 7647TIP3    H144432   6.106   5.935  -0.018  0.0883  1.0709 -0.9588
 7647TIP3    H244433   6.176   6.033   0.074 -0.1955  0.9993 -0.6654
 7648TIP3   OH244434   0.462   4.892   3.934  0.0917 -0.4197 -0.2162
 7648TIP3    H144435   0.514   4.964   3.968 -0.2884 -0.7664  1.1711
 7648TIP3    H244436   0.382   4.893   3.986 -0.8769 -0.5083 -1.6434
 7649TIP3   OH244437   6.566   1.087  17.070 -0.0853 -0.0092  0.4195
 7649TIP3    H144438   6.589   1.049  16.985 -1.3872  1.8521 -0.8570
 7649TIP3    H244439   6.477   1.057  17.086 -0.0358  0.0760  0.8667
 7650TIP3   OH244440   0.661   4.211  17.130 -0.5562  0.1264  0.4688
 7650TIP3    H144441   0.692   4.202  17.039 -0.6268  0.6109  0.3965
 7650TIP3    H244442   0.567   4.227  17.121 -0.6360 -0.2267  0.6471
 7651TIP3   OH244443   5.041   5.186   0.441 -0.3150 -0.2477 -0.0963
 7651TIP3    H144444   5.072   5.194   0.531 -1.9173 -0.6686  0.5187
 7651TIP3    H244445   5.027   5.092   0.429 -2.1260 -0.0292 -0.0330
 7652TIP3   OH244446   1.278   5.291   2.377 -0.0812  0.1772 -0.0546
 7652TIP3    H144447   1.193   5.307   2.336  0.7013 -1.0092 -2.2874
 7652TIP3    H244448   1.257   5.240   2.455 -1.5226  1.3489  0.3625
 7653TIP3   OH244449   5.435   6.622   5.353  0.0228 -0.3420 -0.0123
 7653TIP3    H144450   5.349   6.617   5.394  0.5702 -0.6515  1.1395
 7653TIP3    H244451   5.430   6.699   5.295 -0.4394  0.7999  1.4792
 7654TIP3   OH244452   2.409   1.285   2.339  0.2361  0.0766  0.8002
 7654TIP3    H144453   2.352   1.239   2.401 -0.9011  0.1619 -0.1249
 7654TIP3    H244454   2.430   1.219   2.272 -0.0336  0.4419  0.3442
 7655TIP3   OH244455   5.274   2.065   5.367 -0.6428  0.1218  0.2113
 7655TIP3    H144456   5.209   2.122   5.326 -0.9847 -0.5707 -0.2483
 7655TIP3    H244457   5.357   2.091   5.328 -0.9503 -0.4664 -0.9056
 7656TIP3   OH244458   2.711   5.313   2.018  0.0710 -0.1674 -0.4105
 7656TIP3    H144459   2.778   5.262   1.972  1.1677  1.0507 -0.2333
 7656TIP3    H244460   2.738   5.404   2.006 -1.1280  0.3089  0.3433
 7657TIP3   OH244461   1.356   6.593   1.841 -0.4756 -0.2227  0.2057
 7657TIP3    H144462   1.348   6.498   1.853  1.8559 -0.6679 -0.9695
 7657TIP3    H244463   1.415   6.621   1.911 -1.5895  0.4883  0.8822
 7658TIP3   OH244464   3.071   6.513  15.962  0.4854 -0.1033  0.0755
 7658TIP3    H144465   3.043   6.501  16.052  0.0230 -0.1144 -0.0665
 7658TIP3    H244466   3.120   6.595  15.962  0.5367 -0.1354  0.3453
 7659TIP3   OH244467   1.643   5.323   6.016 -0.1319  0.2344 -0.2068
 7659TIP3    H144468   1.686   5.323   5.930 -0.1219  0.9927 -0.2108
 7659TIP3    H244469   1.655   5.234   6.049  0.6534  0.1846 -0.5989
 7660TIP3   OH244470   2.036   0.457   3.071 -0.4463  0.2279  0.9330
 7660TIP3    H144471   1.958   0.402   3.071 -0.4137  0.1618  0.1504
 7660TIP3    H244472   2.106   0.398   3.044 -0.4534  0.6905 -0.1585
 7661TIP3   OH244473   3.689   3.289   0.474  0.0371 -0.1693 -0.1830
 7661TIP3    H144474   3.645   3.332   0.547  2.8235  0.9987  0.9324
 7661TIP3    H244475   3.656   3.334   0.397 -0.4293  0.9080  0.6197
 7662TIP3   OH244476   6.608   0.778  11.206 -0.3851  0.2161  0.1901
 7662TIP3    H144477   6.633   0.728  11.129 -0.4675  0.7245 -0.1762
 7662TIP3    H244478   6.640   0.727  11.280 -0.7942 -0.5637 -0.1520
 7663TIP3   OH244479   2.110   1.046   4.027 -1.2065  0.0045  0.2347
 7663TIP3    H144480   2.089   0.967   4.076 -1.8771  0.1142  0.1329
 7663TIP3    H244481   2.149   1.015   3.946 -1.2575 -0.2129  0.2944
 7664TIP3   OH244482   2.927   6.477  13.493 -0.6283  0.5917  0.6303
 7664TIP3    H144483   2.861   6.461  13.560  0.1608  0.2970  1.3566
 7664TIP3    H244484   3.009   6.484  13.541 -0.2527  2.0018 -0.1464
 7665TIP3   OH244485   2.631   6.413  15.111 -0.3740 -0.5076  0.3452
 7665TIP3    H144486   2.659   6.341  15.054 -1.0749 -0.7560  0.3029
 7665TIP3    H244487   2.713   6.452  15.143  0.0175 -1.5569  0.6652
 7666TIP3   OH244488   4.429   4.543   4.969  0.0814  0.0519 -0.4637
 7666TIP3    H144489   4.349   4.574   4.925 -0.2125 -0.7396 -0.5125
 7666TIP3    H244490   4.407   4.545   5.062  0.4446  1.0242 -0.3971
 7667TIP3   OH244491   5.714   4.778  16.771  0.3668  0.1315  0.2927
 7667TIP3    H144492   5.770   4.830  16.713  0.2327  0.7651  0.7200
 7667TIP3    H244493   5.633   4.767  16.722  0.4913  0.1014  0.0928
 7668TIP3   OH244494   5.301   1.819  11.990  0.5827 -0.1081 -0.2833
 7668TIP3    H144495   5.217   1.775  11.978  1.3304 -1.0930 -2.6297
 7668TIP3    H244496   5.353   1.757  12.043 -0.4419  1.0080  2.1768
 7669TIP3   OH244497   6.462   0.168   6.728 -0.0830 -0.1212 -0.1155
 7669TIP3    H144498   6.557   0.176   6.720 -0.0899 -0.0801 -0.1603
 7669TIP3    H244499   6.433   0.134   6.643  0.0739 -1.8475  0.4816
 7670TIP3   OH244500   4.922   3.679   5.109 -0.1347  0.4503 -0.5786
 7670TIP3    H144501   5.015   3.697   5.100 -0.1515  0.5105 -0.6325
 7670TIP3    H244502   4.907   3.600   5.057  0.1161 -0.2566  0.3874
 7671TIP3   OH244503   3.039   6.680   6.105  0.1634 -0.3971  0.7680
 7671TIP3    H144504   3.100   6.633   6.048  0.6696  0.7758  0.2975
 7671TIP3    H244505   2.993   6.740   6.046 -0.4133 -0.2532  1.3547
 7672TIP3   OH244506   3.578   0.289   5.872 -0.9391  0.1053  0.0542
 7672TIP3    H144507   3.482   0.290   5.881 -0.8254  0.7009  1.4837
 7672TIP3    H244508   3.605   0.205   5.908 -0.9451 -0.2377 -0.7289
 7673TIP3   OH244509   4.101   1.532   1.267  0.5190  0.2701  0.5169
 7673TIP3    H144510   4.055   1.510   1.186  2.5853 -0.9995 -0.3984
 7673TIP3    H244511   4.094   1.627   1.273 -0.1865  0.3375 -0.8524
 7674TIP3   OH244512   0.391   0.540  13.354 -0.2157 -0.0398  1.0393
 7674TIP3    H144513   0.418   0.463  13.304  0.9332 -0.0801  1.6935
 7674TIP3    H244514   0.337   0.590  13.294  1.6648  0.2441 -0.4838
 7675TIP3   OH244515   1.296   6.124  11.502 -0.7390 -0.1796  0.2200
 7675TIP3    H144516   1.368   6.131  11.440 -0.7078 -0.2351  0.2509
 7675TIP3    H244517   1.327   6.170  11.580 -1.1616  0.7720 -0.1592
 7676TIP3   OH244518   6.739   5.473  12.128 -0.0812 -0.1310  0.1048
 7676TIP3    H144519   6.676   5.404  12.106  0.2410 -0.1065 -0.9311
 7676TIP3    H244520   6.814   5.427  12.165  0.1256 -0.3368 -0.5671
 7677TIP3   OH244521   3.017   1.413   4.788 -0.0519  0.1170 -0.0300
 7677TIP3    H144522   3.100   1.438   4.829  0.3740  0.8231 -1.2628
 7677TIP3    H244523   3.038   1.401   4.695 -0.8799 -1.9315 -0.0204
 7678TIP3   OH244524   5.510   3.552   1.408 -0.1458 -0.1135 -0.0371
 7678TIP3    H144525   5.479   3.472   1.450  0.6351 -0.4549 -0.0938
 7678TIP3    H244526   5.442   3.573   1.343  0.0867 -1.2672 -0.6809
 7679TIP3   OH244527   2.158   1.254  13.617 -0.1672 -0.5821  0.4200
 7679TIP3    H144528   2.134   1.316  13.687  4.3612 -0.5049  2.2746
 7679TIP3    H244529   2.172   1.309  13.540 -0.6689  0.0247  0.7540
 7680TIP3   OH244530   4.356   2.621  17.248  0.0839  0.0683 -0.3865
 7680TIP3    H144531   4.337   2.680  17.321 -0.3585 -0.1803 -0.2985
 7680TIP3    H244532   4.320   2.537  17.275  0.4922 -0.1818 -0.6185
 7681TIP3   OH244533   2.055   2.210   3.112  0.0520  0.0868 -0.1166
 7681TIP3    H144534   2.137   2.231   3.158  0.3196 -0.9562 -0.0858
 7681TIP3    H244535   2.070   2.240   3.023  1.1492 -1.5472 -0.5471
 7682TIP3   OH244536   2.154   4.963  11.511 -0.1954 -0.2617 -0.1733
 7682TIP3    H144537   2.153   5.055  11.482 -0.6396 -0.5577 -1.1298
 7682TIP3    H244538   2.080   4.956  11.570  0.3112  0.1855  0.5296
 7683TIP3   OH244539   0.770   2.603   3.373 -0.1858 -0.2227 -0.3960
 7683TIP3    H144540   0.699   2.608   3.309  0.1095  1.1840 -0.6423
 7683TIP3    H244541   0.850   2.610   3.320  0.2488 -2.9217 -0.2547
 7684TIP3   OH244542   4.800   1.977   1.422 -0.2467  0.1653 -0.6119
 7684TIP3    H144543   4.743   1.949   1.494  1.0920  0.0412  0.4492
 7684TIP3    H244544   4.774   2.067   1.404  0.4312  0.7530  1.1473
 7685TIP3   OH244545   2.886   4.082  14.514  0.0552  0.1126 -0.0251
 7685TIP3    H144546   2.792   4.085  14.496  0.0175 -1.5410 -0.2464
 7685TIP3    H244547   2.905   4.165  14.557 -1.5577  0.3723  0.2274
 7686TIP3   OH244548   3.124   1.388  12.533 -0.4551  0.8972  0.3303
 7686TIP3    H144549   3.147   1.373  12.442  2.5517  1.2569  0.9395
 7686TIP3    H244550   3.047   1.446  12.529  0.1285  1.6025 -1.9735
 7687TIP3   OH244551   6.663   0.931  15.723  0.1350 -0.5930  0.3632
 7687TIP3    H144552   6.618   0.930  15.808 -0.4512 -2.1152  0.0665
 7687TIP3    H244553   6.747   0.974  15.741 -0.3147 -0.1512  1.5180
 7688TIP3   OH244554   0.958   0.173   6.338 -0.7094  0.2343 -0.2230
 7688TIP3    H144555   0.977   0.157   6.246 -1.1632  0.7433 -0.4102
 7688TIP3    H244556   1.041   0.202   6.375 -0.0512 -1.7212 -0.0366
 7689TIP3   OH244557   6.306   6.046  10.519  0.0059  0.3574  0.9683
 7689TIP3    H144558   6.344   6.105  10.584  0.6635  0.1177  0.8040
 7689TIP3    H244559   6.270   5.974  10.571  0.9170 -0.0512  1.0506
 7690TIP3   OH244560   6.696   0.847   3.110 -0.4993 -0.1408 -0.3587
 7690TIP3    H144561   6.670   0.824   3.020  1.4356 -0.5443 -0.8500
 7690TIP3    H244562   6.789   0.866   3.104 -0.9416  3.0649  0.9711
 7691TIP3   OH244563   5.734   4.014   6.020 -0.1309  0.1040  0.4183
 7691TIP3    H144564   5.639   4.008   6.010 -0.4582 -2.0452  3.1716
 7691TIP3    H244565   5.756   3.937   6.073  3.3344 -0.0684 -1.0370
 7692TIP3   OH244566   5.374   1.568   4.352  0.0827 -0.0074  0.2877
 7692TIP3    H144567   5.362   1.476   4.377  1.2761  0.1474  1.5615
 7692TIP3    H244568   5.466   1.586   4.373 -0.5372  1.9194  1.6311
 7693TIP3   OH244569   2.047   2.287   3.621 -0.2660  0.6541  0.3034
 7693TIP3    H144570   2.038   2.281   3.716 -2.5196  1.0931  0.1923
 7693TIP3    H244571   1.966   2.248   3.587  0.4754  0.5447 -1.4362
 7694TIP3   OH244572   1.451   4.586  11.276 -0.1789  0.0768 -0.6742
 7694TIP3    H144573   1.455   4.527  11.202 -0.2542  0.4425 -0.9756
 7694TIP3    H244574   1.458   4.674  11.237  0.0746  0.2596 -0.2260
 7695TIP3   OH244575   6.749   1.514   2.241  0.0052  0.4210 -0.0643
 7695TIP3    H144576   6.759   1.436   2.186  1.4035 -0.4958  1.3771
 7695TIP3    H244577   6.655   1.525   2.251 -0.2322 -0.3910 -1.2418
 7696TIP3   OH244578   1.692   4.284  12.867  0.4672  0.1508 -0.9127
 7696TIP3    H144579   1.743   4.310  12.790  1.7381 -2.2012 -0.9634
 7696TIP3    H244580   1.604   4.267  12.833 -0.4141  3.7858 -0.9039
 7697TIP3   OH244581   1.336   2.819   3.779 -0.5294  0.1490  0.5548
 7697TIP3    H144582   1.368   2.903   3.812  0.9096 -0.4409  0.7002
 7697TIP3    H244583   1.284   2.784   3.851 -2.3147  1.4932  0.0089
 7698TIP3   OH244584   5.072   3.141   2.884 -0.3914  0.3297  0.1670
 7698TIP3    H144585   5.166   3.161   2.886 -0.0120 -1.3894  0.9589
 7698TIP3    H244586   5.066   3.051   2.915 -2.1792 -0.0936 -1.2435
 7699TIP3   OH244587   0.830   2.851  12.433  0.0168  0.0954  0.0940
 7699TIP3    H144588   0.822   2.774  12.489 -1.2719  0.2102  0.0890
 7699TIP3    H244589   0.848   2.923  12.494 -1.2721  0.2022  0.3739
 7700TIP3   OH244590   0.580   5.034  16.942 -0.7499 -0.7323 -0.0806
 7700TIP3    H144591   0.569   5.128  16.930 -0.1914 -0.6895 -0.3095
 7700TIP3    H244592   0.666   5.025  16.984  0.0416 -1.2380 -1.7074
 7701TIP3   OH244593   0.780   6.188  16.128 -0.1426  0.3792  0.2593
 7701TIP3    H144594   0.766   6.144  16.044 -0.1052 -0.8575  0.8710
 7701TIP3    H244595   0.736   6.132  16.192  0.6929  0.7524  1.1933
 7702TIP3   OH244596   0.042   1.583   1.905  0.0963 -0.2929 -0.2763
 7702TIP3    H144597  -0.047   1.608   1.932  0.1180  0.1429 -0.5809
 7702TIP3    H244598   0.039   1.488   1.897 -0.2888 -0.2997 -0.0849
 7703TIP3   OH244599   6.463   4.668  12.213 -0.0810  0.4616 -0.1893
 7703TIP3    H144600   6.386   4.616  12.238  1.4874 -2.3887 -0.7773
 7703TIP3    H244601   6.506   4.614  12.146  3.0091  1.3643  0.9176
 7704TIP3   OH244602   1.204   2.509   1.609  0.3045 -0.3031  0.5746
 7704TIP3    H144603   1.222   2.513   1.515  1.0404  2.0389  0.7613
 7704TIP3    H244604   1.170   2.420   1.623 -3.7784  0.4485 -2.5525
 7705TIP3   OH244605   4.178   1.438   0.260 -0.2034 -0.1963  0.4764
 7705TIP3    H144606   4.150   1.459   0.349  0.3635 -1.1867  0.9113
 7705TIP3    H244607   4.273   1.446   0.263 -0.1015 -1.1670  0.2333
 7706TIP3   OH244608   5.645   3.785   0.640 -0.6998 -0.0448  0.1019
 7706TIP3    H144609   5.595   3.722   0.588  0.3584 -0.7123 -0.1255
 7706TIP3    H244610   5.589   3.801   0.717 -1.7989  0.1574 -0.7180
 7707TIP3   OH244611   4.364   1.259   5.533 -0.4264  0.0762 -0.2837
 7707TIP3    H144612   4.292   1.243   5.595  0.3102  0.3139  0.6545
 7707TIP3    H244613   4.342   1.205   5.457 -1.7217  0.3274 -0.1133
 7708TIP3   OH244614   6.321   5.149  12.175  0.1732  0.4132 -0.0575
 7708TIP3    H144615   6.255   5.137  12.244  0.3571  0.6816  0.1681
 7708TIP3    H244616   6.332   5.243  12.168  1.5423  0.3694  0.9022
 7709TIP3   OH244617   3.675   6.215   2.225 -0.8939  0.2911  0.3889
 7709TIP3    H144618   3.678   6.255   2.312  1.4987  2.3184 -0.5235
 7709TIP3    H244619   3.719   6.131   2.236 -0.3696  0.6477  1.0897
 7710TIP3   OH244620   0.466   5.139  13.538  0.8318  0.0277 -0.4422
 7710TIP3    H144621   0.456   5.201  13.466  0.7954 -0.8799 -1.2361
 7710TIP3    H244622   0.559   5.145  13.562  0.7839  0.5311 -0.3789
 7711TIP3   OH244623   2.912   0.008   3.403 -0.5819 -0.3161 -0.0418
 7711TIP3    H144624   3.002  -0.019   3.383 -0.1382  0.5406  0.7227
 7711TIP3    H244625   2.918   0.044   3.491 -1.8431 -0.9820  0.3329
 7712TIP3   OH244626   2.709   3.066  13.095  0.1163 -0.0186  0.3658
 7712TIP3    H144627   2.660   2.984  13.088  2.6969 -1.7800  1.4754
 7712TIP3    H244628   2.642   3.131  13.119 -1.5749 -2.4697  2.9554
 7713TIP3   OH244629   1.549   0.475   2.369  0.4458 -0.0594  0.1783
 7713TIP3    H144630   1.597   0.415   2.312 -0.0444  0.1225 -0.4407
 7713TIP3    H244631   1.488   0.419   2.418  1.2173 -0.2798  0.9066
 7714TIP3   OH244632   5.139   0.893   2.349 -0.7025 -0.2613 -0.2920
 7714TIP3    H144633   5.163   0.882   2.441 -0.3075  0.8499 -0.2537
 7714TIP3    H244634   5.128   0.987   2.338  1.4994 -0.1152 -1.9315
 7715TIP3   OH244635   2.605   2.765  13.450  0.7740  0.6432 -0.0311
 7715TIP3    H144636   2.692   2.730  13.471  0.7714  1.0314  0.6536
 7715TIP3    H244637   2.604   2.772  13.355  0.6549 -1.5153 -0.2246
 7716TIP3   OH244638   3.720   6.528  12.729 -0.0574 -0.1194 -0.2919
 7716TIP3    H144639   3.795   6.564  12.777  0.8782 -0.6570 -1.3056
 7716TIP3    H244640   3.644   6.562  12.776  0.7950  1.1939  0.2162
 7717TIP3   OH244641   4.758   4.784   0.978 -0.2515 -0.3198 -0.6854
 7717TIP3    H144642   4.845   4.821   0.963 -0.3109 -0.1578 -0.6327
 7717TIP3    H244643   4.744   4.792   1.072 -1.6532  2.6776 -1.0381
 7718TIP3   OH244644   1.911   3.043   4.415  0.6042 -0.0747  0.1782
 7718TIP3    H144645   1.871   3.130   4.409 -0.3619 -0.4800  0.5977
 7718TIP3    H244646   1.967   3.038   4.337  0.0908  0.6324 -0.2540
 7719TIP3   OH244647   2.270   1.024  10.708  0.4530 -0.0823  0.0142
 7719TIP3    H144648   2.217   0.952  10.744 -0.1524 -0.1734 -1.0131
 7719TIP3    H244649   2.291   0.995  10.619 -0.1558  1.1888 -0.5639
 7720TIP3   OH244650   3.143   0.806  13.183  0.1115 -0.3807 -0.1254
 7720TIP3    H144651   3.190   0.745  13.240  0.1174 -1.2907 -1.0653
 7720TIP3    H244652   3.064   0.759  13.158  0.2384 -0.1041 -1.0710
 7721TIP3   OH244653   4.449   3.485   1.649 -0.0008  0.1704 -0.1137
 7721TIP3    H144654   4.487   3.487   1.737 -1.1580  0.9510  0.3957
 7721TIP3    H244655   4.455   3.576   1.619 -0.9496  0.1987 -0.2367
 7722TIP3   OH244656   6.308   2.961   5.816  0.8470 -0.1307  0.4808
 7722TIP3    H144657   6.328   2.868   5.808  2.0953  0.1107  0.6639
 7722TIP3    H244658   6.257   2.967   5.897  2.2360 -0.4612  1.4161
 7723TIP3   OH244659   6.276   2.729  14.527  0.1251 -0.0309  0.7126
 7723TIP3    H144660   6.229   2.730  14.611  0.6433  1.0121  1.0129
 7723TIP3    H244661   6.312   2.641  14.521  0.2233 -0.0725  1.6769
 7724TIP3   OH244662   6.270   3.264  17.201 -0.5829 -0.0201  0.2305
 7724TIP3    H144663   6.329   3.338  17.216 -3.0023  2.2048 -0.6309
 7724TIP3    H244664   6.311   3.214  17.130  1.3557  0.1204  1.1819
 7725TIP3   OH244665   3.546   6.289  14.308 -0.2872  0.3010 -0.2946
 7725TIP3    H144666   3.573   6.273  14.399  0.1176 -0.8559 -0.5994
 7725TIP3    H244667   3.453   6.308  14.314 -0.1708  0.7148  0.4117
 7726TIP3   OH244668   6.774   5.251  13.808  0.4285 -0.6358 -0.0588
 7726TIP3    H144669   6.815   5.201  13.878  1.8605 -0.0183 -0.4205
 7726TIP3    H244670   6.786   5.342  13.833  1.4503 -0.3943 -1.3589
 7727TIP3   OH244671   5.122   4.793  12.091  0.2691  0.6649  0.5094
 7727TIP3    H144672   5.208   4.800  12.131  1.4330 -0.8773 -1.5320
 7727TIP3    H244673   5.137   4.811  11.998 -1.9091  1.9088  0.3337
 7728TIP3   OH244674   4.279   1.943  14.988 -0.3995  0.5128  0.3189
 7728TIP3    H144675   4.282   1.992  15.070  1.2969  3.3680 -1.2907
 7728TIP3    H244676   4.366   1.906  14.978 -0.9792 -0.9270  0.3727
 7729TIP3   OH244677   0.682   0.244   4.199  0.0154  0.3209 -0.0800
 7729TIP3    H144678   0.680   0.297   4.119 -0.2361  0.3441 -0.0573
 7729TIP3    H244679   0.687   0.307   4.270  0.2490  0.2997 -0.0773
 7730TIP3   OH244680   2.636   3.275  16.696 -0.1735 -0.9873 -0.1077
 7730TIP3    H144681   2.639   3.198  16.639  0.5373 -1.7973  0.9931
 7730TIP3    H244682   2.580   3.250  16.769 -1.1845  0.0889 -0.4722
 7731TIP3   OH244683   2.242   1.057   1.179  0.6441  0.3570 -0.7659
 7731TIP3    H144684   2.172   1.008   1.135 -1.0602  1.3002  0.7907
 7731TIP3    H244685   2.293   0.990   1.224 -2.0882 -0.1176  1.9436
 7732TIP3   OH244686   2.665   1.883  16.315 -0.2872  0.6139 -0.0218
 7732TIP3    H144687   2.720   1.805  16.312  1.2237  1.6471 -1.6192
 7732TIP3    H244688   2.684   1.922  16.400  0.3924  0.2021  0.0249
 7733TIP3   OH244689   6.645   3.920  13.814  0.8690 -0.8391  0.0710
 7733TIP3    H144690   6.586   3.871  13.871  0.3131 -0.2526  0.0072
 7733TIP3    H244691   6.679   3.854  13.753 -0.7202 -0.9674 -0.7262
 7734TIP3   OH244692   4.853   0.667  11.453 -0.1425 -0.2685  0.1151
 7734TIP3    H144693   4.766   0.639  11.480 -0.2759 -1.0690 -1.0365
 7734TIP3    H244694   4.904   0.586  11.450  0.0903 -0.0930 -1.1049
 7735TIP3   OH244695   5.198   6.573  16.729 -0.3939 -0.6263  0.1549
 7735TIP3    H144696   5.242   6.626  16.662  0.3022 -0.0840  1.0121
 7735TIP3    H244697   5.113   6.615  16.742  0.7550  1.3356  1.9758
 7736TIP3   OH244698   0.955   4.160   1.872 -0.1225 -0.2619  0.9149
 7736TIP3    H144699   0.990   4.245   1.846  2.0284 -0.5349  2.5988
 7736TIP3    H244700   0.974   4.102   1.799 -2.0344  0.7057 -0.4608
 7737TIP3   OH244701   5.183   3.252  12.415  0.5405  0.3200 -0.2700
 7737TIP3    H144702   5.156   3.344  12.409  2.2449  0.9738  1.3156
 7737TIP3    H244703   5.231   3.237  12.334  2.1785  1.5407  0.4344
 7738TIP3   OH244704   1.993   1.773   4.628 -0.1371  0.5250  0.3202
 7738TIP3    H144705   2.028   1.838   4.688 -1.2895  1.5659 -0.1101
 7738TIP3    H244706   1.906   1.805   4.604 -0.3891 -0.7299 -0.5738
 7739TIP3   OH244707   2.547   6.584  14.414  0.0056 -0.3862  0.1444
 7739TIP3    H144708   2.506   6.507  14.453 -2.3510  2.1553  3.2670
 7739TIP3    H244709   2.490   6.608  14.342  0.5549 -1.3220 -0.6146
 7740TIP3   OH244710   5.158   5.746   0.940 -0.4884 -0.1973 -0.5388
 7740TIP3    H144711   5.230   5.787   0.987 -0.7815 -0.7173  0.3894
 7740TIP3    H244712   5.185   5.747   0.848  0.6572 -0.3030 -0.2095
 7741TIP3   OH244713   0.229   1.502  13.848 -0.1685 -0.2175  0.5090
 7741TIP3    H144714   0.209   1.576  13.906  0.4567 -0.5722  1.1791
 7741TIP3    H244715   0.202   1.425  13.898 -0.3872 -0.4764 -0.0068
 7742TIP3   OH244716   3.230   6.446  13.809 -0.0670  0.8452 -0.0726
 7742TIP3    H144717   3.207   6.414  13.722 -1.9113  1.7596  0.0323
 7742TIP3    H244718   3.303   6.391  13.836 -1.1629 -1.2505 -1.1016
 7743TIP3   OH244719   3.720   6.316  15.760 -0.0795 -0.3062 -0.2572
 7743TIP3    H144720   3.628   6.290  15.754 -0.4702  1.1165 -0.8126
 7743TIP3    H244721   3.727   6.394  15.704  1.4246 -0.2860 -0.0873
 7744TIP3   OH244722   1.185   0.281  15.563 -0.2783 -0.3387 -0.7679
 7744TIP3    H144723   1.213   0.371  15.553  1.3004 -0.7548 -0.3678
 7744TIP3    H244724   1.190   0.244  15.475  0.0151 -0.2906 -0.7723
 7745TIP3   OH244725   4.621   2.563   2.754  0.4663  0.0823  0.3854
 7745TIP3    H144726   4.691   2.526   2.808 -1.7090 -0.7230  2.8687
 7745TIP3    H244727   4.600   2.646   2.796 -1.6779 -0.8355  1.2447
 7746TIP3   OH244728   0.016   2.077   2.399 -0.2734 -0.5761  0.6483
 7746TIP3    H144729   0.107   2.049   2.387 -0.2256 -0.4119  0.6374
 7746TIP3    H244730   0.007   2.154   2.344  0.6667  1.7910  3.5849
 7747TIP3   OH244731   4.733   5.354   5.305 -0.4976  0.2499  0.4445
 7747TIP3    H144732   4.651   5.305   5.316 -0.0664 -1.1830 -2.0179
 7747TIP3    H244733   4.705   5.444   5.290 -1.4665  0.2445  1.9963
 7748TIP3   OH244734   1.631   4.495  14.810 -0.0962 -0.2683 -0.0241
 7748TIP3    H144735   1.695   4.563  14.828 -1.2400  0.9324 -0.3143
 7748TIP3    H244736   1.681   4.426  14.766  0.7973  1.1400 -1.3293
 7749TIP3   OH244737   0.452   3.413   2.325  0.5206 -0.5713  0.5080
 7749TIP3    H144738   0.478   3.410   2.233  0.4653  0.5728  0.4365
 7749TIP3    H244739   0.532   3.434   2.372  0.1567  1.1287  0.4658
 7750TIP3   OH244740   4.782   3.672  13.560  0.1490  0.1846 -0.2312
 7750TIP3    H144741   4.872   3.677  13.591 -0.0595  0.1047  0.3969
 7750TIP3    H244742   4.729   3.695  13.636 -0.4350 -1.4958 -0.0679
 7751TIP3   OH244743   6.728   2.605  14.380 -0.0784  0.0356  0.6533
 7751TIP3    H144744   6.649   2.565  14.344 -0.4813  1.4361 -0.1095
 7751TIP3    H244745   6.789   2.533  14.391  0.1349 -0.5241 -3.0339
 7752TIP3   OH244746   3.895   3.802  15.481  0.0528  0.4304  0.4704
 7752TIP3    H144747   3.965   3.799  15.546 -0.5604 -2.0821  1.1299
 7752TIP3    H244748   3.819   3.838  15.529 -0.0632 -0.2613  0.8232
 7753TIP3   OH244749   1.686   6.441  15.479 -0.1032 -0.1148 -0.2849
 7753TIP3    H144750   1.624   6.512  15.463  0.6593  0.6019 -0.1443
 7753TIP3    H244751   1.731   6.466  15.559 -2.0792 -2.3980  1.6797
 7754TIP3   OH244752   4.535   5.773   0.818  0.0523 -0.3254  0.5200
 7754TIP3    H144753   4.440   5.784   0.808  0.4405  1.9102 -2.0146
 7754TIP3    H244754   4.561   5.843   0.878  0.3845  1.2396 -1.3379
 7755TIP3   OH244755   0.570   1.571   4.178  0.2622 -0.1940 -0.3752
 7755TIP3    H144756   0.475   1.562   4.187  0.4346 -1.1493  0.7008
 7755TIP3    H244757   0.606   1.523   4.252  1.6093 -0.3359 -1.0848
 7756TIP3   OH244758   3.209   5.271  10.717  0.2558  0.0742 -0.8490
 7756TIP3    H144759   3.132   5.314  10.754  1.4527  1.5425  0.0734
 7756TIP3    H244760   3.185   5.251  10.626 -0.4887  2.5570 -1.2741
 7757TIP3   OH244761   5.605   2.625   1.131 -0.4674 -0.0206 -0.2389
 7757TIP3    H144762   5.571   2.542   1.096 -0.4929 -0.9028  1.7308
 7757TIP3    H244763   5.531   2.686   1.125 -1.0794 -0.7120  0.0936
 7758TIP3   OH244764   2.715   0.537  13.037 -0.1535  0.3070  0.3117
 7758TIP3    H144765   2.630   0.578  13.055 -0.8072 -0.2105 -1.3820
 7758TIP3    H244766   2.693   0.447  13.012  0.2638  1.3446 -4.8867
 7759TIP3   OH244767   0.877   4.594   6.097 -0.5732 -0.1784  0.0329
 7759TIP3    H144768   0.818   4.519   6.091 -0.5764 -0.4641  2.6957
 7759TIP3    H244769   0.830   4.657   6.152  0.0155  1.2238 -1.0137
 7760TIP3   OH244770   6.329   4.015  17.094 -0.6685  0.4809 -0.0253
 7760TIP3    H144771   6.310   4.073  17.020 -2.7197 -1.9152 -1.5385
 7760TIP3    H244772   6.420   4.035  17.116 -0.0447  1.5567 -2.9785
 7761TIP3   OH244773   0.813   1.912   2.573 -0.7643 -0.4456  0.1932
 7761TIP3    H144774   0.778   1.830   2.608  1.1266 -1.3503  0.1061
 7761TIP3    H244775   0.801   1.904   2.478 -0.6545 -0.6004  0.1908
 7762TIP3   OH244776   4.481   1.501   3.256  0.0144  0.0031  0.6889
 7762TIP3    H144777   4.440   1.415   3.249 -0.0260 -0.1440  2.4175
 7762TIP3    H244778   4.572   1.484   3.279  0.3492  0.4105 -0.2580
 7763TIP3   OH244779   6.427   5.861   4.770 -0.3352 -0.0874  0.2489
 7763TIP3    H144780   6.339   5.871   4.734 -0.5862  0.4752  0.9964
 7763TIP3    H244781   6.428   5.772   4.806 -0.1768 -0.5501 -0.8418
 7764TIP3   OH244782   3.299   0.346   0.091 -0.4193 -0.5781 -0.3801
 7764TIP3    H144783   3.291   0.259   0.051  1.2072 -0.7460 -0.3987
 7764TIP3    H244784   3.300   0.406   0.016 -0.5578 -0.6197 -0.4167
 7765TIP3   OH244785   5.037   6.014  15.647  0.1532 -0.7550 -0.0800
 7765TIP3    H144786   4.995   6.009  15.561  0.6564 -0.1812 -0.3633
 7765TIP3    H244787   4.964   6.013  15.709 -0.3798  1.2356 -0.5953
 7766TIP3   OH244788   2.159   2.847  11.344 -0.1132 -0.0169  0.0583
 7766TIP3    H144789   2.216   2.792  11.398  1.3860  1.1308 -0.2762
 7766TIP3    H244790   2.091   2.877  11.404 -0.0972 -1.0306  0.6039
 7767TIP3   OH244791   3.539   5.896   4.614  0.1910  0.5343 -0.4194
 7767TIP3    H144792   3.613   5.876   4.671  0.8573  1.3766 -0.9649
 7767TIP3    H244793   3.511   5.984   4.640  0.8950  1.1918 -1.7605
 7768TIP3   OH244794   6.814   2.238   2.147 -0.1539 -0.5314  0.1826
 7768TIP3    H144795   6.768   2.216   2.066 -0.7723 -1.9613  0.8952
 7768TIP3    H244796   6.899   2.271   2.117 -0.9283  0.4154 -1.0873
 7769TIP3   OH244797   5.056   5.447  11.445  0.0882 -0.3802  0.0972
 7769TIP3    H144798   5.133   5.430  11.392 -0.9380  2.3441 -2.5414
 7769TIP3    H244799   5.041   5.542  11.437 -3.3613 -0.7296  0.6909
 7770TIP3   OH244800   1.928   0.455  14.864  0.4479 -0.1400  0.0621
 7770TIP3    H144801   1.851   0.454  14.807  0.3119  1.0599  0.2028
 7770TIP3    H244802   2.002   0.448  14.804  0.2460 -2.2342 -0.0174
 7771TIP3   OH244803   5.183   6.150   5.385 -0.7470 -0.1745 -0.0108
 7771TIP3    H144804   5.114   6.200   5.426  0.2363  0.6289  0.7130
 7771TIP3    H244805   5.226   6.212   5.325  2.1129  0.7822  2.7299
 7772TIP3   OH244806   6.642   5.553  12.553 -0.0477 -0.0412 -0.6039
 7772TIP3    H144807   6.601   5.476  12.513 -3.7966  1.7976 -0.7805
 7772TIP3    H244808   6.687   5.596  12.480  0.2922 -0.9907 -0.9666
 7773TIP3   OH244809   4.266   3.040  11.442  0.0351 -0.3759  0.0564
 7773TIP3    H144810   4.314   2.970  11.488  1.5538  0.4763 -0.1962
 7773TIP3    H244811   4.297   3.036  11.352 -1.1334 -0.4409 -0.3663
 7774TIP3   OH244812   2.387   1.918  11.900 -0.2223  0.8051 -0.3220
 7774TIP3    H144813   2.398   1.905  11.994 -1.1730 -2.3240 -0.5115
 7774TIP3    H244814   2.303   1.963  11.891 -0.5476  0.3550  0.3471
 7775TIP3   OH244815   5.115   3.141  15.046  0.3576  0.1743  0.0671
 7775TIP3    H144816   5.049   3.207  15.068  1.5789  1.5969 -0.3274
 7775TIP3    H244817   5.068   3.076  14.993 -1.2015 -0.0616  1.6648
 7776TIP3   OH244818   4.822   5.721   5.707 -0.5624  0.4340  0.1909
 7776TIP3    H144819   4.759   5.654   5.681 -1.4528  1.2467  0.1968
 7776TIP3    H244820   4.783   5.762   5.784 -1.3805  2.7428 -1.3403
 7777TIP3   OH244821   4.896   2.075  12.161  0.1020  0.3632  0.1881
 7777TIP3    H144822   4.951   2.000  12.182 -0.3152  0.1906  0.7069
 7777TIP3    H244823   4.957   2.146  12.142  0.4988 -0.0823 -0.2051
 7778TIP3   OH244824   5.846   3.331  14.428  0.4777  0.5986  0.4316
 7778TIP3    H144825   5.918   3.306  14.486 -0.0959 -3.3085 -0.2212
 7778TIP3    H244826   5.889   3.368  14.351  1.8154 -0.8463  0.4206
 7779TIP3   OH244827   5.796   4.062  15.036 -0.2303  0.0115 -0.5407
 7779TIP3    H144828   5.868   4.116  15.005 -0.9238  1.0151 -0.4720
 7779TIP3    H244829   5.755   4.030  14.955 -1.8683  2.4011 -0.7829
 7780TIP3   OH244830   1.671   5.359  14.126 -0.5076  0.3853  0.3138
 7780TIP3    H144831   1.661   5.274  14.084 -1.3026  1.2618 -1.4020
 7780TIP3    H244832   1.652   5.422  14.056 -0.1372  1.9671  1.5808
 7781TIP3   OH244833   1.653   2.436   0.258 -0.5883  0.0398  0.1183
 7781TIP3    H144834   1.617   2.518   0.291  1.4298  0.0527  2.5342
 7781TIP3    H244835   1.726   2.463   0.202  1.6174 -0.0113  2.8034
 7782TIP3   OH244836   0.010   6.591   1.634 -0.5055 -0.0819 -0.0118
 7782TIP3    H144837  -0.071   6.641   1.628 -1.1415 -1.0030  0.6129
 7782TIP3    H244838  -0.015   6.501   1.610  0.6235 -0.1081 -1.2073
 7783TIP3   OH244839   4.236   0.509  12.986 -0.1606 -0.4611 -0.1827
 7783TIP3    H144840   4.175   0.537  13.054  1.4859  1.7108  0.5313
 7783TIP3    H244841   4.300   0.454  13.031 -1.1231 -2.1788 -0.7992
 7784TIP3   OH244842   4.392   5.948   5.164 -0.0471 -0.4252 -0.2326
 7784TIP3    H144843   4.435   5.922   5.083  0.5347 -0.2684  0.0227
 7784TIP3    H244844   4.384   6.044   5.158 -2.4503 -0.6035 -1.3048
 7785TIP3   OH244845   6.247   4.466   5.206 -0.0322  0.3918 -0.5260
 7785TIP3    H144846   6.340   4.452   5.186 -0.6388 -1.9184 -2.1084
 7785TIP3    H244847   6.248   4.525   5.281  2.7364 -0.3528  0.1614
 7786TIP3   OH244848   5.433   6.748  11.247  0.0837  0.2125  0.2004
 7786TIP3    H144849   5.455   6.692  11.321  0.2442  1.7720  1.3977
 7786TIP3    H244850   5.498   6.819  11.250 -2.0345  2.2790  0.8451
 7787TIP3   OH244851   6.219   2.756  16.100 -0.2700 -0.7584  0.4624
 7787TIP3    H144852   6.256   2.806  16.172 -1.8543  1.9292 -0.4627
 7787TIP3    H244853   6.128   2.741  16.124 -0.5285 -0.7692 -0.4748
 7788TIP3   OH244854   3.635   6.045   3.315  0.6129  0.3109 -0.0688
 7788TIP3    H144855   3.727   6.050   3.342  0.9798  0.6055 -1.3197
 7788TIP3    H244856   3.631   6.092   3.232 -1.1981  2.6102  1.2021
 7789TIP3   OH244857   1.122   2.839   1.661  0.0578 -0.3871  0.0305
 7789TIP3    H144858   1.053   2.902   1.645 -0.5412 -1.4905 -2.1448
 7789TIP3    H244859   1.104   2.804   1.749  1.0607  3.1094  1.8141
 7790TIP3   OH244860   6.032   6.752  12.489  0.8049  0.2253 -0.0885
 7790TIP3    H144861   6.049   6.823  12.551  1.4645  2.0911 -2.2724
 7790TIP3    H244862   6.080   6.777  12.410  1.0626 -2.6875 -0.9719
 7791TIP3   OH244863   1.784   5.589  13.083 -0.2755 -0.6796 -0.8068
 7791TIP3    H144864   1.711   5.542  13.043 -0.9088 -0.3140 -0.1005
 7791TIP3    H244865   1.807   5.535  13.159 -1.3763  0.3998  0.3392
 7792TIP3   OH244866   6.826   2.462   4.794  0.0528  0.1140  0.1219
 7792TIP3    H144867   6.877   2.480   4.715 -1.8083  0.8429 -0.9841
 7792TIP3    H244868   6.778   2.543   4.810 -1.3758 -0.7974  0.6077
 7793TIP3   OH244869   0.787   3.101   3.748  0.0511 -0.3697  0.1266
 7793TIP3    H144870   0.744   3.072   3.667 -0.1278  0.9413 -0.2757
 7793TIP3    H244871   0.860   3.041   3.759  1.2891  0.5866 -2.1486
 7794TIP3   OH244872   5.789   4.101  16.742  0.3131 -0.2067 -0.0636
 7794TIP3    H144873   5.738   4.071  16.667  0.0197  1.7003 -0.6932
 7794TIP3    H244874   5.724   4.117  16.810  0.4565 -0.8530  0.2344
 7795TIP3   OH244875   3.979   4.051   4.864 -0.1311  0.3295  0.0510
 7795TIP3    H144876   3.886   4.049   4.886  0.2168 -0.3269  1.6275
 7795TIP3    H244877   3.983   4.093   4.778 -1.7536  1.9044  0.6816
 7796TIP3   OH244878   1.880   3.924   1.557 -0.2071 -0.1131  0.3862
 7796TIP3    H144879   1.883   4.014   1.589  2.9594 -0.5901  1.8704
 7796TIP3    H244880   1.913   3.872   1.631  0.6182 -2.1326 -1.3152
 7797TIP3   OH244881   5.190   2.335   0.756 -0.4322 -0.6434 -0.1085
 7797TIP3    H144882   5.196   2.382   0.839  0.1990  0.4366 -0.7517
 7797TIP3    H244883   5.202   2.402   0.689 -0.8706 -1.5134 -1.0749
 7798TIP3   OH244884   1.036   3.322   2.367  0.0293 -0.1216 -0.5382
 7798TIP3    H144885   1.019   3.261   2.439 -1.8497  0.6218 -0.3073
 7798TIP3    H244886   0.955   3.323   2.316  0.9649  0.1580 -2.0986
 7799TIP3   OH244887   6.421   3.833  12.196 -0.5970 -0.0587  0.5085
 7799TIP3    H144888   6.344   3.785  12.227  0.3264 -1.4787  0.6676
 7799TIP3    H244889   6.494   3.772  12.207  0.4561  1.0120 -0.2756
 7800TIP3   OH244890   1.833   6.683  10.986  0.0618  0.1101 -0.5067
 7800TIP3    H144891   1.804   6.603  10.942  2.2302 -0.6566 -0.6293
 7800TIP3    H244892   1.928   6.682  10.979  0.3370  1.2866  1.9385
 7801TIP3   OH244893   0.601   0.269  16.108  0.2560 -0.2352  0.1618
 7801TIP3    H144894   0.584   0.202  16.042 -1.1540 -1.2194  1.4572
 7801TIP3    H244895   0.694   0.259  16.128  0.0667 -1.8972  0.3839
 7802TIP3   OH244896   5.172   3.222  11.079  0.5143 -0.1256  0.3051
 7802TIP3    H144897   5.226   3.153  11.117  0.1904 -0.6771 -0.2098
 7802TIP3    H244898   5.189   3.216  10.985 -0.3835 -0.2705  0.1448
 7803TIP3   OH244899   4.961   6.590  11.996  1.0337 -0.5548  0.6891
 7803TIP3    H144900   5.013   6.630  12.065 -0.0972 -0.8027  1.7231
 7803TIP3    H244901   5.024   6.541  11.943  2.5378  2.6798 -0.7743
 7804TIP3   OH244902   3.190   3.792  13.081 -0.3071  0.7698 -0.1673
 7804TIP3    H144903   3.277   3.827  13.099 -0.2401  0.1414  0.8318
 7804TIP3    H244904   3.136   3.870  13.065 -0.0721  1.3406  1.5920
 7805TIP3   OH244905   5.554   3.762  13.521  0.4547  0.7000  0.4286
 7805TIP3    H144906   5.607   3.810  13.457  0.0494  1.4651  0.6549
 7805TIP3    H244907   5.548   3.822  13.596 -3.2941  2.0069 -0.7048
 7806TIP3   OH244908   5.614   4.016   5.221 -0.1454 -0.3067 -0.1839
 7806TIP3    H144909   5.658   3.999   5.138  1.2857  1.6710  0.1030
 7806TIP3    H244910   5.545   4.079   5.199  0.8210  0.9424  0.1979
 7807TIP3   OH244911   2.504   1.671  10.393 -0.0971 -0.1091 -0.4765
 7807TIP3    H144912   2.581   1.676  10.336  0.3025  0.3409  0.0976
 7807TIP3    H244913   2.504   1.754  10.440 -0.3087 -0.5582  0.3243
 7808TIP3   OH244914   4.953   5.710  14.631 -0.1454 -0.4703  0.5828
 7808TIP3    H144915   4.922   5.798  14.612  0.5667 -0.1292  0.9756
 7808TIP3    H244916   5.031   5.723  14.684  1.1966 -1.2540 -1.0876
 7809TIP3   OH244917   1.458   6.375  14.428 -0.3078  0.0088 -0.2078
 7809TIP3    H144918   1.526   6.312  14.405 -0.4294 -0.6197  1.0540
 7809TIP3    H244919   1.504   6.458  14.440  0.1999 -0.3576  0.3941
 7810TIP3   OH244920   1.888   0.772   1.689 -0.0890  0.1318 -0.0579
 7810TIP3    H144921   1.863   0.807   1.604  0.1461  0.4358 -0.0050
 7810TIP3    H244922   1.856   0.682   1.689 -0.8986  0.4110 -0.1121
 7811TIP3   OH244923   5.115   0.963   4.198  0.1476 -0.6898  0.4072
 7811TIP3    H144924   5.037   0.927   4.155  1.0137 -2.8679  0.5251
 7811TIP3    H244925   5.188   0.923   4.151  1.1789 -0.0133  1.3941
 7812TIP3   OH244926   1.421   5.137  17.158 -0.1536 -0.6807  0.1231
 7812TIP3    H144927   1.351   5.196  17.185  0.4206 -0.8846  2.2075
 7812TIP3    H244928   1.401   5.054  17.202  0.2525 -1.3774 -0.9699
 7813TIP3   OH244929   5.917   5.896   1.434 -0.2448  0.1353  0.0351
 7813TIP3    H144930   5.872   5.903   1.518  0.5721 -0.9823  0.6023
 7813TIP3    H244931   5.890   5.973   1.385 -2.1216 -0.0895  0.6503
 7814TIP3   OH244932   1.739   3.004   2.765  0.1114 -0.2461  0.2029
 7814TIP3    H144933   1.779   3.076   2.715 -1.5109  0.3968 -0.2201
 7814TIP3    H244934   1.775   3.014   2.853 -1.1475  2.0377  0.5431
 7815TIP3   OH244935   4.015   0.353  11.555 -0.1655  0.3329 -0.3281
 7815TIP3    H144936   4.037   0.404  11.477 -1.1882 -1.2544 -1.7130
 7815TIP3    H244937   3.929   0.315  11.536 -0.9043  0.6720  1.9901
 7816TIP3   OH244938   0.400   5.618  15.417 -0.1875  0.4277  0.0488
 7816TIP3    H144939   0.323   5.573  15.381 -1.0356  0.8058  1.3391
 7816TIP3    H244940   0.433   5.671  15.344  0.4935 -1.7749 -1.3442
 7817TIP3   OH244941   4.952   6.450  12.243  0.1587 -0.5369 -0.0941
 7817TIP3    H144942   5.008   6.526  12.229  1.1634 -0.9861  1.2564
 7817TIP3    H244943   4.922   6.458  12.334 -1.0187 -0.9426 -0.4195
 7818TIP3   OH244944   4.056   4.168  16.243  0.6550 -0.2635 -0.5045
 7818TIP3    H144945   4.050   4.115  16.322 -0.6976 -0.2012 -0.5354
 7818TIP3    H244946   4.014   4.115  16.175  1.5591 -0.2031 -1.1240
 7819TIP3   OH244947   4.031   1.521  12.052  0.0408  0.1604 -0.3836
 7819TIP3    H144948   4.073   1.459  12.112 -0.3908  0.3727  0.1506
 7819TIP3    H244949   4.101   1.578  12.022  0.4740 -0.6752 -1.0015
 7820TIP3   OH244950   2.173   2.957   5.186  0.3732 -0.0007  0.3041
 7820TIP3    H144951   2.236   3.010   5.234  0.9316 -1.5300  1.3269
 7820TIP3    H244952   2.088   2.980   5.225  0.5416  0.5100  0.3756
 7821TIP3   OH244953   3.082   3.570  12.404 -0.0750 -0.0516  0.7524
 7821TIP3    H144954   2.987   3.575  12.408 -0.0225  0.5261  1.6111
 7821TIP3    H244955   3.109   3.559  12.495  0.6830 -0.1574  0.5234
 7822TIP3   OH244956   2.978   4.013   3.206 -0.8277  0.5979  0.0361
 7822TIP3    H144957   3.065   3.979   3.230 -2.1188 -0.3721  4.0784
 7822TIP3    H244958   2.932   3.938   3.170 -0.3554  0.8792 -1.2073
 7823TIP3   OH244959   0.095   2.145   3.034 -0.6277 -0.3276 -0.2892
 7823TIP3    H144960   0.121   2.071   3.089  0.7235 -0.1542 -0.6729
 7823TIP3    H244961   0.166   2.208   3.042 -1.2365  0.4542 -0.8559
 7824TIP3   OH244962   5.454   5.966   5.909  0.3217  0.2007 -0.0333
 7824TIP3    H144963   5.431   6.051   5.945  2.2124 -0.0716  2.0090
 7824TIP3    H244964   5.534   5.982   5.859  0.1731 -0.2452 -0.4306
 7825TIP3   OH244965   0.196   4.431  15.142 -0.3602  0.1492 -0.1682
 7825TIP3    H144966   0.218   4.386  15.223 -1.6790 -0.2938 -0.0450
 7825TIP3    H244967   0.184   4.522  15.167  0.8984  0.3419 -0.1770
 7826TIP3   OH244968   0.823   2.682   4.939 -0.4478  1.1365  0.3683
 7826TIP3    H144969   0.733   2.692   4.972 -0.4534  0.0504  0.7493
 7826TIP3    H244970   0.814   2.689   4.844 -1.7260 -3.2074 -0.0768
 7827TIP3   OH244971   2.379   3.878  15.735 -0.1532  0.3792 -0.0735
 7827TIP3    H144972   2.469   3.848  15.734 -0.5627 -1.0765  1.7562
 7827TIP3    H244973   2.353   3.874  15.827 -2.4030 -0.3006 -0.6698
 7828TIP3   OH244974   1.712   0.579  14.290 -0.3669  0.3647  0.1004
 7828TIP3    H144975   1.635   0.597  14.344  0.9814  1.2986  1.8039
 7828TIP3    H244976   1.706   0.640  14.217 -1.9086 -0.5050 -0.5425
 7829TIP3   OH244977   1.865   6.214  15.441  0.2941  0.2692 -0.0178
 7829TIP3    H144978   1.787   6.205  15.495  0.7318 -1.2648  0.4008
 7829TIP3    H244979   1.836   6.268  15.367 -1.4412 -1.0484 -0.3700
 7830TIP3   OH244980   3.973   1.731  15.962 -0.5540 -0.4280  0.1646
 7830TIP3    H144981   3.991   1.668  15.893  1.8512 -1.5130  1.6786
 7830TIP3    H244982   3.888   1.704  15.998 -0.7883 -1.1625 -0.9014
 7831TIP3   OH244983   6.751   1.532   3.540  0.4240 -0.1936 -0.4209
 7831TIP3    H144984   6.805   1.550   3.617  0.0393 -0.4566 -0.0889
 7831TIP3    H244985   6.732   1.619   3.503  1.2268 -0.1077 -0.6538
 7832TIP3   OH244986   6.473   1.347  13.860 -0.4007 -0.1744  0.6717
 7832TIP3    H144987   6.424   1.356  13.778  2.7364 -0.7942 -1.4199
 7832TIP3    H244988   6.443   1.421  13.914 -0.8973  1.6773 -1.9539
 7833TIP3   OH244989   6.665   5.830  13.427  0.5161 -0.4079 -0.5507
 7833TIP3    H144990   6.728   5.844  13.356 -0.2229 -0.7200 -1.2822
 7833TIP3    H244991   6.583   5.866  13.393 -0.0012 -1.1584 -0.1219
 7834TIP3   OH244992   1.663   0.534   4.769  0.1217 -0.0010  0.4934
 7834TIP3    H144993   1.676   0.443   4.795  0.4802  0.4160  1.8437
 7834TIP3    H244994   1.734   0.552   4.708 -0.1648 -0.7249 -0.0701
 7835TIP3   OH244995   3.759   0.583   0.640 -0.1089  0.4518  0.2775
 7835TIP3    H144996   3.721   0.497   0.624  1.4424 -0.1659 -0.3331
 7835TIP3    H244997   3.826   0.593   0.571  0.5363  1.6333  1.0342
 7836TIP3   OH244998   2.480   3.873  13.263  0.4939 -0.3755  0.3525
 7836TIP3    H144999   2.459   3.837  13.349  2.4980 -0.6601  0.7731
 7836TIP3    H245000   2.575   3.890  13.266  0.7299 -0.9316 -1.9856
 7837TIP3   OH245001   3.616   4.815  14.445  0.9161  0.0230 -0.0764
 7837TIP3    H145002   3.646   4.725  14.437  0.2076 -0.2420  0.1636
 7837TIP3    H245003   3.520   4.809  14.444  0.8448  0.8585 -1.1089
 7838TIP3   OH245004   3.721   6.603  11.631 -0.2242  0.3131  0.2120
 7838TIP3    H145005   3.766   6.535  11.580  2.3996  2.6533 -0.7865
 7838TIP3    H245006   3.643   6.623  11.580 -1.9112 -2.8072  1.2528
 7839TIP3   OH245007   1.124   5.485   5.282  0.4868 -0.3428  0.0928
 7839TIP3    H145008   1.153   5.562   5.331 -2.9457  1.3870 -0.3336
 7839TIP3    H245009   1.150   5.503   5.192 -1.5258  1.1258 -0.2631
 7840TIP3   OH245010   1.877   5.892   7.039  0.2397 -0.4582 -0.7698
 7840TIP3    H145011   1.912   5.960   6.982 -1.2605  0.8555 -0.2225
 7840TIP3    H245012   1.787   5.880   7.009 -0.7345  0.5719  1.4851
 7841TIP3   OH245013   1.159   3.951  12.780 -0.5179  0.1890  0.0480
 7841TIP3    H145014   1.111   3.978  12.858 -1.3630 -1.9984  0.3818
 7841TIP3    H245015   1.126   3.862  12.762  0.4065  0.2274 -2.1863
 7842TIP3   OH245016   6.024   0.914  13.402 -0.4887 -0.1705  0.5839
 7842TIP3    H145017   6.042   0.820  13.411 -0.0856  0.0272  1.9312
 7842TIP3    H245018   5.996   0.942  13.489 -3.2305  0.4440 -0.4022
 7843TIP3   OH245019   5.659   1.196   1.049 -0.0732  0.1243 -0.4186
 7843TIP3    H145020   5.636   1.206   0.957 -1.8659  0.0151 -0.0101
 7843TIP3    H245021   5.720   1.268   1.066  0.9037 -0.3128 -1.8458
 7844TIP3   OH245022   3.506   4.881  12.131 -0.0896  0.0612  0.3252
 7844TIP3    H145023   3.539   4.816  12.070  1.1543  0.0485  0.9917
 7844TIP3    H245024   3.513   4.840  12.217 -0.2909  0.6819  0.6484
 7845TIP3   OH245025   3.440   3.217   2.563  0.0287  0.0650 -0.0940
 7845TIP3    H145026   3.406   3.131   2.588 -0.3864  0.2755  0.0696
 7845TIP3    H245027   3.449   3.264   2.646  0.3994  0.1284 -0.1682
 7846TIP3   OH245028   5.387   2.885  15.766  0.1423  0.3159 -0.1416
 7846TIP3    H145029   5.471   2.858  15.804 -1.4067 -1.2002  2.4482
 7846TIP3    H245030   5.362   2.963  15.816 -0.6886 -0.1277  0.1388
 7847TIP3   OH245031   3.390   5.625   4.830  0.2206 -0.0169 -0.0649
 7847TIP3    H145032   3.358   5.551   4.881 -1.3736  1.4050  1.1102
 7847TIP3    H245033   3.356   5.611   4.742 -1.0708 -0.1233  0.4323
 7848TIP3   OH245034   2.101   5.151   0.332 -0.0356 -0.2325  0.6429
 7848TIP3    H145035   2.170   5.206   0.297  0.4348 -1.0934  0.1768
 7848TIP3    H245036   2.047   5.210   0.385 -0.1947  0.8956 -0.7382
 7849TIP3   OH245037   5.808   0.636  11.307  0.5647 -0.2706  1.0399
 7849TIP3    H145038   5.804   0.717  11.257  1.8290  0.0781  1.4877
 7849TIP3    H245039   5.843   0.661  11.392 -1.6724 -0.8259  2.2139
 7850TIP3   OH245040   6.804   0.935   1.130 -0.6855 -0.0069 -0.4673
 7850TIP3    H145041   6.766   1.021   1.149  1.1470  0.6292  0.5994
 7850TIP3    H245042   6.835   0.904   1.215  0.6119 -0.7407 -1.1852
 7851TIP3   OH245043   3.885   2.189   0.443  0.3743  0.0893 -0.0843
 7851TIP3    H145044   3.920   2.256   0.500 -0.4342 -0.3478  0.9691
 7851TIP3    H245045   3.817   2.145   0.496 -1.4861  0.6488 -1.8569
 7852TIP3   OH245046   3.255   4.229  16.824  0.0742  0.1732 -0.1375
 7852TIP3    H145047   3.167   4.260  16.844  0.4713 -0.1787  2.5278
 7852TIP3    H245048   3.246   4.134  16.817  0.2071  0.1646 -0.2009
 7853TIP3   OH245049   5.370   3.074  15.043  0.0596 -0.2653  0.3913
 7853TIP3    H145050   5.386   3.055  15.136 -2.1939  0.0619  0.9025
 7853TIP3    H245051   5.283   3.114  15.041 -0.2907 -0.9769 -1.9518
 7854TIP3   OH245052   3.038   0.695  14.300 -0.0255  0.1018  0.1346
 7854TIP3    H145053   3.083   0.778  14.315  1.2757 -0.3659 -0.9964
 7854TIP3    H245054   3.028   0.689  14.205  1.0460 -1.5673  0.0677
 7855TIP3   OH245055   0.833   6.254  13.810 -0.2208 -0.0622 -0.0544
 7855TIP3    H145056   0.848   6.330  13.866  0.7289 -0.9830  0.9805
 7855TIP3    H245057   0.777   6.196  13.863  0.5664 -0.8760 -0.0882
 7856TIP3   OH245058   4.880   6.672   3.066 -0.1065  0.2009  0.5804
 7856TIP3    H145059   4.820   6.626   3.125 -1.2086  0.5726 -0.2056
 7856TIP3    H245060   4.910   6.747   3.117  0.7733 -0.7178  1.4531
 7857TIP3   OH245061   6.693   2.570   1.347 -0.2918  0.3538 -0.2905
 7857TIP3    H145062   6.625   2.629   1.380 -1.2830 -1.0475  0.2662
 7857TIP3    H245063   6.671   2.557   1.255 -1.0470 -0.4243 -0.0112
 7858TIP3   OH245064   0.469   3.645   5.263  0.2887  0.3995 -0.1784
 7858TIP3    H145065   0.411   3.718   5.245 -0.0180 -0.0436 -1.0480
 7858TIP3    H245066   0.496   3.614   5.176 -0.7531 -1.4393  0.0994
 7859TIP3   OH245067   4.172   6.423   0.460 -0.4793  0.5802 -0.0166
 7859TIP3    H145068   4.167   6.457   0.549  0.6907 -2.9843  1.5798
 7859TIP3    H245069   4.081   6.415   0.433 -0.8360  2.4278  0.4876
 7860TIP3   OH245070   3.431   4.202   5.709  0.2098  0.8047  0.1208
 7860TIP3    H145071   3.455   4.254   5.632 -1.5649 -0.3404 -1.3213
 7860TIP3    H245072   3.336   4.190   5.701 -0.1920  1.3519  3.0082
 7861TIP3   OH245073   5.308   0.610  10.639 -0.6474  0.2689  0.1941
 7861TIP3    H145074   5.394   0.651  10.632 -0.7836  0.6695  0.7675
 7861TIP3    H245075   5.256   0.652  10.570 -0.3398 -0.1127 -0.2800
 7862TIP3   OH245076   0.847   5.323   5.491  0.4842  0.1344  0.2806
 7862TIP3    H145077   0.828   5.241   5.536  0.0278  0.0321 -0.0903
 7862TIP3    H245078   0.768   5.342   5.441  1.1581 -0.0123 -0.8634
 7863TIP3   OH245079   4.943   1.971  11.688 -0.0927  0.5859  0.0710
 7863TIP3    H145080   4.984   1.895  11.731  1.2302  1.2398  0.0227
 7863TIP3    H245081   4.864   1.988  11.740 -1.4491 -1.9293 -1.0206
 7864TIP3   OH245082   6.455   1.967  14.054  0.1045  0.6857  0.6100
 7864TIP3    H145083   6.504   2.011  13.985  0.6623  0.4754  0.8623
 7864TIP3    H245084   6.512   1.895  14.082 -1.8167 -1.8787 -1.5573
 7865TIP3   OH245085   1.277   2.113  15.438 -0.3813 -0.5546 -0.3195
 7865TIP3    H145086   1.217   2.115  15.363 -0.9229  0.4288  0.1284
 7865TIP3    H245087   1.330   2.034  15.424 -0.6811 -0.5522 -1.5696
 7866TIP3   OH245088   3.083   0.551  11.981  0.1618  0.4523 -0.2607
 7866TIP3    H145089   2.990   0.552  11.961  0.1372 -1.6296 -0.4951
 7866TIP3    H245090   3.121   0.490  11.918  1.2376 -0.7472  1.4444
 7867TIP3   OH245091   0.873   0.125   4.714  0.2686  0.1891 -0.2217
 7867TIP3    H145092   0.954   0.117   4.765  0.6449 -0.2482 -0.8726
 7867TIP3    H245093   0.832   0.039   4.722  0.0762  0.2804 -0.2401
 7868TIP3   OH245094   5.701   4.313   3.572 -0.3566  0.2071  0.3072
 7868TIP3    H145095   5.751   4.263   3.637  0.2403  0.5425  0.1203
 7868TIP3    H245096   5.610   4.304   3.599 -0.5913 -2.9752 -1.0465
 7869TIP3   OH245097   5.134   5.710  11.299 -0.4132 -0.0879  0.2458
 7869TIP3    H145098   5.167   5.735  11.385 -0.9822  1.5349  0.0320
 7869TIP3    H245099   5.174   5.625  11.281  3.5923  1.5832  0.0902
 7870TIP3   OH245100   3.913   1.605  17.131  0.6127  0.2043  0.1626
 7870TIP3    H145101   3.893   1.618  17.224 -0.2088  1.0516 -0.1299
 7870TIP3    H245102   3.884   1.515  17.113 -2.1141  1.0424 -0.0067
 7871TIP3   OH245103   5.235   6.560   5.042  0.3503  0.4081 -0.2123
 7871TIP3    H145104   5.158   6.614   5.024 -0.8763 -0.7805  1.1921
 7871TIP3    H245105   5.295   6.579   4.970 -1.7134  0.5372 -2.0236
 7872TIP3   OH245106   5.967   1.979   3.373  0.2741  0.2937  0.1926
 7872TIP3    H145107   5.937   1.888   3.371 -2.1281  0.9803  0.7462
 7872TIP3    H245108   6.039   1.980   3.435 -0.3269 -1.0642  0.9580
 7873TIP3   OH245109   0.877   4.709   0.972  0.0227 -0.2010  0.1676
 7873TIP3    H145110   0.940   4.742   0.908 -0.0599  0.9832  0.6642
 7873TIP3    H245111   0.882   4.614   0.964  2.3447 -0.1819  0.6358
 7874TIP3   OH245112   3.934   2.323  11.278 -0.4367 -0.3387 -1.2113
 7874TIP3    H145113   3.859   2.374  11.248 -0.1894  1.9575  1.5793
 7874TIP3    H245114   3.900   2.275  11.354  0.9747  1.2587  0.5097
 7875TIP3   OH245115   3.080   3.845  16.398  0.3813  0.3451 -0.1578
 7875TIP3    H145116   3.030   3.917  16.434 -0.7039  0.4836 -1.8399
 7875TIP3    H245117   3.045   3.767  16.442  0.1566  0.6397  0.1921
 7876TIP3   OH245118   5.512   1.161   4.116  0.6882 -0.3683 -0.3832
 7876TIP3    H145119   5.519   1.254   4.136  1.8709 -0.2905 -1.1285
 7876TIP3    H245120   5.527   1.117   4.200 -0.6121  0.1030  0.1249
 7877TIP3   OH245121   5.425   3.071   3.877 -0.5185 -0.1340  0.5144
 7877TIP3    H145122   5.341   3.027   3.865 -0.4395 -0.3607  0.7862
 7877TIP3    H245123   5.490   3.005   3.853 -0.3756 -0.3831  1.5512
 7878TIP3   OH245124   4.400   0.419   0.180 -0.3466 -0.1775  0.0783
 7878TIP3    H145125   4.416   0.484   0.112 -0.8201 -1.7164 -1.5826
 7878TIP3    H245126   4.365   0.343   0.133 -0.2452 -1.4793  1.9904
 7879TIP3   OH245127   6.398   6.522  15.222 -0.0734  0.1788 -0.3225
 7879TIP3    H145128   6.357   6.447  15.179  0.2778 -0.2552  0.0691
 7879TIP3    H245129   6.333   6.591  15.219 -0.8130 -0.4705  0.2259
 7880TIP3   OH245130   5.559   1.485   1.458  0.7909  0.5054 -0.0421
 7880TIP3    H145131   5.534   1.482   1.365 -0.5807  0.9435  0.2933
 7880TIP3    H245132   5.519   1.406   1.495  2.7325 -0.5706 -0.1221
 7881TIP3   OH245133   0.479   2.217  15.196  0.1079 -0.3568 -0.4720
 7881TIP3    H145134   0.459   2.251  15.283 -1.0235 -0.6422 -0.5997
 7881TIP3    H245135   0.419   2.143  15.185  1.2064 -1.2074 -0.9488
 7882TIP3   OH245136   3.799   4.511   1.112  0.9774 -0.2903 -0.0438
 7882TIP3    H145137   3.834   4.438   1.163 -1.4231 -0.6609  1.2377
 7882TIP3    H245138   3.747   4.469   1.043  0.7399  0.1932 -0.1665
 7883TIP3   OH245139   1.088   4.816  12.439  0.0412 -0.2626  0.0314
 7883TIP3    H145140   1.088   4.896  12.387 -1.3321  0.3127  0.8555
 7883TIP3    H245141   1.162   4.765  12.405  0.6473  1.1303 -0.8302
 7884TIP3   OH245142   4.400   5.515   4.682  0.4051 -0.2982  0.1324
 7884TIP3    H145143   4.403   5.522   4.586  0.8139  0.5115  0.1957
 7884TIP3    H245144   4.438   5.430   4.701  1.9116  0.2421 -0.3407
 7885TIP3   OH245145   6.166   6.122  10.285 -0.6754 -1.0442 -0.6392
 7885TIP3    H145146   6.072   6.130  10.298 -0.4412 -0.8846  1.3517
 7885TIP3    H245147   6.202   6.116  10.374  1.0239 -3.3099 -1.3779
 7886TIP3   OH245148   2.534   6.736   3.575 -0.7222 -0.4666 -0.5764
 7886TIP3    H145149   2.505   6.820   3.613  1.6146  0.0920  0.1249
 7886TIP3    H245150   2.534   6.751   3.481 -2.1859 -0.3541 -0.5871
 7887TIP3   OH245151   5.443   1.225   6.016 -0.1482 -0.2252  0.3175
 7887TIP3    H145152   5.357   1.230   5.974  0.3156 -0.9621 -0.7718
 7887TIP3    H245153   5.430   1.164   6.088 -0.6814  0.1495  0.5495
 7888TIP3   OH245154   3.673   4.536   5.739 -0.0074 -0.1997 -0.4904
 7888TIP3    H145155   3.668   4.525   5.834 -1.1542 -1.9102 -0.7006
 7888TIP3    H245156   3.697   4.449   5.706  1.6579  0.6677 -1.7162
 7889TIP3   OH245157   3.898   3.294   3.492  0.2271 -0.0752 -0.5075
 7889TIP3    H145158   3.806   3.289   3.468  0.4943 -0.1706 -1.6233
 7889TIP3    H245159   3.899   3.322   3.583 -0.8982 -0.0694 -0.4866
 7890TIP3   OH245160   2.096   2.949  16.194  0.2196 -0.5726 -0.1071
 7890TIP3    H145161   2.110   3.025  16.250 -1.0325 -0.3653 -0.0641
 7890TIP3    H245162   2.178   2.940  16.145  0.3152  0.9339 -0.2707
 7891TIP3   OH245163   0.486   1.439   1.810  0.5230 -0.0671  0.0582
 7891TIP3    H145164   0.474   1.456   1.717  1.3764  0.0156 -0.0442
 7891TIP3    H245165   0.494   1.344   1.816  2.1456  0.0222 -0.1839
 7892TIP3   OH245166   0.397   5.252   4.714 -0.1161 -0.5135  0.2433
 7892TIP3    H145167   0.355   5.179   4.667  1.6333 -1.9562  0.8339
 7892TIP3    H245168   0.367   5.330   4.667 -2.6696 -1.5065  0.0591
 7893TIP3   OH245169   1.879   2.168   4.962  0.6407  0.2265  1.0336
 7893TIP3    H145170   1.905   2.098   5.022  1.1222 -2.7761 -2.3447
 7893TIP3    H245171   1.961   2.195   4.921  0.1227  1.0067  0.4862
 7894TIP3   OH245172   1.024   4.448   4.960 -0.2219  0.1470 -0.3646
 7894TIP3    H145173   1.046   4.371   4.907  0.9257 -1.2398  1.9776
 7894TIP3    H245174   1.039   4.420   5.050 -3.2284  2.0098  0.8660
 7895TIP3   OH245175   1.314   2.142   0.839  0.3330  0.7390  0.3537
 7895TIP3    H145176   1.292   2.229   0.807 -0.1824  1.1298  1.7040
 7895TIP3    H245177   1.230   2.098   0.851  0.4751  0.7103  1.3926
 7896TIP3   OH245178   4.191   3.279   5.352  0.0227 -0.0509  0.4261
 7896TIP3    H145179   4.212   3.311   5.440 -2.1763 -0.5613  1.2269
 7896TIP3    H245180   4.271   3.237   5.322  1.1654  1.0761  1.7389
 7897TIP3   OH245181   6.059   1.989  11.569  0.8117  0.2434  0.3303
 7897TIP3    H145182   6.025   1.998  11.658  0.9093  0.9132  0.3066
 7897TIP3    H245183   5.983   1.961  11.517  0.5879  0.5128  0.5058
 7898TIP3   OH245184   3.795   5.740   5.211 -0.2563  0.3061  0.2749
 7898TIP3    H145185   3.827   5.657   5.247 -2.5045 -0.1932  1.2968
 7898TIP3    H245186   3.874   5.791   5.194  1.0632 -0.7874  2.7157
 7899TIP3   OH245187   1.501   0.407  14.089  0.0817  0.5058 -0.6141
 7899TIP3    H145188   1.490   0.313  14.078 -0.7328  0.6810 -1.4525
 7899TIP3    H245189   1.585   0.427  14.049 -0.6395  0.4075 -2.2671
 7900TIP3   OH245190   5.378   0.160   3.978  0.3776 -0.3278 -0.0586
 7900TIP3    H145191   5.320   0.236   3.980 -0.1660 -0.7410  0.5375
 7900TIP3    H245192   5.461   0.191   4.013 -0.0828 -0.1924  0.9465
 7901TIP3   OH245193   6.173   5.684   5.819 -0.3762  0.0022  0.0924
 7901TIP3    H145194   6.132   5.742   5.755  0.4890 -1.0013 -1.4274
 7901TIP3    H245195   6.192   5.740   5.894 -0.8659  1.3532 -0.7705
 7902TIP3   OH245196   4.646   4.967  11.586 -0.0042 -0.2785  0.0637
 7902TIP3    H145197   4.580   4.963  11.655  0.7720 -0.0442  0.8383
 7902TIP3    H245198   4.727   4.938  11.628  0.8498  1.4793 -0.2757
 7903TIP3   OH245199   0.583   2.918  16.631  0.4871  0.2043 -0.0105
 7903TIP3    H145200   0.662   2.912  16.685  0.5432 -0.0295 -0.1165
 7903TIP3    H245201   0.560   3.011  16.631  0.1843  0.1417  0.8514
 7904TIP3   OH245202   3.979   6.575  14.291 -0.1487 -0.0975  0.2797
 7904TIP3    H145203   3.963   6.576  14.197 -2.4504  1.1116  0.6150
 7904TIP3    H245204   3.979   6.482  14.315  0.3661 -0.4108 -0.8672
 7905TIP3   OH245205   1.351   1.415   6.048 -0.4543 -0.1233  0.1459
 7905TIP3    H145206   1.400   1.336   6.071  0.1261  0.4126  0.7875
 7905TIP3    H245207   1.290   1.428   6.121  0.0607  0.5076  0.4710
 7906TIP3   OH245208   6.191   4.712   1.340 -0.2858 -0.1236  0.1455
 7906TIP3    H145209   6.096   4.714   1.349 -0.1776  1.1352  1.3938
 7906TIP3    H245210   6.217   4.804   1.350  0.9497 -0.2148 -1.7401
 7907TIP3   OH245211   2.156   1.329   3.563  0.2059  0.2857 -0.2974
 7907TIP3    H145212   2.121   1.375   3.638  0.0862 -0.5127  0.1444
 7907TIP3    H245213   2.083   1.276   3.530  0.1285  0.9544 -1.2477
 7908TIP3   OH245214   0.883   1.970  12.428  0.5368 -0.5574  0.3115
 7908TIP3    H145215   0.840   1.924  12.356 -0.5816  1.0281 -0.0747
 7908TIP3    H245216   0.976   1.959  12.411  0.2954 -0.1566 -1.4356
 7909TIP3   OH245217   2.928   3.783   5.193 -0.5880 -0.2512  0.1067
 7909TIP3    H145218   2.931   3.789   5.288  0.3488  0.6534  0.0344
 7909TIP3    H245219   3.015   3.752   5.168  0.1781  2.3013 -0.6143
 7910TIP3   OH245220   4.250   1.968   4.122  0.0636 -0.4554  0.1238
 7910TIP3    H145221   4.270   2.060   4.140  1.0695 -0.7226  0.4764
 7910TIP3    H245222   4.304   1.919   4.184 -0.3383 -1.2887 -0.1632
 7911TIP3   OH245223   3.649   5.375   0.506 -0.1600 -0.1104 -0.1655
 7911TIP3    H145224   3.562   5.414   0.517  1.0725  2.0819  3.0740
 7911TIP3    H245225   3.636   5.282   0.528 -1.4526  0.4669  1.7412
 7912TIP3   OH245226   4.162   4.326   6.629 -0.3288  0.3700 -0.1598
 7912TIP3    H145227   4.121   4.314   6.714  0.0042  1.1368  0.1202
 7912TIP3    H245228   4.215   4.406   6.639  0.6291 -0.1799 -0.7303
 7913TIP3   OH245229   4.687   3.321   5.202 -0.2765 -0.1269  0.0013
 7913TIP3    H145230   4.624   3.304   5.272 -0.1639 -0.1996  0.0873
 7913TIP3    H245231   4.636   3.319   5.122 -1.3048  4.2118  0.2727
 7914TIP3   OH245232   3.351   2.595  12.243  0.4070 -0.3813  0.5908
 7914TIP3    H145233   3.385   2.683  12.262 -0.1191 -0.0971  0.2440
 7914TIP3    H245234   3.393   2.539  12.308 -0.2937  0.3455  1.7191
 7915TIP3   OH245235   4.353   4.442  16.550 -0.4643  0.3398  0.4646
 7915TIP3    H145236   4.292   4.374  16.578 -0.6551  0.1564 -0.3719
 7915TIP3    H245237   4.387   4.479  16.632  0.8881 -1.8678  0.9887
 7916TIP3   OH245238   5.077   5.673   5.998  0.3618  0.0052 -0.0909
 7916TIP3    H145239   5.133   5.692   5.923  0.2790  1.1929  0.1283
 7916TIP3    H245240   5.098   5.583   6.022  0.6830 -0.2484 -1.2813
 7917TIP3   OH245241   3.008   0.303   0.967 -0.0599  0.3361  0.2528
 7917TIP3    H145242   3.061   0.383   0.976 -0.7791  1.0695 -1.5357
 7917TIP3    H245243   3.041   0.245   1.036  1.9802  1.3464  0.2247
 7918TIP3   OH245244   3.811   6.063   1.287 -0.6675  0.2860  0.6304
 7918TIP3    H145245   3.893   6.092   1.326 -1.1838  0.2402  1.8084
 7918TIP3    H245246   3.758   6.035   1.361 -0.8297 -2.1348 -0.2897
 7919TIP3   OH245247   1.428   1.109  14.200  0.3762 -0.0304 -0.0574
 7919TIP3    H145248   1.435   1.174  14.130  1.3538  0.7793  0.7468
 7919TIP3    H245249   1.467   1.030  14.164  1.9573  0.7107 -0.0797
 7920TIP3   OH245250   3.840   3.101   5.253 -0.3700  0.1676 -0.2071
 7920TIP3    H145251   3.816   3.017   5.213 -0.6433  0.4968 -0.7446
 7920TIP3    H245252   3.905   3.078   5.320  0.1242 -0.3834 -0.8610
 7921TIP3   OH245253   5.017   2.739   0.610 -0.1579  0.2377 -0.6149
 7921TIP3    H145254   4.967   2.742   0.692  0.2514  0.5739 -0.3731
 7921TIP3    H245255   4.963   2.688   0.551 -0.1664 -0.5702  0.0712
 7922TIP3   OH245256   6.383   2.624  16.525 -0.3266  0.1087 -0.4540
 7922TIP3    H145257   6.372   2.536  16.489  3.0912 -0.1318 -1.2638
 7922TIP3    H245258   6.430   2.611  16.607  0.6930  1.1850 -0.8417
 7923TIP3   OH245259   5.115   0.674   5.393 -0.2664 -0.0229  0.5519
 7923TIP3    H145260   5.038   0.654   5.446 -0.2143  2.4596  1.7204
 7923TIP3    H245261   5.080   0.716   5.314 -0.2305 -1.9554 -0.5544
 7924TIP3   OH245262   1.211   2.330  15.996 -0.3990 -0.1554 -0.3332
 7924TIP3    H145263   1.233   2.339  15.903 -1.6082 -0.5478 -0.6690
 7924TIP3    H245264   1.236   2.414  16.034 -1.2937  0.5806 -1.3067
 7925TIP3   OH245265   2.856   5.290  13.012 -0.4488  0.1822 -0.1154
 7925TIP3    H145266   2.927   5.238  13.050 -1.1810  0.1134  1.1704
 7925TIP3    H245267   2.784   5.229  13.001 -0.4288  0.3166 -1.1733
 7926TIP3   OH245268   6.485   0.488   5.065  0.1136 -0.0807 -0.0051
 7926TIP3    H145269   6.457   0.473   5.155 -1.8642 -0.6366 -0.6764
 7926TIP3    H245270   6.563   0.543   5.073  0.2624 -0.5230  2.0494
 7927TIP3   OH245271   2.177   2.170  13.950  0.2519 -0.5327  0.2615
 7927TIP3    H145272   2.251   2.118  13.981 -0.6859 -1.3860  1.1559
 7927TIP3    H245273   2.142   2.120  13.876  0.4268 -0.2588 -0.0049
 7928TIP3   OH245274   2.240   1.013   5.972  0.4663  0.5021 -0.3086
 7928TIP3    H145275   2.158   1.052   5.942 -0.7492 -0.5150  1.5412
 7928TIP3    H245276   2.245   1.033   6.065  1.7949 -0.3713 -0.1504
 7929TIP3   OH245277   6.807   1.233  16.383 -0.1133  0.4860  0.0166
 7929TIP3    H145278   6.877   1.281  16.339  1.8849 -1.5027  0.8896
 7929TIP3    H245279   6.744   1.214  16.314  0.1209  2.3635 -0.7784
 7930TIP3   OH245280   3.757   0.631  12.872 -0.1070  0.5558 -0.2119
 7930TIP3    H145281   3.676   0.647  12.921 -0.4848  0.3675 -0.7720
 7930TIP3    H245282   3.734   0.563  12.809  0.3637  0.8303 -0.6877
 7931TIP3   OH245283   6.060   4.740  11.494 -0.8061 -0.1267 -0.8559
 7931TIP3    H145284   6.009   4.820  11.483 -0.5273 -0.0004 -1.2845
 7931TIP3    H245285   6.141   4.756  11.445  0.0781  0.0540  0.6139
 7932TIP3   OH245286   2.601   0.885  11.186 -0.9002 -0.1310 -0.2211
 7932TIP3    H145287   2.675   0.940  11.160 -0.0421 -0.5440  1.2304
 7932TIP3    H245288   2.532   0.946  11.209  0.0530  0.4107  1.4020
 7933TIP3   OH245289   5.202   3.843   4.177 -0.2114 -0.5439  0.3718
 7933TIP3    H145290   5.115   3.846   4.217 -0.7061  0.4082 -0.7007
 7933TIP3    H245291   5.198   3.768   4.118 -0.6303  0.0136 -0.3302
 7934TIP3   OH245292   5.351   4.484  15.481 -0.0411 -0.0177 -0.3473
 7934TIP3    H145293   5.266   4.493  15.524  0.0648 -1.4260  0.2046
 7934TIP3    H245294   5.346   4.400  15.435  0.9274  0.0498 -0.6005
 7935TIP3   OH245295   3.696   2.145   0.692 -0.6812  0.7555 -0.2814
 7935TIP3    H145296   3.742   2.062   0.681 -0.6916  0.2185  2.9116
 7935TIP3    H245297   3.604   2.120   0.706 -0.4274  1.0852  2.4181
 7936TIP3   OH245298   4.920   0.232  14.104 -0.1594  0.3233  0.1494
 7936TIP3    H145299   4.984   0.169  14.072  1.3135  2.1088 -0.5925
 7936TIP3    H245300   4.840   0.212  14.055  0.4582 -0.5564 -0.5273
 7937TIP3   OH245301   4.484   5.309   0.925 -0.1468  0.0831  0.3114
 7937TIP3    H145302   4.558   5.368   0.911 -2.7449  2.9965 -3.1685
 7937TIP3    H245303   4.411   5.366   0.948 -2.3277 -2.0135 -0.8859
 7938TIP3   OH245304   5.932   4.495   6.137 -0.0143  0.0589  0.0240
 7938TIP3    H145305   5.879   4.416   6.144  0.7073 -0.6121 -1.4123
 7938TIP3    H245306   5.948   4.504   6.043  1.9484  0.5147  0.3573
 7939TIP3   OH245307   3.427   3.681  15.991 -0.4588  0.3112  0.1750
 7939TIP3    H145308   3.350   3.638  16.029 -0.5750  1.7129  1.6753
 7939TIP3    H245309   3.480   3.707  16.067  1.2383 -0.1233 -0.8080
 7940TIP3   OH245310   4.003   2.615  12.969  0.5014  0.4307 -1.1013
 7940TIP3    H145311   4.068   2.567  12.918  1.0135 -0.0145 -0.0635
 7940TIP3    H245312   4.048   2.695  12.996  1.4788 -0.9208  1.5736
 7941TIP3   OH245313   2.453   0.371  15.239 -0.0566  0.2777 -0.1989
 7941TIP3    H145314   2.470   0.281  15.265 -1.1730  0.3687  0.8982
 7941TIP3    H245315   2.423   0.414  15.319 -0.3854  1.3984 -0.9073
 7942TIP3   OH245316   3.074   2.713  14.172 -0.8504 -0.0923 -0.1528
 7942TIP3    H145317   2.980   2.718  14.192 -0.8089 -1.0418  0.3532
 7942TIP3    H245318   3.099   2.803  14.152 -1.2890  0.6781  2.4148
 7943TIP3   OH245319   4.627   5.371  14.704 -0.3077 -0.5492 -0.2820
 7943TIP3    H145320   4.549   5.361  14.758 -1.9862 -0.9974 -2.6194
 7943TIP3    H245321   4.653   5.463  14.716 -1.3080 -0.3408  0.3786
 7944TIP3   OH245322   6.261   1.175   1.095  0.3781 -0.0813 -0.2811
 7944TIP3    H145323   6.227   1.198   1.009  0.9060 -1.1866 -0.8136
 7944TIP3    H245324   6.351   1.210   1.096  0.1394  0.5340  0.0963
 7945TIP3   OH245325   4.792   2.122   2.483 -0.3374 -0.7575  0.2046
 7945TIP3    H145326   4.818   2.072   2.405  2.0316 -2.0604  1.6995
 7945TIP3    H245327   4.731   2.064   2.529 -1.6151 -0.0517 -0.5370
 7946TIP3   OH245328   4.324   3.282  11.584  0.3604  0.1043 -0.2460
 7946TIP3    H145329   4.298   3.212  11.524  0.0600 -0.1725  0.2051
 7946TIP3    H245330   4.353   3.237  11.663 -1.3313  0.5139  0.6496
 7947TIP3   OH245331   2.383   4.779  14.839  0.0710 -0.4663  0.0502
 7947TIP3    H145332   2.308   4.809  14.890  0.2723 -0.3836  0.3045
 7947TIP3    H245333   2.379   4.828  14.757 -0.8333 -1.3281 -0.4450
 7948TIP3   OH245334   5.771   1.942  13.583  0.1358 -0.3034 -0.4311
 7948TIP3    H145335   5.679   1.952  13.559  0.6085  0.4789 -2.1065
 7948TIP3    H245336   5.802   2.032  13.595  0.5252 -0.5889  0.8489
 7949TIP3   OH245337   3.159   1.756  13.418 -0.0054 -0.2916  0.1130
 7949TIP3    H145338   3.254   1.752  13.404 -0.1918 -1.8462 -0.9683
 7949TIP3    H245339   3.134   1.665  13.436 -1.6012 -0.3335 -2.0236
 7950TIP3   OH245340   6.642   1.259  12.595 -0.5784  0.6780 -0.2073
 7950TIP3    H145341   6.692   1.253  12.677  0.6233  0.4022 -0.9348
 7950TIP3    H245342   6.700   1.305  12.535 -1.4373  0.8522 -0.9218
 7951TIP3   OH245343   6.587   2.863  15.749  0.0768  0.1990 -0.4201
 7951TIP3    H145344   6.636   2.863  15.831 -0.5450 -2.5193  0.0465
 7951TIP3    H245345   6.500   2.830  15.773 -0.3101 -0.0703 -2.0677
 7952TIP3   OH245346   2.589   2.505   4.795 -0.4387  0.2521 -0.5328
 7952TIP3    H145347   2.532   2.518   4.719  0.9555  1.7800 -1.3980
 7952TIP3    H245348   2.660   2.450   4.762 -0.3669  0.0375 -0.0234
 7953TIP3   OH245349   6.522   5.121   0.064 -0.1276 -0.7354 -0.0427
 7953TIP3    H145350   6.484   5.165   0.140 -1.5759  0.9977 -1.6760
 7953TIP3    H245351   6.544   5.192   0.004 -0.3615 -2.1079 -1.8169
 7954TIP3   OH245352   2.752   1.295   6.823 -0.9796 -0.2847  0.3192
 7954TIP3    H145353   2.691   1.307   6.750 -0.5607  0.3993  0.0798
 7954TIP3    H245354   2.740   1.373   6.877 -0.2792 -0.1240  0.2440
 7955TIP3   OH245355   6.779   1.592  14.319 -0.6814  0.3966  0.5776
 7955TIP3    H145356   6.842   1.627  14.256 -1.0841  0.4084  0.1819
 7955TIP3    H245357   6.820   1.609  14.404  0.5158 -0.8711  0.2971
 7956TIP3   OH245358   3.314   2.147  12.382  0.2841  0.0404  0.1674
 7956TIP3    H145359   3.401   2.107  12.373  0.2681  0.1266 -0.3861
 7956TIP3    H245360   3.259   2.076  12.414 -0.2176 -1.0312 -2.7954
 7957TIP3   OH245361   4.685   1.581   0.186  0.1653  0.1154 -0.2119
 7957TIP3    H145362   4.744   1.595   0.260  0.3359  1.2037 -0.5454
 7957TIP3    H245363   4.642   1.665   0.172  0.2433 -0.0266 -1.4419
 7958TIP3   OH245364   3.275   3.316  16.510 -0.1147 -0.7733  0.0845
 7958TIP3    H145365   3.260   3.408  16.534  0.8293 -1.3847  3.4126
 7958TIP3    H245366   3.211   3.267  16.562 -0.5001 -2.0721 -1.5335
 7959TIP3   OH245367   6.151   1.218  12.996 -0.2331 -0.2305  0.3990
 7959TIP3    H145368   6.176   1.185  13.083  1.0715 -0.4231 -0.0291
 7959TIP3    H245369   6.197   1.161  12.935 -0.2647  0.5950 -0.4034
 7960TIP3   OH245370   1.908   1.808  11.362  0.1099 -0.5363 -0.0122
 7960TIP3    H145371   1.984   1.769  11.320  0.6064 -1.0769  1.3229
 7960TIP3    H245372   1.945   1.872  11.424 -0.5346 -0.4527  0.2975
 7961TIP3   OH245373   4.774   2.360  13.529 -0.4960  0.1206 -0.8803
 7961TIP3    H145374   4.696   2.365  13.583  0.9100  1.2909  1.2062
 7961TIP3    H245375   4.795   2.267  13.524  0.6129  0.0074  2.7662
 7962TIP3   OH245376   1.588   3.180   1.903  0.4847 -0.3706 -0.5856
 7962TIP3    H145377   1.577   3.274   1.890  2.6972 -0.0460 -0.4883
 7962TIP3    H245378   1.643   3.173   1.981  0.6580 -1.7367 -0.8057
 7963TIP3   OH245379   6.537   2.593   3.601 -0.4972 -0.0580  0.2252
 7963TIP3    H145380   6.555   2.651   3.527 -1.4509 -1.4944 -1.2093
 7963TIP3    H245381   6.590   2.514   3.582 -0.3616 -0.2527  1.3522
 7964TIP3   OH245382   1.102   2.842   1.267  0.4168 -0.0068  0.4188
 7964TIP3    H145383   1.040   2.874   1.333  1.4681 -0.9766  1.9646
 7964TIP3    H245384   1.183   2.829   1.316  1.4653 -0.0532 -1.2606
 7965TIP3   OH245385   3.113   4.463  15.858  0.1336  0.2433  0.3518
 7965TIP3    H145386   3.185   4.526  15.851  0.3165 -0.0785 -0.8898
 7965TIP3    H245387   3.091   4.443  15.767 -2.3160  1.2343  0.6577
 7966TIP3   OH245388   6.680   4.290   5.272 -0.2522  0.8838  0.0759
 7966TIP3    H145389   6.611   4.353   5.249 -0.7370  0.4274  0.2511
 7966TIP3    H245390   6.681   4.289   5.367 -0.6350  0.2288  0.0845
 7967TIP3   OH245391   2.834   3.791   0.956  0.1434 -0.6793  0.2522
 7967TIP3    H145392   2.909   3.754   0.909 -0.9592 -1.7994 -0.6883
 7967TIP3    H245393   2.797   3.855   0.896 -0.1969 -0.8083  0.3200
 7968TIP3   OH245394   4.905   2.954  13.126  0.6452 -0.0385 -0.1581
 7968TIP3    H145395   4.972   2.931  13.061 -0.0185 -0.3619 -0.7380
 7968TIP3    H245396   4.955   2.986  13.201  1.5012 -1.0527 -0.2589
 7969TIP3   OH245397   4.032   2.911  13.375 -0.2350  0.3716 -0.0871
 7969TIP3    H145398   3.978   2.857  13.318  1.2701  1.6178 -2.9025
 7969TIP3    H245399   4.104   2.854  13.402 -0.2478  0.1437 -0.5384
 7970TIP3   OH245400   2.209   5.934   5.329  0.1429 -0.1268  0.4510
 7970TIP3    H145401   2.135   5.984   5.294  0.5636  0.0725 -0.1664
 7970TIP3    H245402   2.208   5.954   5.423 -2.2785 -2.3355  0.9921
 7971TIP3   OH245403   2.095   0.773   1.876 -0.3180  0.4581 -0.4711
 7971TIP3    H145404   2.042   0.756   1.799  1.9301  0.5705 -2.1568
 7971TIP3    H245405   2.106   0.868   1.878  0.6412  0.3675 -0.7745
 7972TIP3   OH245406   6.413   3.212  11.492  0.1435  0.7152 -0.2559
 7972TIP3    H145407   6.435   3.120  11.476  0.7287  0.7056  0.5470
 7972TIP3    H245408   6.365   3.239  11.413  0.1703 -0.2062 -0.6036
 7973TIP3   OH245409   6.720   0.757   6.020 -0.3038 -0.0852  0.3311
 7973TIP3    H145410   6.643   0.715   5.981 -0.4327 -1.4060  1.8871
 7973TIP3    H245411   6.790   0.740   5.957 -0.5352 -2.0602  0.5212
 7974TIP3   OH245412   5.034   0.874   0.482 -0.3249 -0.8281  0.2985
 7974TIP3    H145413   4.975   0.917   0.420  1.6165 -0.2926 -1.2637
 7974TIP3    H245414   5.036   0.783   0.454  0.1363 -0.6993 -0.0834
 7975TIP3   OH245415   6.436   0.708  10.906 -0.2651  0.1748  0.3284
 7975TIP3    H145416   6.524   0.695  10.942 -0.8654  0.1946  1.8789
 7975TIP3    H245417   6.435   0.657  10.825  1.0411 -0.1408  0.4936
 7976TIP3   OH245418   0.831   0.496   3.844  0.3478  0.4541  0.0781
 7976TIP3    H145419   0.922   0.520   3.828  0.3137  0.6378  0.1576
 7976TIP3    H245420   0.784   0.530   3.768  0.8406 -2.8811 -1.9134
 7977TIP3   OH245421   5.036   6.493   4.713  0.3201 -1.2052  0.4511
 7977TIP3    H145422   5.081   6.473   4.630  1.3102 -0.6420  0.8377
 7977TIP3    H245423   5.096   6.550   4.760 -1.3628  0.6654  0.4533
 7978TIP3   OH245424   6.670   3.788  11.250  0.1513 -0.2220 -0.3187
 7978TIP3    H145425   6.588   3.834  11.237 -0.3728 -1.6103 -2.6776
 7978TIP3    H245426   6.645   3.705  11.290  0.5358 -0.2030 -0.0380
 7979TIP3   OH245427   3.594   3.553  11.609  0.9537  0.4281  0.0090
 7979TIP3    H145428   3.616   3.497  11.534  0.4046  0.3521 -0.0966
 7979TIP3    H245429   3.507   3.523  11.637  1.6486 -0.3904  1.4541
 7980TIP3   OH245430   3.480   5.356  13.311 -0.0908 -0.1827 -0.2213
 7980TIP3    H145431   3.485   5.307  13.229  2.1671 -0.4889  0.0433
 7980TIP3    H245432   3.539   5.430  13.298 -0.9749  0.6784  0.5601
 7981TIP3   OH245433   2.111   1.179   5.624 -0.3991  0.0316 -0.3326
 7981TIP3    H145434   2.142   1.142   5.707 -2.1284 -1.8858 -0.4761
 7981TIP3    H245435   2.176   1.150   5.560  1.3104  2.0616  0.3427
 7982TIP3   OH245436   1.975   3.746  14.579 -0.3630 -0.0100  0.1177
 7982TIP3    H145437   1.969   3.841  14.583  0.2219  0.0687 -0.5995
 7982TIP3    H245438   1.945   3.716  14.665  0.6553  0.8856  0.8221
 7983TIP3   OH245439   2.363   4.959  13.523 -0.1415  0.2016 -0.1378
 7983TIP3    H145440   2.302   4.887  13.509  1.0962 -0.6780 -1.3945
 7983TIP3    H245441   2.396   4.947  13.612  0.8964 -1.5260 -0.7045
 7984TIP3   OH245442   6.073   4.768  13.859  0.1329 -0.3843  0.1783
 7984TIP3    H145443   6.087   4.800  13.770  0.4146 -1.1452 -0.0566
 7984TIP3    H245444   5.978   4.763  13.868  0.1066 -1.3225 -0.4630
 7985TIP3   OH245445   3.088   5.868   5.984  0.1468  0.9705 -0.2785
 7985TIP3    H145446   3.015   5.806   5.982 -0.0758  1.2300 -0.3184
 7985TIP3    H245447   3.071   5.927   5.910 -0.0695  1.5528  0.2286
 7986TIP3   OH245448   2.977   1.638  12.393 -0.0036  0.5706  0.2770
 7986TIP3    H145449   2.916   1.698  12.350  0.6008  0.2708 -1.0268
 7986TIP3    H245450   3.000   1.574  12.326  0.1333 -0.5559  1.3593
 7987TIP3   OH245451   4.477   3.168   0.857  0.1852 -0.1151  0.4404
 7987TIP3    H145452   4.432   3.212   0.785 -0.0997 -0.4733  0.3956
 7987TIP3    H245453   4.505   3.238   0.915  1.1522  0.2595 -0.4318
 7988TIP3   OH245454   2.870   1.209  13.842  0.0976  0.0569  0.3588
 7988TIP3    H145455   2.819   1.151  13.786  0.7783 -1.1588  0.9748
 7988TIP3    H245456   2.848   1.297  13.810 -3.0933 -0.3088  1.2089
 7989TIP3   OH245457   6.569   3.121   0.215 -0.0564 -0.3202 -0.6582
 7989TIP3    H145458   6.525   3.206   0.212 -0.6870 -0.6577 -1.9803
 7989TIP3    H245459   6.643   3.130   0.154 -0.3457 -0.8273 -1.0935
 7990TIP3   OH245460   1.347   3.211  13.265 -0.0174  0.0873  0.1274
 7990TIP3    H145461   1.427   3.192  13.314 -0.1511 -1.0110 -0.0363
 7990TIP3    H245462   1.335   3.134  13.208 -1.1628  0.2380  0.1250
 7991TIP3   OH245463   1.390   2.015  11.612 -0.3456 -0.1965  0.0288
 7991TIP3    H145464   1.341   2.076  11.667 -0.0059  0.8623 -0.7989
 7991TIP3    H245465   1.357   2.030  11.523  0.6214 -0.3070 -0.3691
 7992TIP3   OH245466   6.194   4.656  15.663  0.4906  0.3244  0.1599
 7992TIP3    H145467   6.176   4.599  15.737  0.4596  0.8713  0.5866
 7992TIP3    H245468   6.290   4.659  15.657  0.5200  0.9998  0.7670
 7993TIP3   OH245469   3.181   3.698   1.059 -0.3012 -0.0023  0.3273
 7993TIP3    H145470   3.187   3.748   1.140 -1.7961  0.6140  0.0916
 7993TIP3    H245471   3.246   3.628   1.069  1.7036  1.7996  0.7684
 7994TIP3   OH245472   4.053   1.933   2.459 -0.1777  0.4359 -0.1559
 7994TIP3    H145473   4.110   1.982   2.518 -2.2156  1.5163  1.0404
 7994TIP3    H245474   4.031   1.854   2.507 -0.0742  0.2530 -0.4083
 7995TIP3   OH245475   4.474   4.517   4.692 -0.0839 -0.1027  0.0867
 7995TIP3    H145476   4.495   4.505   4.785 -0.3570 -2.0627 -0.0686
 7995TIP3    H245477   4.536   4.583   4.662  1.5612 -1.0880  1.1375
 7996TIP3   OH245478   5.334   2.868  16.337  0.3078 -0.1539 -0.5929
 7996TIP3    H145479   5.315   2.946  16.389  1.9650  0.6042 -1.0336
 7996TIP3    H245480   5.251   2.844  16.297 -0.2530  1.3543 -0.3899
 7997TIP3   OH245481   4.085   0.517   3.079  0.0455 -0.6507  0.1482
 7997TIP3    H145482   4.150   0.456   3.044  0.1848  0.5765 -1.8705
 7997TIP3    H245483   4.116   0.603   3.052 -1.0547  0.1804  1.4411
 7998TIP3   OH245484   3.770   4.658   0.422 -0.0044 -0.2002  0.0329
 7998TIP3    H145485   3.843   4.717   0.441  0.7693 -1.4883  1.2716
 7998TIP3    H245486   3.712   4.709   0.365  0.6757  1.6824  0.9412
 7999TIP3   OH245487   3.033   5.768  11.455 -0.6076 -0.5310  0.1929
 7999TIP3    H145488   3.054   5.825  11.529  0.8417 -0.2906 -0.3654
 7999TIP3    H245489   3.056   5.820  11.378  0.4493 -1.7328 -0.3391
 8000TIP3   OH245490   0.542   6.255  16.774  0.1069  0.0034  0.3338
 8000TIP3    H145491   0.605   6.183  16.770  0.0719 -0.0843  1.2379
 8000TIP3    H245492   0.576   6.313  16.842  0.3215  1.0369 -0.6266
 8001TIP3   OH245493   4.696   6.437  15.569 -0.3022 -0.0904 -0.0430
 8001TIP3    H145494   4.782   6.416  15.532 -0.1944 -0.5026  0.4226
 8001TIP3    H245495   4.706   6.418  15.663 -0.8778 -0.0747  0.0210
 8002TIP3   OH245496   4.093   6.387  12.906  0.1713 -0.3739  0.2948
 8002TIP3    H145497   4.025   6.365  12.843  0.9314  0.8660 -1.0166
 8002TIP3    H245498   4.045   6.407  12.987 -0.7918 -2.3097  0.2481
 8003TIP3   OH245499   4.385   6.232   5.965 -0.4215 -0.1195  0.3520
 8003TIP3    H145500   4.478   6.212   5.948 -0.3789  0.7530 -0.5072
 8003TIP3    H245501   4.378   6.230   6.061 -0.2538 -3.3566  0.4316
 8004TIP3   OH245502   0.236   3.396   1.749  0.7861 -0.3111 -0.1332
 8004TIP3    H145503   0.153   3.419   1.708  1.1559  1.0086 -0.1856
 8004TIP3    H245504   0.246   3.303   1.732  0.8784  0.1451 -2.9390
 8005TIP3   OH245505   4.306   3.531  13.112  0.3433 -0.0039 -0.3891
 8005TIP3    H145506   4.223   3.576  13.097 -0.1994 -0.8751 -0.1050
 8005TIP3    H245507   4.316   3.530  13.207  1.6211  1.7143 -0.4521
 8006TIP3   OH245508   0.925   2.234   3.138 -0.1936 -0.0193  0.3640
 8006TIP3    H145509   0.935   2.310   3.081 -2.3336  0.2832  0.3190
 8006TIP3    H245510   0.878   2.266   3.214 -3.4124 -1.6706 -0.7465
 8007TIP3   OH245511   6.371   5.957   3.789  0.1292 -0.0223  0.2784
 8007TIP3    H145512   6.348   5.920   3.704  0.8270  1.8176 -0.7765
 8007TIP3    H245513   6.295   6.011   3.813  0.1818 -0.0622  0.5424
 8008TIP3   OH245514   0.669   5.415   2.680 -0.2451 -0.3368 -0.1571
 8008TIP3    H145515   0.663   5.497   2.730 -1.3089 -0.0917 -0.6471
 8008TIP3    H245516   0.763   5.402   2.667 -0.0803  1.5906 -1.2980
 8009TIP3   OH245517   4.258   4.868   5.200 -0.1424 -1.3873 -0.5317
 8009TIP3    H145518   4.206   4.899   5.126 -0.5997  0.0412  0.3710
 8009TIP3    H245519   4.197   4.818   5.253 -0.0812 -1.4717 -0.5398
 8010TIP3   OH245520   3.750   5.763   1.188 -0.3816  0.1322  0.3647
 8010TIP3    H145521   3.682   5.793   1.248 -1.2630  1.5465 -1.2416
 8010TIP3    H245522   3.768   5.839   1.132 -0.1578 -1.3103 -1.6390
 8011TIP3   OH245523   1.771   3.959   4.004 -0.0861  0.2648  0.0039
 8011TIP3    H145524   1.844   3.899   3.994  0.0263  0.3600  0.2301
 8011TIP3    H245525   1.728   3.961   3.918 -1.7155 -2.1965  0.6589
 8012TIP3   OH245526   1.707   1.458  16.630  0.0696  0.1008  0.7011
 8012TIP3    H145527   1.616   1.481  16.611  0.1035  1.4212  2.0355
 8012TIP3    H245528   1.717   1.474  16.724  1.3043 -1.3709  0.8563
 8013TIP3   OH245529   1.337   4.901  11.530  0.4052 -0.4487 -0.1632
 8013TIP3    H145530   1.282   4.823  11.521  1.8357 -1.5910  0.4498
 8013TIP3    H245531   1.333   4.922  11.623 -0.2394  0.4335 -0.3816
 8014TIP3   OH245532   0.549   5.050   1.673 -0.2801 -0.2358 -0.1602
 8014TIP3    H145533   0.523   5.051   1.765  1.7565 -3.0265  0.5610
 8014TIP3    H245534   0.470   5.078   1.626 -1.2387  1.7824  2.3726
 8015TIP3   OH245535   4.893   4.878   2.516 -0.2306  0.1971  0.4504
 8015TIP3    H145536   4.875   4.920   2.600 -1.5845  1.0085 -0.2083
 8015TIP3    H245537   4.954   4.937   2.472  0.6323 -0.3249  0.9137
 8016TIP3   OH245538   5.511   1.442  17.048 -0.1836  0.1222  0.2098
 8016TIP3    H145539   5.598   1.477  17.031  0.3499 -1.3174 -0.1779
 8016TIP3    H245540   5.451   1.506  17.009  0.6903  1.0241  0.3007
 8017TIP3   OH245541   2.200   0.467   1.851 -0.2623 -0.7656 -0.1440
 8017TIP3    H145542   2.198   0.550   1.898  0.0727 -0.6526 -0.3259
 8017TIP3    H245543   2.166   0.403   1.915  1.4399 -0.8435  0.7472
 8018TIP3   OH245544   3.969   3.219  13.616 -0.1072 -0.1907  0.6533
 8018TIP3    H145545   3.997   3.297  13.662  1.6385 -0.3162 -0.0924
 8018TIP3    H245546   4.027   3.214  13.540 -1.0370 -1.5005 -0.0200
 8019TIP3   OH245547   1.562   6.762  14.203 -0.5679  0.3301  0.2712
 8019TIP3    H145548   1.581   6.835  14.144 -1.8943 -0.8084 -1.6840
 8019TIP3    H245549   1.496   6.710  14.157  0.0131 -1.8884  1.7698
 8020TIP3   OH245550   6.655   3.325  11.390  0.7710 -0.0735  0.3800
 8020TIP3    H145551   6.590   3.286  11.449 -0.8574 -0.8697 -1.8074
 8020TIP3    H245552   6.656   3.268  11.314  1.7986  1.6132 -0.9515
 8021TIP3   OH245553   6.554   1.240  16.238 -0.6689  0.2411 -0.3474
 8021TIP3    H145554   6.526   1.281  16.320  0.6025 -0.5994  0.5304
 8021TIP3    H245555   6.491   1.170  16.223  1.1535 -2.0681  1.9598
 8022TIP3   OH245556   2.221   1.971   6.069  0.0180 -0.3038  0.0516
 8022TIP3    H145557   2.169   2.050   6.054  1.2794  0.5784  0.2341
 8022TIP3    H245558   2.181   1.931   6.147  0.8036  1.4362  1.4285
 8023TIP3   OH245559   2.116   4.879   4.804  0.1658 -0.3043  0.0223
 8023TIP3    H145560   2.115   4.787   4.831 -1.7775 -0.9695 -1.9654
 8023TIP3    H245561   2.046   4.885   4.738 -0.8119  2.9400  1.1531
 8024TIP3   OH245562   6.449   4.957  11.328  0.1336  0.3544  0.7566
 8024TIP3    H145563   6.484   4.991  11.246  0.8968 -0.5054  0.7086
 8024TIP3    H245564   6.517   4.898  11.360 -0.5624 -0.0408  1.5355
 8025TIP3   OH245565   1.871   4.412  16.052  0.0925 -0.8206  0.1173
 8025TIP3    H145566   1.908   4.482  16.106  0.5526 -1.5210  0.7233
 8025TIP3    H245567   1.793   4.452  16.013 -0.4159 -0.3625  1.5158
 8026TIP3   OH245568   3.820   0.946   0.300  0.0613 -0.2007  0.0843
 8026TIP3    H145569   3.737   0.910   0.331  0.2773  0.0893  1.0278
 8026TIP3    H245570   3.844   1.011   0.366  0.7411  0.1495 -0.4916
 8027TIP3   OH245571   5.598   1.874  11.576  0.4865  0.7401 -0.0337
 8027TIP3    H145572   5.629   1.834  11.658  1.1584 -0.2517 -0.7521
 8027TIP3    H245573   5.504   1.854  11.574  0.4723  0.7362  0.4675
 8028TIP3   OH245574   2.723   6.685  16.182 -0.2324  0.0238  0.0099
 8028TIP3    H145575   2.743   6.635  16.261 -0.7666  0.0118  0.1377
 8028TIP3    H245576   2.671   6.759  16.213  1.0366  0.9970 -0.0939
 8029TIP3   OH245577   3.505   5.215  11.247  0.1750  0.1563  0.3163
 8029TIP3    H145578   3.564   5.283  11.215  0.6558 -0.2638  0.3144
 8029TIP3    H245579   3.503   5.150  11.178  1.1248 -0.6998  1.0643
 8030TIP3   OH245580   3.421   6.376  16.464 -0.0128 -0.6095 -0.0338
 8030TIP3    H145581   3.505   6.415  16.441 -0.0833 -0.2263  0.3218
 8030TIP3    H245582   3.358   6.418  16.405 -0.1205 -0.0018  0.4936
 8031TIP3   OH245583   6.698   4.510  10.948  0.1588 -0.5516 -0.2860
 8031TIP3    H145584   6.739   4.566  10.882 -0.5201 -0.3786 -0.5745
 8031TIP3    H245585   6.624   4.470  10.902 -0.2929 -0.4614  0.3568
 8032TIP3   OH245586   1.463   2.448  12.601 -0.2323  0.5910  0.0033
 8032TIP3    H145587   1.431   2.376  12.547  0.3873  0.6928 -0.5241
 8032TIP3    H245588   1.449   2.526  12.546 -1.4553  0.9650  0.8059
 8033TIP3   OH245589   6.473   5.702  14.440  0.0047  0.6130  0.0474
 8033TIP3    H145590   6.383   5.687  14.411 -0.0307 -0.4555  0.6620
 8033TIP3    H245591   6.524   5.699  14.359 -0.5151  1.2890 -0.3141
 8034TIP3   OH245592   1.441   0.862  11.462 -0.1771  0.0068  0.0852
 8034TIP3    H145593   1.453   0.791  11.400 -0.3422 -0.5511  0.6876
 8034TIP3    H245594   1.458   0.823  11.548  0.6424  0.9092  0.3530
 8035TIP3   OH245595   0.268   6.457  14.082  0.3034  0.1134  0.5924
 8035TIP3    H145596   0.270   6.440  14.177 -0.9469 -0.5247  0.5135
 8035TIP3    H245597   0.346   6.413  14.049  0.7938  0.4018  1.3290
 8036TIP3   OH245598   1.673   1.523   4.486  0.5717 -0.4111 -0.0290
 8036TIP3    H145599   1.662   1.428   4.478 -1.0159 -0.1416 -2.0254
 8036TIP3    H245600   1.760   1.540   4.451  0.0282 -0.9787 -1.7675
 8037TIP3   OH245601   1.938   1.346  15.407  0.0620 -0.1005  0.3156
 8037TIP3    H145602   1.953   1.251  15.401 -0.5492 -0.2711  1.2438
 8037TIP3    H245603   1.883   1.356  15.484  0.0544  1.0151  0.1746
 8038TIP3   OH245604   4.209   5.376  16.066  0.2878  0.2753 -0.2829
 8038TIP3    H145605   4.222   5.355  16.159  2.0529 -0.1299 -0.5861
 8038TIP3    H245606   4.194   5.470  16.065 -0.4300  0.1882  0.4543
 8039TIP3   OH245607   0.663   5.002  13.963  0.1117  0.3489 -0.0485
 8039TIP3    H145608   0.747   4.960  13.945  0.2627  0.3473  0.6054
 8039TIP3    H245609   0.599   4.948  13.917  0.5014  0.5597 -0.8567
 8040TIP3   OH245610   5.024   1.246  11.379 -0.1170 -0.1217 -0.1360
 8040TIP3    H145611   5.061   1.333  11.393 -0.9329  0.1081  0.8193
 8040TIP3    H245612   4.929   1.261  11.377 -0.2157 -0.6822 -2.4745
 8041TIP3   OH245613   1.243   6.245  14.380  0.0206  0.0109  0.4332
 8041TIP3    H145614   1.321   6.298  14.395  1.2200 -1.5717  0.0413
 8041TIP3    H245615   1.275   6.155  14.380 -1.7025 -0.6394 -0.4593
 8042TIP3   OH245616   6.032   2.317  15.627  0.3334 -0.1730  0.6234
 8042TIP3    H145617   6.054   2.380  15.696 -1.6366  1.1719  0.1141
 8042TIP3    H245618   5.961   2.359  15.579 -1.6879 -3.1165  0.7880
 8043TIP3   OH245619   0.222   5.318   0.209  0.4207  0.3156  0.3561
 8043TIP3    H145620   0.198   5.265   0.285 -0.6873 -1.5533 -1.1947
 8043TIP3    H245621   0.287   5.379   0.242  1.1115 -1.4283  2.4846
 8044TIP3   OH245622   4.175   3.897   5.826 -0.1625 -0.0349  0.5074
 8044TIP3    H145623   4.251   3.880   5.881  0.8433  2.1187 -0.1127
 8044TIP3    H245624   4.124   3.962   5.874 -1.4829 -1.1769  0.7483
 8045TIP3   OH245625   0.803   2.085  16.892  0.2319  0.4323 -0.1065
 8045TIP3    H145626   0.869   2.018  16.874 -0.0337 -0.4656  1.9846
 8045TIP3    H245627   0.727   2.057  16.840  0.7346  0.2052 -0.7388
 8046TIP3   OH245628   4.273   0.657  13.660  0.3678  0.2530 -0.2425
 8046TIP3    H145629   4.264   0.601  13.736  0.8342  0.1350 -0.2686
 8046TIP3    H245630   4.325   0.732  13.691  1.4395 -0.2844 -0.6786
 8047TIP3   OH245631   3.860   5.925   3.999  0.6543 -0.4173 -0.7677
 8047TIP3    H145632   3.822   5.902   4.083  2.8166  0.5087  0.5608
 8047TIP3    H245633   3.795   5.982   3.957  0.0239  0.0750  0.8225
 8048TIP3   OH245634   0.697   6.755  12.938  0.0988 -0.2843  0.8629
 8048TIP3    H145635   0.628   6.695  12.908  1.5554 -1.7465  0.2485
 8048TIP3    H245636   0.682   6.762  13.032 -0.9837 -0.4433  0.7184
 8049TIP3   OH245637   1.580   4.231  14.065 -0.1504  0.1112 -0.3678
 8049TIP3    H145638   1.505   4.260  14.013  0.1448  1.3857 -0.1002
 8049TIP3    H245639   1.645   4.204  14.000  0.1631  1.5569 -0.6774
 8050TIP3   OH245640   0.991   1.212  11.050 -0.0012 -0.7168  0.0236
 8050TIP3    H145641   0.909   1.203  11.099 -0.1986 -0.0532 -0.1768
 8050TIP3    H245642   0.972   1.174  10.964  0.3261 -1.8239  0.4257
 8051TIP3   OH245643   1.568   3.769   4.127  0.5323 -0.1280 -0.2545
 8051TIP3    H145644   1.503   3.838   4.112  0.1285 -1.0336 -3.1580
 8051TIP3    H245645   1.651   3.810   4.103  0.3774 -0.4159 -1.3216
 8052TIP3   OH245646   6.168   6.077   2.969 -0.4110 -0.2844 -0.1420
 8052TIP3    H145647   6.140   6.072   3.061 -2.8776 -0.6588 -0.8272
 8052TIP3    H245648   6.088   6.101   2.922  1.4210  3.0271 -1.9079
 8053TIP3   OH245649   1.235   1.172   5.142  0.3555  0.1795 -0.1755
 8053TIP3    H145650   1.303   1.140   5.201  0.4483  1.2312  0.3162
 8053TIP3    H245651   1.225   1.265   5.165  0.5678  0.6852 -1.9910
 8054TIP3   OH245652   3.049   0.286   1.227  0.5143  0.5535 -0.0894
 8054TIP3    H145653   3.141   0.276   1.249  0.3413  0.8950  0.8773
 8054TIP3    H245654   3.006   0.211   1.269  0.4230  0.0465 -1.0678
 8055TIP3   OH245655   2.137   5.318  11.833  0.0607 -0.1002  0.0791
 8055TIP3    H145656   2.225   5.350  11.852  0.5394 -0.2215 -1.7480
 8055TIP3    H245657   2.085   5.346  11.908  1.7298 -0.4109  1.4298
 8056TIP3   OH245658   4.865   3.810   1.939  0.2525 -0.3543  0.2595
 8056TIP3    H145659   4.922   3.741   1.974  1.5394 -0.2578 -1.5192
 8056TIP3    H245660   4.920   3.888   1.935  0.7788 -0.7234 -3.3797
 8057TIP3   OH245661   1.104   2.533  15.319 -0.3129  0.2068 -0.1717
 8057TIP3    H145662   1.021   2.529  15.271  0.0046  0.6777 -0.7524
 8057TIP3    H245663   1.167   2.567  15.257 -0.2582  2.5494  1.0423
 8058TIP3   OH245664   3.180   3.066  11.881  0.1192 -0.3848  0.5308
 8058TIP3    H145665   3.116   3.101  11.819 -0.3541 -0.5835  0.8977
 8058TIP3    H245666   3.189   2.974  11.858  0.7021 -0.2318  0.1243
 8059TIP3   OH245667   3.963   5.177  11.364  0.0969 -0.4909 -0.0612
 8059TIP3    H145668   3.997   5.112  11.304  1.1150 -0.0038 -0.0238
 8059TIP3    H245669   3.955   5.257  11.311 -0.5698 -0.4837  0.0408
 8060TIP3   OH245670   6.512   0.191   1.476  0.4292  0.3580 -0.0675
 8060TIP3    H145671   6.434   0.243   1.456 -0.8778 -0.8385  1.6465
 8060TIP3    H245672   6.500   0.109   1.428  1.0799  0.4958 -0.4829
 8061TIP3   OH245673   1.647   0.489  11.712  0.2747  0.4206  0.0663
 8061TIP3    H145674   1.584   0.470  11.782 -1.3228 -1.5015 -1.7569
 8061TIP3    H245675   1.689   0.404  11.694  0.1083  0.7056 -1.7849
 8062TIP3   OH245676   4.162   2.563  16.074 -0.2574 -0.6115 -0.2790
 8062TIP3    H145677   4.157   2.484  16.129 -2.1079  0.1708  0.7655
 8062TIP3    H245678   4.255   2.582  16.068  0.0702 -1.2634  1.8580
 8063TIP3   OH245679   0.685   0.662   1.406 -0.2661 -0.0627 -0.0498
 8063TIP3    H145680   0.722   0.595   1.464  1.7261  1.6616  0.8050
 8063TIP3    H245681   0.738   0.657   1.326  0.3375  0.8820  0.2723
 8064TIP3   OH245682   4.912   3.904   2.295  0.1202  0.3459 -0.5196
 8064TIP3    H145683   4.981   3.861   2.345  0.4756  0.3328 -1.0196
 8064TIP3    H245684   4.871   3.834   2.245 -1.6496 -0.0208  1.3516
 8065TIP3   OH245685   0.278   3.567  14.458 -0.9447  0.6944  0.4433
 8065TIP3    H145686   0.257   3.637  14.520 -0.4174  0.4856  0.8674
 8065TIP3    H245687   0.365   3.537  14.484 -0.2897  1.2271 -0.9764
 8066TIP3   OH245688   2.416   4.695  13.267 -0.2073 -0.3340 -0.3148
 8066TIP3    H145689   2.448   4.613  13.306  1.6727  0.9947  1.1075
 8066TIP3    H245690   2.351   4.727  13.330  0.4257  0.1761  0.0877
 8067TIP3   OH245691   1.270   0.099   3.068 -0.2750 -0.5138  0.1009
 8067TIP3    H145692   1.365   0.095   3.074 -0.2139  0.3292 -0.2172
 8067TIP3    H245693   1.240   0.085   3.158  0.1195 -1.2055  0.1367
 8068TIP3   OH245694   2.322   5.720   1.242 -0.8081  0.4147 -0.4316
 8068TIP3    H145695   2.248   5.661   1.231  0.3126 -1.0522 -0.5724
 8068TIP3    H245696   2.340   5.752   1.154 -0.8711  0.2474 -0.5062
 8069TIP3   OH245697   1.265   4.487   1.950  0.6546  0.5216  0.4296
 8069TIP3    H145698   1.187   4.506   2.002  0.6979  1.7213  0.0929
 8069TIP3    H245699   1.296   4.403   1.983 -1.1906 -0.3560  0.0778
 8070TIP3   OH245700   6.538   0.495  16.859  0.3726  0.2778  0.3076
 8070TIP3    H145701   6.582   0.549  16.925  1.0520  1.7467 -1.2712
 8070TIP3    H245702   6.596   0.498  16.783  0.6963 -3.1386  0.2492
 8071TIP3   OH245703   1.921   3.650  13.176  0.2026  0.1950  0.2479
 8071TIP3    H145704   1.920   3.574  13.118  1.3724 -0.1785  0.6911
 8071TIP3    H245705   1.841   3.640  13.229 -0.4690  0.1283 -0.7441
 8072TIP3   OH245706   0.952   4.935  12.212  0.2562  0.5378  0.3648
 8072TIP3    H145707   0.879   4.996  12.224  0.9572  1.4596  0.0104
 8072TIP3    H245708   0.919   4.852  12.248 -0.6704  1.1383  0.9611
 8073TIP3   OH245709   4.135   5.527  12.419 -0.5608 -0.5012  0.4193
 8073TIP3    H145710   4.208   5.564  12.369 -0.1303  0.2061  1.5297
 8073TIP3    H245711   4.176   5.486  12.495 -1.3203  0.1370  1.1971
 8074TIP3   OH245712   2.964   5.902   3.414  0.6232 -0.0942  0.0052
 8074TIP3    H145713   2.995   5.843   3.483  0.5173 -0.4751 -0.2669
 8074TIP3    H245714   3.037   5.961   3.398  0.0363  1.1896  1.7165
 8075TIP3   OH245715   0.081   1.761   3.158 -0.6770 -0.4987 -0.2743
 8075TIP3    H145716   0.085   1.700   3.084 -3.7087 -0.2596 -0.7693
 8075TIP3    H245717  -0.002   1.740   3.201 -0.7087  1.7761  0.9085
 8076TIP3   OH245718   5.124   3.794  12.087  0.0447  0.1852 -0.4517
 8076TIP3    H145719   5.083   3.829  12.166 -0.0873 -0.5523 -0.1865
 8076TIP3    H245720   5.193   3.736  12.119 -0.6650 -0.9102 -0.8437
 8077TIP3   OH245721   3.453   4.354   4.214  0.3323 -0.6956  0.4011
 8077TIP3    H145722   3.416   4.335   4.128 -1.2289 -2.5723  1.4089
 8077TIP3    H245723   3.547   4.364   4.198  0.1911 -1.7863 -1.4092
 8078TIP3   OH245724   1.411   4.611  12.577  0.3536  0.3508 -0.2568
 8078TIP3    H145725   1.417   4.698  12.538  2.6526 -0.3490 -1.6568
 8078TIP3    H245726   1.484   4.563  12.540  0.4469 -1.5484  2.1305
 8079TIP3   OH245727   6.513   4.670   4.040 -0.2303 -0.2139  0.2050
 8079TIP3    H145728   6.534   4.758   4.071 -1.7680  0.3373 -0.2401
 8079TIP3    H245729   6.597   4.625   4.036  0.3535  0.5301  2.5427
 8080TIP3   OH245730   5.871   5.382   3.653  0.5247 -0.0563  0.0548
 8080TIP3    H145731   5.894   5.426   3.735 -1.1032 -0.1073  0.5623
 8080TIP3    H245732   5.887   5.448   3.585 -2.8173  1.8257  0.8706
 8081TIP3   OH245733   0.953   0.467  15.569 -0.4548 -0.1415 -0.3857
 8081TIP3    H145734   0.918   0.510  15.647  0.3400  2.3851 -1.2887
 8081TIP3    H245735   1.024   0.412  15.601  0.9714  2.1204  0.6361
 8082TIP3   OH245736   6.790   1.188  13.218 -0.3849 -0.3676  0.1499
 8082TIP3    H145737   6.861   1.238  13.178  0.2404 -1.8117 -0.6413
 8082TIP3    H245738   6.713   1.209  13.165 -0.2454  0.1272  0.1380
 8083TIP3   OH245739   5.730   0.403  12.309  0.1267  0.1980 -0.2707
 8083TIP3    H145740   5.818   0.365  12.299  0.3858  1.1488 -1.8823
 8083TIP3    H245741   5.697   0.410  12.220 -0.9413  1.3585  0.1998
 8084TIP3   OH245742   4.035   0.754  14.484 -0.3835  0.3139  0.2310
 8084TIP3    H145743   4.108   0.777  14.541  0.6696  0.4932 -1.1301
 8084TIP3    H245744   3.971   0.712  14.542  1.0414 -0.3685  1.3710
 8085TIP3   OH245745   2.829   0.855   2.398  0.0926 -0.5712 -0.6333
 8085TIP3    H145746   2.763   0.808   2.347  0.2249 -0.8496 -0.5473
 8085TIP3    H245747   2.912   0.811   2.378  0.0929 -0.9123  0.1038
 8086TIP3   OH245748   6.439   4.525  14.137  0.1725 -0.3790  0.3834
 8086TIP3    H145749   6.420   4.513  14.044  1.1140 -0.6311  0.2157
 8086TIP3    H245750   6.353   4.539  14.177 -0.3121 -1.0138 -0.4106
 8087TIP3   OH245751   6.586   5.104  15.468  0.3159  0.0221 -0.0489
 8087TIP3    H145752   6.662   5.066  15.422  0.8430 -1.6772  2.0691
 8087TIP3    H245753   6.516   5.041  15.454  0.1475  0.0867  0.5033
 8088TIP3   OH245754   6.821   0.138   5.436 -0.4793  0.1624  0.2488
 8088TIP3    H145755   6.803   0.212   5.379  0.6256  0.2078 -0.0598
 8088TIP3    H245756   6.746   0.079   5.424 -0.4740  0.3798 -0.8999
 8089TIP3   OH245757   0.131   5.392   3.491 -0.0699 -0.6021  0.1310
 8089TIP3    H145758   0.149   5.364   3.401  2.4788 -0.5913  0.5803
 8089TIP3    H245759   0.097   5.314   3.535  2.3606 -1.7467  0.1126
 8090TIP3   OH245760   3.766   2.303   4.748  0.5827 -0.4584 -0.2333
 8090TIP3    H145761   3.707   2.302   4.673  0.2937 -0.0507 -0.0108
 8090TIP3    H245762   3.717   2.347   4.817  1.3780  0.4509 -0.2331
 8091TIP3   OH245763   5.517   3.100  17.163 -0.0283 -0.6900 -0.3757
 8091TIP3    H145764   5.531   3.156  17.087  0.2216 -1.4592 -0.9146
 8091TIP3    H245765   5.591   3.038  17.162 -0.1726 -0.8929  0.3311
 8092TIP3   OH245766   4.169   5.581   4.320 -0.3269  0.1228 -0.2727
 8092TIP3    H145767   4.077   5.593   4.300 -0.6334  0.1686  1.0331
 8092TIP3    H245768   4.171   5.507   4.381  0.3164  1.0223  0.8595
 8093TIP3   OH245769   5.266   6.000  15.955 -0.3433 -0.1559 -0.2460
 8093TIP3    H145770   5.310   5.929  15.908 -0.6229 -0.5956  0.1500
 8093TIP3    H245771   5.270   6.075  15.895  2.1675  0.2454  0.3074
 8094TIP3   OH245772   3.120   1.846  10.789 -0.0752  0.2985  0.0967
 8094TIP3    H145773   3.131   1.827  10.696  0.7244 -0.3193  0.2994
 8094TIP3    H245774   3.033   1.813  10.811 -0.8884  1.7725 -0.7364
 8095TIP3   OH245775   0.339   6.435   5.661  0.3133  0.2848 -0.0271
 8095TIP3    H145776   0.248   6.412   5.644  0.2649 -0.1685  0.7892
 8095TIP3    H245777   0.357   6.399   5.748  1.7672 -1.0939 -0.8314
 8096TIP3   OH245778   4.139   6.197   3.876 -1.2059 -0.8904 -0.2617
 8096TIP3    H145779   4.046   6.188   3.855 -1.4283 -1.0827  0.7453
 8096TIP3    H245780   4.141   6.254   3.952 -0.2176  2.6071 -2.6332
 8097TIP3   OH245781   4.373   3.621  12.584 -0.2541 -0.0506 -0.2163
 8097TIP3    H145782   4.419   3.563  12.645  1.9256  0.8713 -0.8731
 8097TIP3    H245783   4.414   3.604  12.500 -0.3766  1.5787 -0.6379
 8098TIP3   OH245784   6.054   3.562   1.245 -0.4428  0.3432 -0.1528
 8098TIP3    H145785   6.023   3.580   1.157 -0.1381  0.9666 -0.1385
 8098TIP3    H245786   6.017   3.631   1.299 -1.3384 -0.5287  0.3741
 8099TIP3   OH245787   1.563   2.316   1.319  0.2396  0.0449 -0.4761
 8099TIP3    H145788   1.558   2.361   1.403 -1.6365 -0.8891 -0.0230
 8099TIP3    H245789   1.534   2.381   1.255  1.9781  0.8576 -0.4851
 8100TIP3   OH245790   3.110   4.859  13.648 -0.0448 -0.2072 -0.2159
 8100TIP3    H145791   3.176   4.903  13.595  0.3027  0.4397  0.7360
 8100TIP3    H245792   3.066   4.929  13.695  0.4485 -0.8582  1.2547
 8101TIP3   OH245793   1.985   4.660  16.906  0.3319  0.6502 -0.1081
 8101TIP3    H145794   1.920   4.720  16.945  1.9220  2.2247  0.2833
 8101TIP3    H245795   1.944   4.629  16.826 -1.6119  0.1612  1.0066
 8102TIP3   OH245796   3.102   3.420   2.176  0.1925 -0.7057 -0.6145
 8102TIP3    H145797   3.115   3.396   2.267  1.5740 -1.6744 -1.0273
 8102TIP3    H245798   3.010   3.400   2.159  0.0167 -0.8646  0.4566
 8103TIP3   OH245799   4.844   3.941   4.675 -0.3100 -0.3815 -0.3138
 8103TIP3    H145800   4.917   3.997   4.648  0.9395 -2.0182 -0.4900
 8103TIP3    H245801   4.877   3.851   4.663 -1.7471 -1.1659  1.2600
 8104TIP3   OH245802   0.148   3.175  13.316 -0.2968 -0.4692 -0.6540
 8104TIP3    H145803   0.100   3.195  13.235  0.2804 -2.0608 -1.4194
 8104TIP3    H245804   0.235   3.148  13.287  0.8574  1.4953  0.6684
 8105TIP3   OH245805   2.032   6.335  13.468 -0.6289  0.0285 -0.4794
 8105TIP3    H145806   2.053   6.253  13.424  1.3449 -1.0529  2.1985
 8105TIP3    H245807   2.105   6.393  13.445 -0.0388 -0.2615  0.6043
 8106TIP3   OH245808   5.485   5.411  10.905 -0.4461  0.0155  0.2723
 8106TIP3    H145809   5.490   5.333  10.851 -0.4848 -0.9749  1.6538
 8106TIP3    H245810   5.475   5.483  10.842 -0.6841 -1.0985 -1.0118
 8107TIP3   OH245811   0.673   0.923   4.177  0.0156  0.1737  0.5230
 8107TIP3    H145812   0.610   0.923   4.105  0.3958  0.3117  0.1894
 8107TIP3    H245813   0.757   0.938   4.136  0.3618 -0.6469  0.8956
 8108TIP3   OH245814   3.023   4.998   2.647 -0.0052 -0.1733  0.0050
 8108TIP3    H145815   2.943   5.029   2.604 -0.4277  0.3232  1.0928
 8108TIP3    H245816   3.016   4.903   2.645  0.5413 -0.1970 -2.0013
 8109TIP3   OH245817   2.685   5.831  13.294  0.5444 -0.3364  0.3073
 8109TIP3    H145818   2.756   5.895  13.301  1.3103 -0.6612 -2.8644
 8109TIP3    H245819   2.719   5.754  13.340  0.9559  0.4876  1.4231
 8110TIP3   OH245820   4.486   5.558   5.372 -0.3652  0.2347 -0.0150
 8110TIP3    H145821   4.550   5.538   5.440 -1.1672 -0.4428  0.5586
 8110TIP3    H245822   4.403   5.526   5.406 -0.9807  0.8842 -0.8495
 8111TIP3   OH245823   3.164   3.787   4.233 -0.5248  0.6493 -0.1511
 8111TIP3    H145824   3.089   3.846   4.234  0.0209  1.3685 -0.6770
 8111TIP3    H245825   3.154   3.734   4.312 -2.7297 -0.7306 -1.2739
 8112TIP3   OH245826   4.588   4.156  15.297 -0.1710 -0.4309  0.0456
 8112TIP3    H145827   4.615   4.180  15.386  0.2685  1.3319 -0.5407
 8112TIP3    H245828   4.667   4.117  15.259  1.1225  2.9419 -1.0158
 8113TIP3   OH245829   5.554   0.133   0.983  0.1106  0.2751  0.0509
 8113TIP3    H145830   5.621   0.074   1.018 -0.1261 -0.4853 -0.7506
 8113TIP3    H245831   5.603   0.205   0.943  0.4162  0.2306  0.3422
 8114TIP3   OH245832   3.039   4.447   0.425  0.2668 -0.1813  0.2620
 8114TIP3    H145833   3.131   4.458   0.450  0.2340  0.4821  0.1069
 8114TIP3    H245834   3.028   4.503   0.349  0.0832 -1.3368 -0.5822
 8115TIP3   OH245835   0.005   0.216   6.109  0.1537 -0.0102  0.3559
 8115TIP3    H145836   0.069   0.287   6.112 -0.9953  1.1642 -1.1541
 8115TIP3    H245837  -0.057   0.236   6.179  0.1605  0.1228  0.3229
 8116TIP3   OH245838   3.287   5.768   3.739  0.3498  0.1229  0.4662
 8116TIP3    H145839   3.307   5.861   3.725  2.3510 -0.1011  1.4253
 8116TIP3    H245840   3.325   5.725   3.662  0.5297 -0.0057  0.6270
 8117TIP3   OH245841   4.838   2.776   3.234 -0.7468 -0.4915 -0.4420
 8117TIP3    H145842   4.767   2.712   3.226  0.5135 -1.8142 -1.7406
 8117TIP3    H245843   4.797   2.860   3.215 -2.5311 -0.7966  1.6364
 8118TIP3   OH245844   4.038   4.019   3.852  0.2459  0.0298  0.4259
 8118TIP3    H145845   4.103   3.949   3.849  1.7181  1.3316 -1.2785
 8118TIP3    H245846   3.956   3.976   3.876  1.3537 -2.0143  0.7746
 8119TIP3   OH245847   2.126   2.545  13.513  0.2856  0.5955  0.3483
 8119TIP3    H145848   2.217   2.558  13.487  0.2774  0.5516  0.2952
 8119TIP3    H245849   2.115   2.599  13.590  0.5087  0.1848  0.6715
 8120TIP3   OH245850   1.554   2.025   5.178  0.4680 -0.0791  0.1283
 8120TIP3    H145851   1.578   2.106   5.134  0.4999 -0.2791 -0.2328
 8120TIP3    H245852   1.613   1.959   5.141  0.0955 -0.3669  0.0376
 8121TIP3   OH245853   4.961   3.387   2.408 -0.5015 -0.1072  0.1329
 8121TIP3    H145854   4.999   3.466   2.369  1.1477 -0.3620  1.1376
 8121TIP3    H245855   5.024   3.360   2.475 -0.9124 -2.3987 -0.3131
 8122TIP3   OH245856   3.096   3.868   0.119 -0.4399  0.2324  0.1222
 8122TIP3    H145857   3.173   3.845   0.067 -1.4938 -0.4868 -1.1581
 8122TIP3    H245858   3.094   3.803   0.190 -0.5772 -0.5307 -0.5733
 8123TIP3   OH245859   4.364   4.250  11.015  0.1487  0.0061 -0.1931
 8123TIP3    H145860   4.319   4.170  11.043  0.4112  0.1393  0.6441
 8123TIP3    H245861   4.427   4.267  11.085 -1.2395  2.0267  0.6426
 8124TIP3   OH245862   2.774   2.282   1.296 -0.6182 -0.8345  0.5678
 8124TIP3    H145863   2.800   2.201   1.338  1.1563  0.1186  1.4485
 8124TIP3    H245864   2.774   2.262   1.202  0.3422 -1.6987  0.7415
 8125TIP3   OH245865   3.340   4.789   2.455 -0.1090  0.5035  0.0674
 8125TIP3    H145866   3.271   4.800   2.390  0.1586 -1.6121 -0.6548
 8125TIP3    H245867   3.318   4.850   2.525 -3.2962 -0.7548  0.3172
 8126TIP3   OH245868   4.312   2.063  14.367  0.2989  0.8047 -0.7437
 8126TIP3    H145869   4.396   2.100  14.394  1.9715 -3.1216  0.1347
 8126TIP3    H245870   4.261   2.056  14.448  0.8101 -0.5403 -0.5110
 8127TIP3   OH245871   4.393   2.922  12.374 -0.1136 -0.0721  0.0565
 8127TIP3    H145872   4.419   2.988  12.310 -1.8766 -0.5284 -1.1861
 8127TIP3    H245873   4.354   2.972  12.446 -0.6343  0.2982 -0.4766
 8128TIP3   OH245874   4.118   4.449   3.518  0.5926  0.6118  0.3598
 8128TIP3    H145875   4.146   4.362   3.547 -0.6887  0.0226 -0.0610
 8128TIP3    H245876   4.115   4.443   3.422  1.5895  1.4954  0.2532
 8129TIP3   OH245877   3.182   3.003   4.223  0.4904  0.2861 -0.0409
 8129TIP3    H145878   3.221   2.968   4.143 -0.5011  1.5329 -1.1292
 8129TIP3    H245879   3.163   3.095   4.202 -1.1292  0.2623  1.1174
 8130TIP3   OH245880   6.643   3.287   1.730  0.0207  0.1838  0.7017
 8130TIP3    H145881   6.605   3.243   1.807 -1.9536 -0.8313 -0.7524
 8130TIP3    H245882   6.685   3.216   1.681  0.4542  0.6544  0.3881
 8131TIP3   OH245883   5.314   5.971  12.902 -0.2240  1.3727 -0.1973
 8131TIP3    H145884   5.264   6.016  12.971  0.4235  1.1285  0.4471
 8131TIP3    H245885   5.336   5.886  12.940  0.1422  1.2328 -0.7088
 8132TIP3   OH245886   6.810   1.413  16.012 -0.3030 -0.9843  0.7488
 8132TIP3    H145887   6.768   1.466  16.079 -1.1179 -0.0454 -0.4481
 8132TIP3    H245888   6.739   1.358  15.978 -0.3029 -0.2941 -0.4241
 8133TIP3   OH245889   4.722   4.266   1.362 -0.8455  0.1178  0.4799
 8133TIP3    H145890   4.638   4.309   1.372 -1.0691 -0.3948  0.8212
 8133TIP3    H245891   4.736   4.218   1.444 -0.8708 -0.9112 -0.0973
 8134TIP3   OH245892   0.188   2.420   2.463 -0.0527 -0.7394 -0.1009
 8134TIP3    H145893   0.115   2.379   2.509 -0.8832  0.3486 -0.3919
 8134TIP3    H245894   0.148   2.456   2.383  0.7616  0.0465 -0.1650
 8135TIP3   OH245895   3.755   0.206  11.514  0.0279  0.7072  0.2730
 8135TIP3    H145896   3.782   0.135  11.456  1.1367  0.4758  1.0456
 8135TIP3    H245897   3.766   0.286  11.462  2.2762  0.6354  0.5365
 8136TIP3   OH245898   6.725   6.303  15.869  0.1322 -0.0112  0.3131
 8136TIP3    H145899   6.737   6.266  15.957 -0.5147 -0.1151  0.3612
 8136TIP3    H245900   6.701   6.394  15.885  0.5861  0.1256  0.2247
 8137TIP3   OH245901   5.685   3.414  15.300  0.1574 -0.3476 -0.0261
 8137TIP3    H145902   5.747   3.360  15.348  2.4667  0.2615 -2.1219
 8137TIP3    H245903   5.599   3.379  15.324  1.3620 -2.5384  1.4627
 8138TIP3   OH245904   5.209   4.553  14.739 -0.3705  0.3002 -0.4209
 8138TIP3    H145905   5.242   4.547  14.650 -0.6649 -0.2759 -0.4977
 8138TIP3    H245906   5.250   4.632  14.775  1.8894 -0.9230 -0.1689
 8139TIP3   OH245907   3.915   5.458   3.647  0.5158  0.0300 -0.0701
 8139TIP3    H145908   3.826   5.487   3.664  0.4579  0.8554 -1.6517
 8139TIP3    H245909   3.968   5.502   3.714 -0.3514 -1.2500  1.5076
 8140TIP3   OH245910   4.084   3.542   0.456 -0.0343  0.4159 -0.0898
 8140TIP3    H145911   3.990   3.526   0.468  0.1551 -0.3894  0.3594
 8140TIP3    H245912   4.108   3.600   0.528  0.1369 -0.6918  0.7798
 8141TIP3   OH245913   5.474   2.357  11.192 -0.4335 -0.2242  0.1369
 8141TIP3    H145914   5.416   2.403  11.253  0.3033  0.3903  0.3909
 8141TIP3    H245915   5.550   2.332  11.245 -0.4572 -1.0266 -0.1898
 8142TIP3   OH245916   6.211   3.485  16.895  0.0461  0.2478  0.0790
 8142TIP3    H145917   6.300   3.520  16.887 -0.4282  1.5858  0.3768
 8142TIP3    H245918   6.177   3.525  16.975  0.0505 -2.2963  1.4586
 8143TIP3   OH245919   5.867   0.404  17.181 -0.0734 -0.3186  0.1567
 8143TIP3    H145920   5.831   0.464  17.116  0.0049  0.4882  0.8466
 8143TIP3    H245921   5.806   0.330  17.181  0.6520 -0.9860 -1.7955
 8144TIP3   OH245922   6.091   0.788  12.008 -0.5894  0.0507  0.6029
 8144TIP3    H145923   6.014   0.732  11.993 -1.3163  0.9952  0.7305
 8144TIP3    H245924   6.062   0.876  11.984  0.5315  0.3952  0.4292
 8145TIP3   OH245925   1.570   4.462   1.448  0.1911  0.1331  0.0726
 8145TIP3    H145926   1.514   4.484   1.523  0.1119 -0.4738  0.1976
 8145TIP3    H245927   1.586   4.368   1.457  0.0133  0.0128 -0.7919
 8146TIP3   OH245928   2.560   2.958  13.768  0.3123  0.5120  0.4453
 8146TIP3    H145929   2.561   3.034  13.710  1.1247  0.9228  0.9566
 8146TIP3    H245930   2.468   2.939  13.783  0.1026  0.8654 -0.3763
 8147TIP3   OH245931   2.782   6.553  13.960 -0.1282 -0.3748  0.4027
 8147TIP3    H145932   2.762   6.626  14.018  0.1224  0.3997 -0.4757
 8147TIP3    H245933   2.787   6.477  14.019  0.0668  0.3807  1.3868
 8148TIP3   OH245934   5.463   2.046  12.276  0.0603 -0.0787 -0.5621
 8148TIP3    H145935   5.427   1.964  12.309 -0.2360  0.3905  0.3117
 8148TIP3    H245936   5.427   2.054  12.188  0.2348 -0.9706 -0.7282
 8149TIP3   OH245937   0.386   6.072   1.897 -0.2207 -0.0070  0.2119
 8149TIP3    H145938   0.430   6.157   1.887 -0.1745 -0.1809 -1.3237
 8149TIP3    H245939   0.328   6.084   1.972 -0.4807  1.5232 -0.1972
 8150TIP3   OH245940   0.221   3.695  16.209  0.4965 -0.5618 -0.0801
 8150TIP3    H145941   0.229   3.751  16.287 -0.9928 -0.8916  0.3528
 8150TIP3    H245942   0.288   3.726  16.149  0.2305  1.1731  0.4727
 8151TIP3   OH245943   4.476   6.770  13.231 -0.2114  0.0094 -0.5808
 8151TIP3    H145944   4.500   6.851  13.277  3.6232 -1.7633  1.0424
 8151TIP3    H245945   4.411   6.729  13.288  0.0945  0.5800  0.2069
 8152TIP3   OH245946   4.431   6.313  13.150 -0.0348  0.2550 -0.4502
 8152TIP3    H145947   4.416   6.407  13.148 -0.9891  0.2555  2.2754
 8152TIP3    H245948   4.526   6.303  13.149  0.0708  1.2444 -0.6626
 8153TIP3   OH245949   5.637   4.792  15.143 -0.2335 -0.2541 -0.0424
 8153TIP3    H145950   5.642   4.820  15.234  1.0392  0.4865 -0.3277
 8153TIP3    H245951   5.577   4.855  15.102 -4.5485 -3.1139  1.1315
 8154TIP3   OH245952   1.238   6.605   2.113  0.0356 -0.8451 -0.2611
 8154TIP3    H145953   1.190   6.527   2.141  0.8533 -1.0681  0.5799
 8154TIP3    H245954   1.328   6.574   2.104  0.5983  0.2456  1.2297
 8155TIP3   OH245955   2.479   5.668   6.098  0.8085 -0.0343  0.3150
 8155TIP3    H145956   2.443   5.694   6.183 -0.2126 -1.1348  0.2397
 8155TIP3    H245957   2.544   5.601   6.119  0.5778 -0.2841  0.2385
 8156TIP3   OH245958   1.287   2.817   4.647 -0.4100 -0.1661  0.2697
 8156TIP3    H145959   1.219   2.834   4.582  0.8929 -0.4910 -1.2592
 8156TIP3    H245960   1.284   2.892   4.706  0.0282  1.4803 -1.6999
 8157TIP3   OH245961   6.023   0.304   0.769 -0.3698 -0.4444 -0.2993
 8157TIP3    H145962   5.960   0.271   0.833 -0.1461 -1.2961 -0.5172
 8157TIP3    H245963   6.000   0.397   0.759 -1.4030 -0.6713 -0.1560
 8158TIP3   OH245964   2.129   3.056   4.216 -0.1017 -0.1169 -0.0485
 8158TIP3    H145965   2.222   3.036   4.223 -0.7712 -3.9838 -0.0690
 8158TIP3    H245966   2.115   3.073   4.122  0.4681 -0.2767 -0.1675
 8159TIP3   OH245967   2.962   0.846   5.153  0.5139 -0.0119 -0.5921
 8159TIP3    H145968   3.005   0.893   5.082  0.7775  1.0424  0.2366
 8159TIP3    H245969   2.997   0.885   5.233  0.2516 -1.1928  0.1304
 8160TIP3   OH245970   6.774   0.952   6.215  0.3011 -0.1967  0.2443
 8160TIP3    H145971   6.680   0.967   6.216  0.5088  1.6565 -1.3262
 8160TIP3    H245972   6.786   0.877   6.157 -0.2211 -0.5306  0.5648
 8161TIP3   OH245973   0.385   5.024  14.720 -0.0347 -0.2566  0.2536
 8161TIP3    H145974   0.309   4.986  14.677 -1.0042  1.7975  0.0224
 8161TIP3    H245975   0.421   5.085  14.655  1.4822 -0.7624  0.5768
 8162TIP3   OH245976   2.063   1.058   2.359  0.1237 -0.2071  0.1638
 8162TIP3    H145977   2.105   1.064   2.273  0.5955  2.0227  0.4809
 8162TIP3    H245978   2.055   0.964   2.375  2.7928 -0.7209 -0.9787
 8163TIP3   OH245979   6.766   2.579   4.518  0.2158 -0.6440 -0.1208
 8163TIP3    H145980   6.765   2.521   4.442  0.4538 -3.1735  1.6588
 8163TIP3    H245981   6.804   2.661   4.486  0.1731 -1.5393 -2.7114
 8164TIP3   OH245982   2.832   4.594  12.256 -0.2110 -0.3343 -0.1568
 8164TIP3    H145983   2.867   4.682  12.268  0.6332 -0.7108  0.2594
 8164TIP3    H245984   2.838   4.577  12.162  1.7491 -0.7781  0.0056
 8165TIP3   OH245985   2.870   3.465  11.002  0.1897  0.4551  0.0763
 8165TIP3    H145986   2.807   3.429  11.065 -2.3549  3.5120 -0.4219
 8165TIP3    H245987   2.956   3.439  11.036 -1.1808 -0.7048  3.0216
 8166TIP3   OH245988   0.232   1.581   6.177 -0.3857  0.0884  0.1395
 8166TIP3    H145989   0.239   1.663   6.128  0.2316 -0.5028 -0.7902
 8166TIP3    H245990   0.138   1.563   6.181 -0.5112  0.7325  0.1842
 8167TIP3   OH245991   4.036   4.224  15.740  0.4006  0.2159 -0.1605
 8167TIP3    H145992   3.945   4.254  15.744  0.2145 -0.2229 -0.9072
 8167TIP3    H245993   4.087   4.295  15.778 -0.3908 -0.1680  1.6928
 8168TIP3   OH245994   0.326   0.399  12.533  0.0597  0.1567 -0.6330
 8168TIP3    H145995   0.375   0.434  12.607 -1.3255  0.3962  0.2092
 8168TIP3    H245996   0.373   0.320  12.508  1.3568  0.8462 -0.4309
 8169TIP3   OH245997   3.810   0.854   4.769 -1.0798  0.2126  0.0973
 8169TIP3    H145998   3.826   0.805   4.850 -1.8418  0.0949  0.1843
 8169TIP3    H245999   3.845   0.799   4.700 -2.6552 -0.8858  0.1014
 8170TIP3   OH246000   3.252   2.096  16.838  0.7743  0.2333 -0.1441
 8170TIP3    H146001   3.237   2.062  16.750  0.8406  1.2890 -0.5836
 8170TIP3    H246002   3.168   2.131  16.866  0.9926  0.8509 -0.2293
 8171TIP3   OH246003   1.708   4.084   3.741  0.3115  0.4823  0.2014
 8171TIP3    H146004   1.758   4.150   3.790 -0.1150  0.7745  0.2508
 8171TIP3    H246005   1.699   4.122   3.654 -1.7924  1.5191  0.7942
 8172TIP3   OH246006   0.376   5.404  15.115  0.4493 -0.3814  0.4578
 8172TIP3    H146007   0.438   5.397  15.042 -0.8303  1.5802 -0.9435
 8172TIP3    H246008   0.430   5.393  15.193  2.2891 -0.3032 -0.7232
 8173TIP3   OH246009   1.558   2.992  11.260 -0.4285  0.1039 -0.1254
 8173TIP3    H146010   1.514   3.059  11.311 -1.0914  0.3488 -0.9872
 8173TIP3    H246011   1.627   3.039  11.213  0.6034 -0.2331  1.0203
 8174TIP3   OH246012   6.230   0.194   0.926  0.1575 -0.2391 -0.3409
 8174TIP3    H146013   6.149   0.229   0.890  1.2442  2.8356 -0.1553
 8174TIP3    H246014   6.233   0.228   1.016  2.1977  0.8800 -0.7690
 8175TIP3   OH246015   3.795   1.085  12.503  0.1630 -0.3166  0.2720
 8175TIP3    H146016   3.733   1.102  12.432  1.4591  1.9119 -0.4213
 8175TIP3    H246017   3.764   1.139  12.576  0.2646 -0.6200  0.5421
 8176TIP3   OH246018   3.499   1.450  11.459  0.0858  0.3608  0.6352
 8176TIP3    H146019   3.429   1.387  11.448  0.8034 -0.4836  0.7809
 8176TIP3    H246020   3.524   1.476  11.370 -0.1304  0.3485  0.5727
 8177TIP3   OH246021   6.572   1.677  17.002  0.0130  0.2471 -0.1871
 8177TIP3    H146022   6.660   1.639  17.001 -0.7238 -1.6114 -1.8907
 8177TIP3    H246023   6.522   1.619  17.060  0.4006  2.7914  2.9339
 8178TIP3   OH246024   3.500   1.886   2.511 -0.2460 -0.8092  0.5640
 8178TIP3    H146025   3.491   1.977   2.539 -0.0776 -0.8336  0.7027
 8178TIP3    H246026   3.504   1.890   2.415 -1.5577 -0.7877  0.4914
 8179TIP3   OH246027   5.317   5.383  14.770 -0.1159  0.2251 -0.0236
 8179TIP3    H146028   5.371   5.319  14.722 -1.5484 -2.1827  1.3831
 8179TIP3    H246029   5.272   5.432  14.701  0.5978 -0.6620 -1.1679
 8180TIP3   OH246030   0.497   1.819   0.824  0.0254  0.0325 -0.6308
 8180TIP3    H146031   0.561   1.749   0.811  0.9084  0.8931 -1.0163
 8180TIP3    H246032   0.472   1.847   0.736 -0.8629 -0.2616 -0.4863
 8181TIP3   OH246033   1.151   0.303  13.425 -0.1609  0.5326  0.3702
 8181TIP3    H146034   1.204   0.350  13.489 -0.6932  0.4467  0.8832
 8181TIP3    H246035   1.206   0.229  13.398  0.3082  0.9184  0.2619
 8182TIP3   OH246036   1.201   1.430   6.272  0.2881  0.0692 -0.1113
 8182TIP3    H146037   1.113   1.466   6.260  0.6097  0.7282 -0.6138
 8182TIP3    H246038   1.239   1.482   6.343 -0.1288 -1.0018  0.9208
 8183TIP3   OH246039   5.219   6.468  15.114 -0.6594 -0.0764  0.2434
 8183TIP3    H146040   5.240   6.558  15.088  0.8450 -0.6231 -0.5419
 8183TIP3    H246041   5.219   6.420  15.031  0.4605 -1.1537  0.8458
 8184TIP3   OH246042   5.681   2.626   4.415  0.2349  0.6367  0.0867
 8184TIP3    H146043   5.773   2.610   4.437 -0.3064 -1.8667  0.7596
 8184TIP3    H246044   5.662   2.712   4.454  2.1676  1.0723  0.1961
 8185TIP3   OH246045   5.378   5.969  15.206  0.2551  0.0842 -0.0161
 8185TIP3    H146046   5.448   5.912  15.173 -0.9270 -0.7537 -1.1973
 8185TIP3    H246047   5.308   5.961  15.141 -1.0190  0.7465  1.2207
 8186TIP3   OH246048   3.465   0.317   3.075  0.5038 -0.9028  0.4075
 8186TIP3    H146049   3.447   0.225   3.090  2.5387 -1.2547  0.9559
 8186TIP3    H246050   3.450   0.359   3.160 -1.0131 -0.5946  0.0116
 8187TIP3   OH246051   0.623   1.324  10.616  0.7875  0.0454 -0.1128
 8187TIP3    H146052   0.577   1.284  10.541  2.6955  0.4352 -1.5640
 8187TIP3    H246053   0.677   1.254  10.651  0.2436 -0.0062  0.6617
 8188TIP3   OH246054   1.160   0.382  12.719  0.0583  0.0421 -0.3045
 8188TIP3    H146055   1.104   0.459  12.735 -0.4721 -0.4050  0.0421
 8188TIP3    H246056   1.170   0.342  12.805 -0.2270 -0.6487 -0.5824
 8189TIP3   OH246057   5.679   1.133  13.282 -0.4675  0.2039  0.6527
 8189TIP3    H146058   5.619   1.183  13.338  1.1611  1.4517  1.3798
 8189TIP3    H246059   5.713   1.065  13.340 -2.8730 -2.0852 -0.4013
 8190TIP3   OH246060   4.198   4.132  14.022  0.2462  0.0589  0.2968
 8190TIP3    H146061   4.192   4.102  13.931 -1.2370 -1.5113  0.8605
 8190TIP3    H246062   4.120   4.187  14.033  0.3957  0.1992  0.6363
 8191TIP3   OH246063   1.990   3.145  16.947 -0.3771  0.4248  0.3309
 8191TIP3    H146064   1.970   3.196  16.868  0.4702  1.5774  0.8218
 8191TIP3    H246065   1.916   3.162  17.006 -0.9682 -0.3683 -0.1799
 8192TIP3   OH246066   1.721   4.995  12.763 -0.8609 -0.1372  0.1613
 8192TIP3    H146067   1.704   4.961  12.675  0.8586  1.6984 -0.9575
 8192TIP3    H246068   1.654   5.062  12.777 -0.5068  0.3043 -0.2147
 8193TIP3   OH246069   5.298   5.622   1.531  0.0145  0.1066  0.5409
 8193TIP3    H146070   5.289   5.674   1.451 -0.8337 -1.0793 -0.1743
 8193TIP3    H246071   5.348   5.678   1.591  1.1395  0.8043 -0.9930
 8194TIP3   OH246072   1.111   3.068  16.364 -0.0435 -0.1673 -0.5753
 8194TIP3    H146073   1.179   3.131  16.339 -0.1742  0.0238 -0.4467
 8194TIP3    H246074   1.077   3.101  16.447 -2.7866  1.7644 -2.3205
 8195TIP3   OH246075   3.325   4.684  12.758 -0.4937  0.4137  0.1118
 8195TIP3    H146076   3.396   4.623  12.781 -0.4879  0.7977  1.1788
 8195TIP3    H246077   3.274   4.638  12.692  0.1169 -0.3214  0.1357
 8196TIP3   OH246078   1.332   0.227   5.916  0.1212 -0.0139  0.1541
 8196TIP3    H146079   1.377   0.142   5.906 -0.6681 -0.3081 -1.1736
 8196TIP3    H246080   1.295   0.224   6.004  0.6965 -0.7656  0.3821
 8197TIP3   OH246081   1.809   5.430   6.984 -0.8831 -0.6507 -0.8462
 8197TIP3    H146082   1.837   5.340   6.968  0.8933 -0.2981  0.0416
 8197TIP3    H246083   1.732   5.442   6.928 -0.2699 -2.2387 -2.0849
 8198TIP3   OH246084   4.471   6.209   4.312  0.1459  0.0385 -0.5999
 8198TIP3    H146085   4.563   6.221   4.339 -0.1672  1.3490 -0.0317
 8198TIP3    H246086   4.453   6.285   4.258 -0.6968 -0.0744 -0.4812
 8199TIP3   OH246087   4.693   2.262   5.154  0.0803  0.2963  0.1798
 8199TIP3    H146088   4.647   2.345   5.141 -1.3598 -0.7860 -2.2772
 8199TIP3    H246089   4.777   2.287   5.193  0.4229  3.0837 -2.0485
 8200TIP3   OH246090   0.382   2.629  13.044  0.6672 -0.1663 -0.1261
 8200TIP3    H146091   0.291   2.603  13.038 -0.0298  1.9228  0.3365
 8200TIP3    H246092   0.381   2.708  13.099  2.5941  0.5477 -1.0068
 8201TIP3   OH246093   3.846   0.718  13.540  0.4431  0.1908 -0.0984
 8201TIP3    H146094   3.854   0.741  13.633 -0.3317  2.4530 -0.5156
 8201TIP3    H246095   3.793   0.789  13.503  1.0437 -0.4682 -2.3431
 8202TIP3   OH246096   0.203   1.269  14.743 -0.5565 -0.4047  0.6192
 8202TIP3    H146097   0.259   1.344  14.728 -1.1424 -0.2721 -1.1015
 8202TIP3    H246098   0.216   1.247  14.835  0.0771  1.4197  1.0017
 8203TIP3   OH246099   1.109   0.171   0.812 -0.0720  0.3379 -0.1508
 8203TIP3    H146100   1.177   0.172   0.879  0.2153 -1.2584 -0.3840
 8203TIP3    H246101   1.131   0.096   0.757  0.3714  2.2224 -2.7580
 8204TIP3   OH246102   5.716   5.935  15.193  0.2275 -0.5709 -0.1688
 8204TIP3    H146103   5.804   5.897  15.197  0.1170 -0.9284 -0.8736
 8204TIP3    H246104   5.701   5.950  15.100 -0.9581 -1.7370 -0.2015
 8205TIP3   OH246105   3.287   1.759  15.346  0.2229 -0.9995  0.1581
 8205TIP3    H146106   3.347   1.764  15.421  2.1132 -1.3210 -1.2675
 8205TIP3    H246107   3.255   1.848  15.336  0.1428 -0.8977  1.1832
 8206TIP3   OH246108   5.451   0.476  13.131  0.2017  0.4790 -0.5232
 8206TIP3    H146109   5.429   0.553  13.184 -0.3338 -0.2747  0.3728
 8206TIP3    H246110   5.488   0.513  13.051 -2.1763  1.7761 -1.1243
 8207TIP3   OH246111   4.176   3.750   1.753 -0.5361 -0.7224 -0.1940
 8207TIP3    H146112   4.117   3.818   1.721  0.3183  1.0720  1.7982
 8207TIP3    H246113   4.249   3.750   1.690  0.0213  1.0939  0.3893
 8208TIP3   OH246114   6.110   4.340  10.910  0.0302 -0.4960 -0.5355
 8208TIP3    H146115   6.159   4.342  10.828 -0.6733  1.4387 -0.9731
 8208TIP3    H246116   6.021   4.317  10.883 -0.0716 -0.4648 -0.2279
 8209TIP3   OH246117   1.381   2.694  11.322 -0.0947  0.2837  0.0965
 8209TIP3    H146118   1.387   2.602  11.298 -2.2507  0.2178 -0.3823
 8209TIP3    H246119   1.454   2.736  11.277  1.0721 -1.1947  0.5229
 8210TIP3   OH246120   5.401   3.210  14.330  0.1897  0.3799 -0.3154
 8210TIP3    H146121   5.407   3.196  14.425  0.4383  3.4214  0.2244
 8210TIP3    H246122   5.378   3.303  14.321 -1.6448 -0.2204 -3.2289
 8211TIP3   OH246123   0.079   5.298  11.916 -0.4818 -0.3836 -0.2083
 8211TIP3    H146124   0.162   5.265  11.881  0.5100 -0.4585  1.9849
 8211TIP3    H246125   0.084   5.279  12.010 -3.3317 -1.0629 -0.1049
 8212TIP3   OH246126   3.792   4.187   1.812  0.2427 -0.0346  0.1596
 8212TIP3    H146127   3.703   4.160   1.834  0.0800 -0.9583 -1.4286
 8212TIP3    H246128   3.847   4.143   1.877 -0.4760  1.1380  1.6108
 8213TIP3   OH246129   5.993   2.562   6.525  0.2661  0.6083 -0.1653
 8213TIP3    H146130   6.007   2.628   6.456 -1.1405  1.3587  0.2372
 8213TIP3    H246131   5.900   2.541   6.519  0.6035 -1.0358  0.0209
 8214TIP3   OH246132   4.875   6.531  13.498  0.2261 -0.1179 -0.1669
 8214TIP3    H146133   4.847   6.561  13.585  0.3279  3.4524 -1.1902
 8214TIP3    H246134   4.961   6.570  13.486 -0.0105 -0.0624 -2.0546
 8215TIP3   OH246135   1.273   3.346  14.121 -0.6043  0.3823 -0.0156
 8215TIP3    H146136   1.341   3.280  14.128 -1.6745 -0.6309  1.3934
 8215TIP3    H246137   1.285   3.401  14.198 -1.4142  0.1339  0.3018
 8216TIP3   OH246138   6.193   0.740   4.652 -0.1947 -0.7853 -0.5946
 8216TIP3    H146139   6.212   0.807   4.586 -0.3974 -0.2603 -0.1232
 8216TIP3    H246140   6.271   0.684   4.651 -0.7442 -1.5893 -2.2291
 8217TIP3   OH246141   4.945   5.777   0.730 -0.2134  0.2871  0.3160
 8217TIP3    H146142   4.932   5.866   0.761 -2.4159 -0.8861  3.1736
 8217TIP3    H246143   4.862   5.754   0.689  1.0607  0.1605 -2.4239
 8218TIP3   OH246144   0.739   5.387   4.321 -0.0840  0.1740  0.4379
 8218TIP3    H146145   0.723   5.448   4.249 -2.4165  1.9534  2.2856
 8218TIP3    H246146   0.685   5.310   4.300 -0.6827  0.6429  0.2133
 8219TIP3   OH246147   1.549   1.120  15.320 -0.0034 -0.2214  0.5308
 8219TIP3    H146148   1.561   1.041  15.373  0.2397 -0.1003  0.6615
 8219TIP3    H246149   1.624   1.175  15.343  1.0803 -0.8718 -1.2049
 8220TIP3   OH246150   0.321   0.510  12.252  0.3819  0.2613  0.2835
 8220TIP3    H146151   0.404   0.555  12.240  1.4778 -2.1265 -2.1042
 8220TIP3    H246152   0.324   0.477  12.342  1.2748  1.5516  0.7491
 8221TIP3   OH246153   0.840   3.137  13.084  0.0274 -0.4251  0.2434
 8221TIP3    H146154   0.923   3.178  13.061  0.7585 -0.4735  2.5332
 8221TIP3    H246155   0.854   3.102  13.172 -2.6524  0.2212  1.0105
 8222TIP3   OH246156   5.636   5.648  12.811  0.5159  0.0797 -0.3426
 8222TIP3    H146157   5.655   5.585  12.742 -0.0636  0.0748 -0.5079
 8222TIP3    H246158   5.575   5.710  12.770 -2.6359 -1.8369  1.0825
 8223TIP3   OH246159   5.860   3.190  11.097  0.1015  0.6526 -0.5623
 8223TIP3    H146160   5.890   3.111  11.142 -0.7784  0.7419  0.2114
 8223TIP3    H246161   5.810   3.238  11.163  1.8683  2.6386 -0.5749
 8224TIP3   OH246162   5.831   3.394  12.109  0.7792 -0.1380  0.2688
 8224TIP3    H146163   5.830   3.354  12.022  1.5819 -1.7603  0.9595
 8224TIP3    H246164   5.748   3.442  12.114  0.2668 -0.8382 -1.0230
 8225TIP3   OH246165   4.860   2.181  17.277 -0.2823 -0.1285 -0.2279
 8225TIP3    H146166   4.920   2.107  17.263 -0.1077  0.1494 -0.9700
 8225TIP3    H246167   4.773   2.142  17.269 -0.3013 -0.8677  2.4373
 8226TIP3   OH246168   1.572   4.359  15.767 -0.0468 -0.4671 -0.3975
 8226TIP3    H146169   1.576   4.329  15.857 -0.7651  1.0829  0.1857
 8226TIP3    H246170   1.491   4.322  15.732  0.1190 -0.8856 -0.3389
 8227TIP3   OH246171   5.954   0.200  13.328  0.4693  0.1865  0.4981
 8227TIP3    H146172   5.987   0.122  13.284  0.4300  0.3504  0.1742
 8227TIP3    H246173   6.031   0.254  13.344  0.9152 -1.0670  3.1263
 8228TIP3   OH246174   5.323   0.658   0.804 -0.0900 -0.3598  0.7356
 8228TIP3    H146175   5.329   0.617   0.890  0.9702  2.0823  1.9061
 8228TIP3    H246176   5.232   0.686   0.797 -0.1560 -0.4832  1.0893
 8229TIP3   OH246177   1.698   1.810  16.851  0.1171  0.1074  0.2197
 8229TIP3    H146178   1.667   1.899  16.870 -2.7348 -0.4473 -1.2517
 8229TIP3    H246179   1.715   1.811  16.757  1.8419 -0.4881  0.4876
 8230TIP3   OH246180   4.536   0.869  15.918  0.0883  0.3854  0.1461
 8230TIP3    H146181   4.510   0.849  15.828  1.5633 -0.5972 -0.1046
 8230TIP3    H246182   4.567   0.959  15.915  0.0397  0.3881 -0.3170
 8231TIP3   OH246183   2.503   5.473  13.989  0.3613 -0.3531  0.1256
 8231TIP3    H146184   2.522   5.522  13.909  0.3039 -0.0610  0.2873
 8231TIP3    H246185   2.574   5.497  14.049  1.2462 -1.7271 -0.3251
 8232TIP3   OH246186   4.291   3.201   0.020 -0.1656 -0.4842 -0.2093
 8232TIP3    H146187   4.354   3.130   0.011  1.5963  0.7779  1.4173
 8232TIP3    H246188   4.302   3.232   0.110 -1.9356  0.8981 -0.3993
 8233TIP3   OH246189   3.230   1.125  15.422  0.0845 -0.2355 -0.4352
 8233TIP3    H146190   3.201   1.121  15.331  0.9630  1.0930 -0.7946
 8233TIP3    H246191   3.184   1.201  15.459  1.3836  0.5622 -0.4042
 8234TIP3   OH246192   6.626   6.687  13.207  0.1623  1.0514  0.2497
 8234TIP3    H146193   6.634   6.614  13.146  0.3819  0.8899  0.4689
 8234TIP3    H246194   6.664   6.761  13.160 -1.5121  1.4030 -0.5859
 8235TIP3   OH246195   4.962   4.202  11.169 -0.3436 -0.5536 -0.4781
 8235TIP3    H146196   5.028   4.159  11.223 -2.5402 -2.6381  0.7633
 8235TIP3    H246197   5.012   4.254  11.106  2.4061 -1.0940  1.0857
 8236TIP3   OH246198   5.542   0.348   1.311 -0.1645  0.6032 -0.3123
 8236TIP3    H146199   5.610   0.371   1.247 -0.6436 -0.5454 -1.2701
 8236TIP3    H246200   5.589   0.341   1.394  0.6187  1.3103 -0.6776
 8237TIP3   OH246201   3.962   2.656  17.246  0.3640 -0.2817 -0.0001
 8237TIP3    H146202   3.945   2.706  17.166 -0.8031 -0.8325 -0.1011
 8237TIP3    H246203   4.010   2.579  17.216 -0.7198 -0.8588 -0.2741
 8238TIP3   OH246204   0.927   3.585  14.773 -0.3284  0.2200 -0.4668
 8238TIP3    H146205   0.994   3.599  14.706 -0.5668  1.2144 -0.5076
 8238TIP3    H246206   0.976   3.575  14.854 -0.0812 -0.0925 -0.6536
 8239TIP3   OH246207   2.958   0.032  16.475 -0.2887  0.1901 -0.0839
 8239TIP3    H146208   2.930  -0.059  16.490  0.6864  0.1617  1.9160
 8239TIP3    H246209   2.878   0.083  16.482 -0.7202 -0.4322 -0.3847
 8240TIP3   OH246210   3.486   2.420  11.095 -0.1830  0.0538  0.3016
 8240TIP3    H146211   3.471   2.426  11.001 -0.0980 -1.5153  0.1770
 8240TIP3    H246212   3.565   2.473  11.110  0.6194 -0.8218 -0.7175
 8241TIP3   OH246213   0.126   1.066   2.105  0.0562  0.1598 -0.0177
 8241TIP3    H146214   0.208   1.035   2.145 -0.7366 -1.9724  0.1092
 8241TIP3    H246215   0.139   1.049   2.011 -0.5437 -1.0402  0.0978
 8242TIP3   OH246216   3.755   2.419   2.014  0.1269 -0.0501 -0.2295
 8242TIP3    H146217   3.722   2.365   1.942  0.2891 -0.2381 -0.1634
 8242TIP3    H246218   3.678   2.466   2.045  0.5594  2.5684 -2.6296
 8243TIP3   OH246219   4.723   5.622  14.757 -0.0345  0.0184 -0.0644
 8243TIP3    H146220   4.799   5.643  14.704 -0.5780 -0.2697 -0.9706
 8243TIP3    H246221   4.759   5.577  14.834  0.9141  1.8465  0.6374
 8244TIP3   OH246222   4.555   1.832   0.345 -0.1701 -0.2538 -0.0455
 8244TIP3    H146223   4.562   1.806   0.437 -1.1341  2.3852  0.8928
 8244TIP3    H246224   4.461   1.843   0.331 -0.0235 -0.5438 -1.3405
 8245TIP3   OH246225   3.093   0.322  11.763  0.6555  0.3940  0.4552
 8245TIP3    H146226   3.132   0.249  11.812 -0.0943  0.3288  0.9727
 8245TIP3    H246227   3.029   0.280  11.705  2.1783  0.3566 -1.3354
 8246TIP3   OH246228   6.581   2.933   1.928 -0.0084  0.4966  0.1362
 8246TIP3    H146229   6.583   2.868   1.858  2.0905  0.7560 -0.1328
 8246TIP3    H246230   6.655   2.909   1.985 -0.7195  1.2006  1.3978
 8247TIP3   OH246231   1.771   0.367  15.347 -0.2434  0.2675 -0.1586
 8247TIP3    H146232   1.686   0.404  15.370 -0.9097 -1.0528 -0.4330
 8247TIP3    H246233   1.752   0.280  15.313  1.3988 -1.0054  1.9391
 8248TIP3   OH246234   0.165   4.240  14.542  0.0247 -0.2218 -0.2769
 8248TIP3    H146235   0.183   4.194  14.624 -2.1056 -0.0498  0.3522
 8248TIP3    H246236   0.191   4.178  14.474 -0.1727 -1.2346  0.5359
 8249TIP3   OH246237   1.934   5.635  13.639 -0.4409  0.1733  0.0821
 8249TIP3    H146238   1.935   5.564  13.575 -3.1767 -0.0220  0.1742
 8249TIP3    H246239   1.973   5.596  13.718  0.5207 -0.3748 -0.6328
 8250TIP3   OH246240   4.536   6.049   0.518  0.3512  0.7420  0.1176
 8250TIP3    H146241   4.447   6.057   0.483  0.3890 -2.3077 -0.9668
 8250TIP3    H246242   4.533   6.094   0.602 -2.4020  0.2343  0.3996
 8251TIP3   OH246243   1.061   2.295  17.161  0.0337  0.1448 -0.3027
 8251TIP3    H146244   1.101   2.287  17.075  0.5080 -1.3530  0.0135
 8251TIP3    H246245   0.968   2.276  17.146 -0.0254  0.6771 -0.6017
 8252TIP3   OH246246   4.031   1.434  15.218  0.2395 -0.2555  0.2144
 8252TIP3    H146247   3.984   1.351  15.222  0.7487 -0.5595  0.0494
 8252TIP3    H246248   4.049   1.446  15.124  0.2366 -0.0021  0.2468
 8253TIP3   OH246249   5.660   3.031   0.145  0.2272 -0.4160  0.6684
 8253TIP3    H146250   5.738   3.083   0.127 -1.6475  1.5270 -2.6570
 8253TIP3    H246251   5.604   3.088   0.196 -0.6117 -0.2949 -0.3737
 8254TIP3   OH246252   4.853   4.145  10.807  0.0020 -0.4983  0.8311
 8254TIP3    H146253   4.867   4.126  10.714  1.4145  1.9156  0.4643
 8254TIP3    H246254   4.762   4.173  10.812  0.5852  1.9017 -0.3964
 8255TIP3   OH246255   3.711   4.880   1.607  0.2823 -0.3416  0.1232
 8255TIP3    H146256   3.700   4.889   1.702  0.8120 -1.0959  0.2602
 8255TIP3    H246257   3.629   4.842   1.577 -0.2031  0.6345  0.1569
 8256TIP3   OH246258   0.394   0.827  13.242 -0.2163  0.0109 -0.0190
 8256TIP3    H146259   0.366   0.868  13.160  1.1459 -0.5453 -0.8084
 8256TIP3    H246260   0.487   0.807  13.227 -0.1953 -0.9756  1.3053
 8257TIP3   OH246261   2.765   5.228   5.703  0.1527 -0.3971 -0.0405
 8257TIP3    H146262   2.829   5.176   5.753  0.2064 -0.4664 -0.1787
 8257TIP3    H246263   2.771   5.193   5.614 -0.4344 -0.7426  0.0488
 8258TIP3   OH246264   5.694   5.738   4.063 -0.0460 -0.2480  0.0498
 8258TIP3    H146265   5.636   5.804   4.099  1.6506  1.3810 -0.0340
 8258TIP3    H246266   5.687   5.748   3.968 -0.9581 -1.3029 -0.0153
 8259TIP3   OH246267   0.553   0.912   1.023  0.1927  0.5875 -0.5734
 8259TIP3    H146268   0.529   0.825   1.057 -1.7931  1.4385  0.3822
 8259TIP3    H246269   0.530   0.972   1.094 -0.7558  2.1128 -2.1054
 8260TIP3   OH246270   1.044   0.051  16.601  0.0047 -0.1432  0.2311
 8260TIP3    H146271   1.024   0.100  16.681 -1.0939 -0.7067  0.3143
 8260TIP3    H246272   1.038   0.116  16.531  1.8365  0.5594  0.6508
 8261TIP3   OH246273   0.590   1.164  14.048  0.7959  0.4874  0.2981
 8261TIP3    H146274   0.587   1.254  14.080  0.5938  0.1461  1.2789
 8261TIP3    H246275   0.552   1.169  13.960 -0.7693  1.1170  0.9619
 8262TIP3   OH246276   6.177   1.659  15.604 -0.2002 -0.1966 -0.1958
 8262TIP3    H146277   6.113   1.729  15.613 -0.6916 -0.7701  1.0550
 8262TIP3    H246278   6.200   1.635  15.694  1.7142 -0.0793 -0.6052
 8263TIP3   OH246279   0.596   5.317  17.213 -0.1170  0.8268  0.0312
 8263TIP3    H146280   0.530   5.351  17.273 -0.6457 -0.9285  0.5092
 8263TIP3    H246281   0.553   5.319  17.127 -0.9012 -0.4845  0.3700
 8264TIP3   OH246282   5.269   5.811  15.520 -0.9000 -0.0232  0.1968
 8264TIP3    H146283   5.207   5.745  15.490  0.6676 -1.1147 -0.7989
 8264TIP3    H246284   5.214   5.885  15.547 -2.5660  0.0880 -3.0235
 8265TIP3   OH246285   4.626   4.495  14.639  0.1486 -0.1357 -0.3689
 8265TIP3    H146286   4.566   4.439  14.590 -0.2463 -0.1764  0.1623
 8265TIP3    H246287   4.699   4.510  14.578  0.9164 -2.2901 -0.0831
 8266TIP3   OH246288   4.992   4.786  16.714 -0.9280  0.4297 -0.0382
 8266TIP3    H146289   4.932   4.737  16.657  0.9615  0.4722 -2.2100
 8266TIP3    H246290   5.073   4.793  16.663  1.0473  0.1770  2.8418
 8267TIP3   OH246291   2.510   2.533  13.793  0.0610  0.4886  0.0413
 8267TIP3    H146292   2.565   2.465  13.754  0.0780  1.0635 -0.9728
 8267TIP3    H246293   2.506   2.510  13.886  0.6707 -0.4754 -0.1540
 8268TIP3   OH246294   5.169   2.847  16.113  0.1920  0.0754  0.2464
 8268TIP3    H146295   5.142   2.758  16.089  1.5034 -0.3690  0.3125
 8268TIP3    H246296   5.208   2.883  16.033  0.7700  0.1313  0.5478
 8269TIP3   OH246297   2.271   4.056   1.570  0.2363  0.5443  0.0607
 8269TIP3    H146298   2.271   4.047   1.475 -1.0441 -0.4170  0.1220
 8269TIP3    H246299   2.259   4.149   1.586 -1.7272  0.4774 -0.7619
 8270TIP3   OH246300   2.234   6.262  17.167 -0.5536  0.1211 -0.6182
 8270TIP3    H146301   2.214   6.299  17.081  0.5075 -0.9054 -1.3415
 8270TIP3    H246302   2.270   6.176  17.148 -0.5632 -0.2436  0.8854
 8271TIP3   OH246303   6.513   3.873  11.920  0.1332 -0.3677 -0.8957
 8271TIP3    H146304   6.541   3.803  11.979 -1.3563 -0.1590  0.1320
 8271TIP3    H246305   6.592   3.922  11.900  0.6863 -0.4198  0.9987
 8272TIP3   OH246306   4.853   2.523  14.460  0.0692 -0.1386 -0.1514
 8272TIP3    H146307   4.852   2.612  14.496  0.2446 -0.6243  1.1152
 8272TIP3    H246308   4.800   2.529  14.381  0.0415  1.0890 -0.0636
 8273TIP3   OH246309   3.893   4.409  16.474 -0.6332 -0.2025  0.1419
 8273TIP3    H146310   3.966   4.356  16.505 -1.8061 -0.8706  1.8866
 8273TIP3    H246311   3.875   4.376  16.386  0.9454 -0.2195 -0.2030
 8274TIP3   OH246312   6.568   3.015  14.728  0.5617  0.7345  0.2668
 8274TIP3    H146313   6.607   3.102  14.728 -0.1281  1.0664 -0.9307
 8274TIP3    H246314   6.641   2.956  14.713  0.8496  1.2100 -0.2532
 8275TIP3   OH246315   4.775   1.734   4.725  0.5798  0.5108 -0.1445
 8275TIP3    H146316   4.835   1.730   4.650 -0.7173 -0.5775 -1.1678
 8275TIP3    H246317   4.697   1.778   4.692 -0.1041 -0.1951  0.4819
 8276TIP3   OH246318   2.035   5.123   0.898 -0.2508  0.6328 -0.0269
 8276TIP3    H146319   1.952   5.144   0.855  0.3762  1.0015 -1.1028
 8276TIP3    H246320   2.033   5.028   0.907 -2.4359  0.8250  3.4683
 8277TIP3   OH246321   1.552   0.463   3.431  0.0035 -0.0094 -0.4169
 8277TIP3    H146322   1.503   0.478   3.512 -0.3937 -1.3944 -0.3693
 8277TIP3    H246323   1.641   0.493   3.451 -0.1260 -0.1868  0.4871
 8278TIP3   OH246324   5.061   1.490  17.152  0.4580  0.2641  0.0864
 8278TIP3    H146325   5.036   1.583  17.155 -0.9156 -0.0700 -0.5006
 8278TIP3    H246326   5.026   1.454  17.234  3.3665  0.7753  1.6873
 8279TIP3   OH246327   6.553   2.612   0.785 -0.4152  0.0991 -0.1310
 8279TIP3    H146328   6.519   2.625   0.696  0.3467 -2.0411 -0.7873
 8279TIP3    H246329   6.531   2.694   0.830 -2.8005  0.4183 -1.6355
 8280TIP3   OH246330   4.663   4.214  16.250 -0.1792  0.4152  0.4871
 8280TIP3    H146331   4.652   4.121  16.272  0.2856 -0.0559 -1.1629
 8280TIP3    H246332   4.588   4.257  16.291 -1.1974 -0.9133  0.0922
 8281TIP3   OH246333   4.073   1.389  13.355 -0.2968  0.5636 -0.3034
 8281TIP3    H146334   4.036   1.424  13.274 -0.2497 -0.5487 -0.8247
 8281TIP3    H246335   4.026   1.306  13.368  0.7560  0.0024 -0.0125
 8282TIP3   OH246336   2.542   1.750   4.019  0.1387  0.0620 -0.2379
 8282TIP3    H146337   2.596   1.672   4.010 -0.1457 -0.0984 -0.5510
 8282TIP3    H246338   2.485   1.733   4.094  1.2270  0.6491  0.7554
 8283TIP3   OH246339   1.888   3.262   3.792  0.3755  0.1298 -0.2582
 8283TIP3    H146340   1.890   3.166   3.787  0.7345  0.0716  0.8442
 8283TIP3    H246341   1.817   3.281   3.853  1.4138  0.4954  0.8681
 8284TIP3   OH246342   1.785   3.145   5.609 -0.1176  0.1395  0.1974
 8284TIP3    H146343   1.698   3.107   5.598 -0.6931  1.3502  0.3924
 8284TIP3    H246344   1.797   3.151   5.704  1.3843 -2.6034  0.2897
 8285TIP3   OH246345   5.028   2.298  13.212 -0.1834 -0.1061 -1.0031
 8285TIP3    H146346   5.083   2.229  13.250  0.2193  1.3306  1.1974
 8285TIP3    H246347   5.075   2.379  13.231 -2.5733  1.1080  0.1494
 8286TIP3   OH246348   3.626   6.424  14.083  0.2565 -0.4506  0.1783
 8286TIP3    H146349   3.680   6.364  14.032  0.2108 -0.7245  0.4514
 8286TIP3    H246350   3.568   6.366  14.134  0.7142 -0.1941  1.0045
 8287TIP3   OH246351   5.133   6.674  12.196 -0.3336 -0.0098 -0.1264
 8287TIP3    H146352   5.193   6.622  12.142 -1.5915 -1.7691  0.0816
 8287TIP3    H246353   5.190   6.728  12.250  1.0180 -0.4214 -1.0780
 8288TIP3   OH246354   2.107   1.818  16.588  0.2688 -0.2557 -0.7188
 8288TIP3    H146355   2.042   1.748  16.581 -1.3197  1.2092 -1.5673
 8288TIP3    H246356   2.056   1.894  16.615  2.2695  0.1734  2.1915
 8289TIP3   OH246357   0.743   4.608  11.956 -0.1473 -0.5337  0.2153
 8289TIP3    H146358   0.832   4.634  11.980  0.2788 -2.3886  0.8612
 8289TIP3    H246359   0.686   4.669  12.003  0.7679 -0.9522  1.9370
 8290TIP3   OH246360   4.073   5.732   1.571  0.0636 -0.2811 -1.1311
 8290TIP3    H146361   4.126   5.810   1.589 -0.0382 -0.6403  0.8838
 8290TIP3    H246362   4.102   5.703   1.484  1.3780  0.9638 -1.1427
 8291TIP3   OH246363   1.567   2.752  16.761 -0.4147 -0.8231 -0.6084
 8291TIP3    H146364   1.500   2.689  16.738  0.4506 -2.4213  0.9807
 8291TIP3    H246365   1.635   2.741  16.694 -0.4353 -1.3407 -0.5490
 8292TIP3   OH246366   0.007   2.707  17.021  0.3318  0.2101 -0.3970
 8292TIP3    H146367   0.027   2.755  17.101  1.2398  0.8935 -1.0050
 8292TIP3    H246368  -0.010   2.617  17.049 -1.2719  0.8430  0.7589
 8293TIP3   OH246369   4.377   0.571  16.712 -0.8369  0.7122  0.1643
 8293TIP3    H146370   4.412   0.626  16.642 -0.0102 -0.5942 -0.4769
 8293TIP3    H246371   4.430   0.592  16.788  0.4127 -0.1895 -0.4327
 8294TIP3   OH246372   1.629   6.757   5.613  0.6646 -0.4852 -0.3469
 8294TIP3    H146373   1.696   6.807   5.659 -1.2721  1.7948  0.1621
 8294TIP3    H246374   1.591   6.699   5.679 -0.6779  1.2671  0.4751
 8295TIP3   OH246375   2.982   5.415  12.757  0.0547 -0.0470  0.8925
 8295TIP3    H146376   2.890   5.422  12.782  0.0156  1.9475  0.3670
 8295TIP3    H246377   2.981   5.402  12.662  0.3134  0.0633  0.8724
 8296TIP3   OH246378   1.313   1.811   1.956  0.4532  0.0446 -0.3578
 8296TIP3    H146379   1.346   1.722   1.952  0.9301  0.1406  0.7679
 8296TIP3    H246380   1.362   1.851   2.029 -1.3754  0.5315  0.6801
 8297TIP3   OH246381   1.361   3.596  16.779  0.1443  0.1273  0.5480
 8297TIP3    H146382   1.410   3.540  16.839  1.6572 -2.2926 -2.6252
 8297TIP3    H246383   1.280   3.548  16.762  0.5309 -0.1506 -0.6279
 8298TIP3   OH246384   1.106   6.344   0.692 -0.4764  0.3509  0.1509
 8298TIP3    H146385   1.099   6.272   0.755  1.0736  0.8426  0.9553
 8298TIP3    H246386   1.029   6.335   0.636 -1.3848 -0.7032  1.4981
 8299TIP3   OH246387   2.484   1.300  15.379 -0.3511  0.0550 -0.0270
 8299TIP3    H146388   2.503   1.350  15.459  1.2795 -1.6109  0.6866
 8299TIP3    H246389   2.408   1.247  15.402  0.2856 -0.6283  0.5329
 8300TIP3   OH246390   6.443   2.384   0.863 -0.3560  0.0232 -0.0713
 8300TIP3    H146391   6.504   2.456   0.849 -1.3133  0.5133 -1.9910
 8300TIP3    H246392   6.492   2.305   0.839  0.1555  0.1959  0.3987
 8301TIP3   OH246393   3.677   1.153  12.265  0.0125  0.4025  0.0184
 8301TIP3    H146394   3.583   1.160  12.285  0.1781  1.3226  0.5063
 8301TIP3    H246395   3.682   1.169  12.171 -0.2769  0.8074  0.0678
 8302TIP3   OH246396   3.876   1.521  16.838 -0.8751  0.5360 -0.4974
 8302TIP3    H146397   3.903   1.563  16.919 -1.4974  1.0932 -0.5704
 8302TIP3    H246398   3.918   1.572  16.768  0.8406 -0.7976 -0.5125
 8303TIP3   OH246399   3.788   1.679   6.001  0.2204 -0.2146  0.0607
 8303TIP3    H146400   3.815   1.667   6.092 -0.1706  1.1972  0.3740
 8303TIP3    H246401   3.765   1.590   5.972 -0.7026 -0.5426  1.6693
 8304TIP3   OH246402   2.461   6.139   3.894  0.1484  0.4562  0.1745
 8304TIP3    H146403   2.420   6.072   3.949  0.3578 -0.2067 -0.4730
 8304TIP3    H246404   2.389   6.172   3.840  0.2044  0.2058 -0.0527
 8305TIP3   OH246405   2.739   6.343   1.923  0.0674 -0.1964  0.2766
 8305TIP3    H146406   2.828   6.314   1.902 -1.0157 -1.9518 -2.5494
 8305TIP3    H246407   2.687   6.318   1.846 -2.6380  2.0070  1.2202
 8306TIP3   OH246408   1.415   1.095   0.376 -0.7629 -0.2306  0.0599
 8306TIP3    H146409   1.432   1.057   0.462 -0.1676  0.4609  0.2597
 8306TIP3    H246410   1.330   1.059   0.350 -1.3033  0.1410  1.2667
 8307TIP3   OH246411   2.278   5.546   5.638  0.3459  0.3525 -0.0171
 8307TIP3    H146412   2.332   5.467   5.641 -0.9641 -0.9345 -4.1661
 8307TIP3    H246413   2.339   5.615   5.611  0.9682  0.2339  1.0149
 8308TIP3   OH246414   3.536   0.006   4.683  0.8572 -0.2139  0.1098
 8308TIP3    H146415   3.545  -0.055   4.610  1.3320 -1.1242  0.9045
 8308TIP3    H246416   3.596   0.078   4.661  1.9606 -1.0858  0.2007
 8309TIP3   OH246417   5.045   1.816   5.298 -0.1773  0.3105 -0.7586
 8309TIP3    H146418   4.978   1.749   5.286 -1.7118  1.7625 -0.5687
 8309TIP3    H246419   5.059   1.821   5.393  0.4593 -0.1920 -0.8123
 8310TIP3   OH246420   2.830   5.560   3.601  0.3422 -0.0697 -0.1186
 8310TIP3    H146421   2.920   5.536   3.582  0.1864 -0.0806 -0.8792
 8310TIP3    H246422   2.836   5.645   3.646  0.8626 -1.1653  2.0308
 8311TIP3   OH246423   6.705   1.910  12.628 -0.2974  0.5061 -0.0216
 8311TIP3    H146424   6.788   1.875  12.662 -0.5386  0.2984  0.3639
 8311TIP3    H246425   6.718   2.005  12.627  0.4694  0.4116 -1.3516
 8312TIP3   OH246426   5.180   6.237   3.369 -0.1386 -0.3599  0.1222
 8312TIP3    H146427   5.101   6.264   3.416  0.2150  1.0453 -0.0635
 8312TIP3    H246428   5.148   6.202   3.286 -0.5766 -0.1211  0.1903
 8313TIP3   OH246429   2.294   2.311  13.684  0.2508 -0.4141  0.0253
 8313TIP3    H146430   2.209   2.277  13.655 -0.5917  0.6453  1.1212
 8313TIP3    H246431   2.272   2.378  13.749  1.9628 -1.3010  1.6122
 8314TIP3   OH246432   4.181   2.677   5.195  0.0015  0.3833 -0.1994
 8314TIP3    H146433   4.181   2.589   5.232 -0.5381  1.1799  1.8262
 8314TIP3    H246434   4.273   2.694   5.173  0.2753 -0.2643  0.4206
 8315TIP3   OH246435   1.148   1.971   2.151 -0.4825  0.4687  0.0081
 8315TIP3    H146436   1.202   1.952   2.074  1.1909 -1.7063  1.5989
 8315TIP3    H246437   1.070   1.916   2.140 -1.1860  1.6039 -0.9890
 8316TIP3   OH246438   1.670   4.250  14.696 -0.1077 -0.1351 -0.1995
 8316TIP3    H146439   1.719   4.197  14.759  0.6388  1.9059  1.0316
 8316TIP3    H246440   1.613   4.187  14.652  0.3988 -1.8885  1.4765
 8317TIP3   OH246441   5.652   3.633  12.467 -0.0454  0.5379  0.3459
 8317TIP3    H146442   5.628   3.724  12.483 -2.1439 -0.0925  1.1356
 8317TIP3    H246443   5.722   3.615  12.530  0.0672  1.4764  0.4966
 8318TIP3   OH246444   5.127   5.037   4.133 -0.5024 -0.2456 -0.0097
 8318TIP3    H146445   5.138   5.072   4.044  0.0918  0.2395  0.2509
 8318TIP3    H246446   5.086   5.108   4.182 -0.2553 -0.2880  0.2607
 8319TIP3   OH246447   1.797   6.749  12.640  0.2383 -0.2041 -0.1781
 8319TIP3    H146448   1.810   6.834  12.682 -0.3223 -0.5796  0.7933
 8319TIP3    H246449   1.742   6.768  12.564  0.3348  0.3339 -0.1188
 8320TIP3   OH246450   2.305   1.842   3.187 -0.8033  0.0242  0.0565
 8320TIP3    H146451   2.264   1.776   3.131  0.7113 -0.9179  0.0018
 8320TIP3    H246452   2.252   1.841   3.267 -0.7227 -1.3924  0.1174
 8321TIP3   OH246453   2.557   3.713  12.499 -0.0971 -0.3881 -0.1113
 8321TIP3    H146454   2.509   3.789  12.532  0.3651 -0.2677  0.2982
 8321TIP3    H246455   2.491   3.660  12.455 -0.3007  0.6178 -1.0650
 8322TIP3   OH246456   2.159   1.055  16.317 -0.0345  0.0119 -0.0041
 8322TIP3    H146457   2.213   1.132  16.334 -1.3631  0.9570  0.0460
 8322TIP3    H246458   2.089   1.086  16.260 -0.0814 -1.3772 -0.7574
 8323TIP3   OH246459   2.821   6.131  11.647  0.6188  1.0253 -0.3204
 8323TIP3    H146460   2.742   6.078  11.658  1.4848 -0.0069  1.3966
 8323TIP3    H246461   2.860   6.099  11.565  0.0162  0.5260 -0.4235
 8324TIP3   OH246462   6.110   6.788  14.654 -0.0090  0.8163 -0.1004
 8324TIP3    H146463   6.084   6.818  14.566 -1.0108 -1.3804 -0.6037
 8324TIP3    H246464   6.121   6.869  14.704 -0.7051  2.0826 -1.8911
 8325TIP3   OH246465   3.206   6.237   4.949 -0.6007  0.2195 -0.0107
 8325TIP3    H146466   3.238   6.200   4.867 -2.8457 -0.7563 -0.5441
 8325TIP3    H246467   3.275   6.219   5.012  0.7983  0.1979 -1.4726
 8326TIP3   OH246468   4.678   2.326   3.313  0.0298 -0.0916 -0.5402
 8326TIP3    H146469   4.616   2.311   3.241 -0.3544  0.8801 -0.4317
 8326TIP3    H246470   4.662   2.255   3.374  0.8285 -1.3222 -1.7170
 8327TIP3   OH246471   0.038   6.349  16.204 -0.2207 -0.1600  0.0041
 8327TIP3    H146472   0.072   6.436  16.225 -0.7797 -0.2922  1.5990
 8327TIP3    H246473   0.088   6.290  16.260 -1.4600 -0.5947  0.6855
 8328TIP3   OH246474   0.422   5.985  16.495 -0.1840  0.1613 -0.4284
 8328TIP3    H146475   0.410   5.900  16.454 -2.9280  0.8491 -1.2318
 8328TIP3    H246476   0.345   5.997  16.551  1.3650  1.0843  1.6801
 8329TIP3   OH246477   2.061   2.937  15.422 -0.1540  0.1367 -0.0371
 8329TIP3    H146478   2.115   2.990  15.363 -0.6085  1.0582  0.3487
 8329TIP3    H246479   2.036   2.998  15.491 -0.2462 -0.7392  0.7129
 8330TIP3   OH246480   5.833   5.188   1.921  0.1624  0.2472 -1.0845
 8330TIP3    H146481   5.740   5.178   1.943  0.5973  3.4862  3.9910
 8330TIP3    H246482   5.876   5.117   1.968  0.4071  0.5850 -0.7917
 8331TIP3   OH246483   2.054   4.401   4.278  0.3149 -0.4275 -0.0002
 8331TIP3    H146484   2.072   4.308   4.289 -0.4034 -0.4966  0.6984
 8331TIP3    H246485   2.139   4.441   4.262  1.1593 -0.7370  3.0159
 8332TIP3   OH246486   4.149   6.173   1.194  0.2456 -0.4107 -0.2376
 8332TIP3    H146487   4.153   6.105   1.262 -2.8769 -0.7806 -0.2616
 8332TIP3    H246488   4.212   6.239   1.222 -1.0086 -0.4517  3.1860
 8333TIP3   OH246489   3.434   2.308  16.901 -0.3307  0.4918  0.6490
 8333TIP3    H146490   3.359   2.357  16.934  0.4957  0.8175  2.1432
 8333TIP3    H246491   3.396   2.231  16.860 -1.5339  1.2447  0.2976
 8334TIP3   OH246492   2.708   4.802  13.409  0.0847 -0.7065  0.3644
 8334TIP3    H146493   2.649   4.820  13.335 -1.0297  0.9357  1.5836
 8334TIP3    H246494   2.796   4.809  13.373 -0.4418 -0.0712 -0.8325
 8335TIP3   OH246495   2.159   2.472  11.643  0.6199  0.0300  0.2978
 8335TIP3    H146496   2.136   2.564  11.652  2.3046  0.5492 -0.4432
 8335TIP3    H246497   2.252   2.467  11.666  0.7659 -1.3316 -0.4411
 8336TIP3   OH246498   4.954   2.948  12.807 -0.2046  0.3400  0.2703
 8336TIP3    H146499   4.901   2.910  12.737  0.4507  0.9748 -0.5974
 8336TIP3    H246500   5.034   2.897  12.807  0.0663  0.7537  0.0946
 8337TIP3   OH246501   2.978   6.446   5.262 -0.4188 -0.2067 -0.6962
 8337TIP3    H146502   2.995   6.512   5.328  0.4831 -0.5992 -0.5201
 8337TIP3    H246503   2.883   6.450   5.247 -0.7971 -0.7647  1.3097
 8338TIP3   OH246504   2.518   0.267  13.588  0.3309 -0.6989  0.0498
 8338TIP3    H146505   2.610   0.243  13.579  0.1588 -1.5192  0.3855
 8338TIP3    H246506   2.489   0.221  13.667 -0.3593 -0.4317 -0.0411
 8339TIP3   OH246507   4.446   3.306   3.736  0.0478 -0.0579 -0.1442
 8339TIP3    H146508   4.440   3.280   3.828  0.4384  1.4811  0.3502
 8339TIP3    H246509   4.472   3.227   3.690  3.0206 -0.1755  1.5126
 8340TIP3   OH246510   5.744   2.847  11.074  0.0135 -0.2525  0.4034
 8340TIP3    H146511   5.692   2.927  11.072 -0.6332 -0.6734 -1.5200
 8340TIP3    H246512   5.786   2.843  10.988  1.6663 -0.9592  1.2010
 8341TIP3   OH246513   6.654   1.606   0.281 -0.3859 -0.1215 -0.0371
 8341TIP3    H146514   6.684   1.645   0.199 -0.2264 -0.5955 -0.2048
 8341TIP3    H246515   6.564   1.637   0.290 -1.0408 -1.5198 -1.3316
 8342TIP3   OH246516   2.943   3.760   5.979 -0.7271  0.6664  0.2924
 8342TIP3    H146517   2.914   3.728   6.065 -2.6028 -1.1333 -0.9208
 8342TIP3    H246518   3.007   3.828   5.999 -0.1043 -0.6183  3.1018
 8343TIP3   OH246519   1.475   0.925   6.217  0.0259  0.0646 -0.3520
 8343TIP3    H146520   1.447   0.998   6.273 -0.4556  0.5669 -1.2236
 8343TIP3    H246521   1.435   0.848   6.256  3.5815 -0.4585  2.9039
 8344TIP3   OH246522   0.419   5.241  11.198 -0.4915 -0.3749 -0.2099
 8344TIP3    H146523   0.504   5.282  11.215 -1.1082  1.0712 -0.5189
 8344TIP3    H246524   0.366   5.263  11.274 -1.8001  2.1664 -1.7226
 8345TIP3   OH246525   4.855   4.416   3.538  0.0946 -0.2648  0.2218
 8345TIP3    H146526   4.804   4.364   3.601 -0.7092 -0.7227 -0.7753
 8345TIP3    H246527   4.858   4.362   3.459  1.3950  0.1436 -0.0319
 8346TIP3   OH246528   0.141   3.163  16.703  0.6151 -0.0719  0.2728
 8346TIP3    H146529   0.211   3.171  16.767  0.0830 -0.8071  0.9582
 8346TIP3    H246530   0.060   3.164  16.754  0.1322  0.2967 -0.4687
 8347TIP3   OH246531   3.299   1.428   6.007  0.2355  0.2458 -0.1482
 8347TIP3    H146532   3.327   1.488   6.076  1.3558  1.3091 -1.4604
 8347TIP3    H246533   3.229   1.474   5.961  1.5456  0.9268 -1.5772
 8348TIP3   OH246534   6.460   5.824  17.027  0.3059  0.3051  0.0384
 8348TIP3    H146535   6.525   5.754  17.034 -0.7584 -0.6966  0.2743
 8348TIP3    H246536   6.502   5.900  17.067  1.2505 -0.3600  0.3592
 8349TIP3   OH246537   4.408   3.476  16.260  0.4211  0.4073  0.2576
 8349TIP3    H146538   4.437   3.483  16.351  0.2428 -0.1014  0.3606
 8349TIP3    H246539   4.376   3.386  16.253 -2.1331  1.2173  0.4528
 8350TIP3   OH246540   0.612   1.678   0.450 -0.1747 -0.0756  0.1902
 8350TIP3    H146541   0.643   1.765   0.424 -0.9232  0.0344 -0.3873
 8350TIP3    H246542   0.598   1.633   0.366  0.9633 -1.0275  0.5013
 8351TIP3   OH246543   3.326   0.647   5.095  0.3200  0.3298  0.2657
 8351TIP3    H146544   3.309   0.720   5.035 -1.7809 -0.6308 -0.4168
 8351TIP3    H246545   3.319   0.686   5.182  1.5522  1.3809 -0.0748
 8352TIP3   OH246546   1.591   2.089   0.808  0.0527 -0.3032  0.2981
 8352TIP3    H146547   1.576   2.027   0.879  1.2342 -0.2155  0.6583
 8352TIP3    H246548   1.505   2.124   0.788 -0.3533 -0.5775  1.4652
 8353TIP3   OH246549   0.594   4.682  10.767 -0.2722  0.1077 -0.2325
 8353TIP3    H146550   0.677   4.726  10.747  0.0185 -0.9896 -1.5439
 8353TIP3    H246551   0.589   4.684  10.862  0.3734  1.7803 -0.1886
 8354TIP3   OH246552   2.360   6.816  15.959 -0.3724  0.7652 -0.1109
 8354TIP3    H146553   2.287   6.857  15.911 -1.0089 -0.6904 -0.4300
 8354TIP3    H246554   2.319   6.751  16.015  0.6231  0.5533  0.3945
 8355TIP3   OH246555   6.429   1.825  14.356  0.2978  0.3680  0.1241
 8355TIP3    H146556   6.401   1.906  14.314  1.7890  0.5844 -0.5159
 8355TIP3    H246557   6.522   1.818  14.335  0.5219 -0.7878  1.3634
 8356TIP3   OH246558   4.247   3.257   0.663 -0.3563  0.7579 -0.0530
 8356TIP3    H146559   4.236   3.163   0.651 -2.5475  1.0311 -0.5486
 8356TIP3    H246560   4.159   3.290   0.679  0.2860  2.8056 -0.4196
 8357TIP3   OH246561   2.741   2.728  13.750 -0.0279 -0.1303 -0.6343
 8357TIP3    H146562   2.694   2.812  13.743 -0.1305 -0.2855 -1.9258
 8357TIP3    H246563   2.672   2.664  13.769  0.0488  0.0582  0.3413
 8358TIP3   OH246564   2.858   3.811  12.727  0.4872 -0.3910 -0.1375
 8358TIP3    H146565   2.819   3.894  12.702 -0.6898 -1.6163 -2.7348
 8358TIP3    H246566   2.789   3.746  12.715  1.0128 -1.6745  2.9294
 8359TIP3   OH246567   3.819   5.210  17.063 -0.1973 -0.1903  1.2007
 8359TIP3    H146568   3.784   5.268  17.131 -1.5944  0.0552  0.3348
 8359TIP3    H246569   3.741   5.174  17.021  0.6195 -0.4214 -0.1843
 8360TIP3   OH246570   6.177   5.082   4.689 -0.1593  0.2710 -0.1278
 8360TIP3    H146571   6.150   5.044   4.773 -0.8223  1.2248  0.1165
 8360TIP3    H246572   6.214   5.167   4.713 -1.9614  1.3315 -0.9177
 8361TIP3   OH246573   6.674   1.739   5.125 -0.2732  0.8007  0.0547
 8361TIP3    H146574   6.629   1.783   5.198 -0.1192  0.5956  0.2769
 8361TIP3    H246575   6.738   1.682   5.168  0.1373  1.0261 -0.2536
 8362TIP3   OH246576   6.182   2.597  17.007  0.3586 -0.1727 -0.0239
 8362TIP3    H146577   6.212   2.528  17.066  2.1571 -0.7554 -1.5448
 8362TIP3    H246578   6.153   2.551  16.928  1.2476  0.7590 -0.9266
 8363TIP3   OH246579   3.816   1.572  15.012 -0.3800 -0.2908 -0.4326
 8363TIP3    H146580   3.806   1.659  14.974 -2.6782 -0.2822  0.0495
 8363TIP3    H246581   3.899   1.575  15.059 -0.9799  2.0369  0.5800
 8364TIP3   OH246582   2.952   5.566  13.098  0.1324  0.0148  0.1543
 8364TIP3    H146583   2.937   5.480  13.058 -0.8149  0.0680  0.3513
 8364TIP3    H246584   3.046   5.581  13.090  0.5875 -1.7319  1.4737
 8365TIP3   OH246585   0.324   3.338   4.247  0.1112  0.0785 -0.1808
 8365TIP3    H146586   0.410   3.308   4.217  1.2558  0.5010  2.4533
 8365TIP3    H246587   0.338   3.368   4.336 -2.7119  0.6166  0.1873
 8366TIP3   OH246588   0.538   4.243   3.022  0.5515  0.7709  0.3571
 8366TIP3    H146589   0.480   4.214   2.952  0.3724  0.8991  0.4530
 8366TIP3    H246590   0.619   4.268   2.976  0.4787  0.7388  0.2088
 8367TIP3   OH246591   4.373   0.519   2.435  0.2765  0.0281  0.7500
 8367TIP3    H146592   4.386   0.610   2.462  0.0273  0.6752 -1.1480
 8367TIP3    H246593   4.462   0.484   2.427  0.4849  0.7866 -0.5675
 8368TIP3   OH246594   6.008   1.731   5.216 -0.0163 -0.1544 -0.3094
 8368TIP3    H146595   5.973   1.762   5.132 -0.4844  1.7717  0.5363
 8368TIP3    H246596   6.089   1.782   5.228 -0.4507  0.2927  0.8223
 8369TIP3   OH246597   6.623   6.285  13.298  0.0674  0.0159 -0.4096
 8369TIP3    H146598   6.557   6.230  13.341  0.8479 -1.2453 -0.7537
 8369TIP3    H246599   6.573   6.357  13.259 -1.0283 -0.6015 -0.1852
 8370TIP3   OH246600   6.551   5.868   0.853  0.8511  0.6732  0.0202
 8370TIP3    H146601   6.554   5.908   0.940 -1.8744  0.4373  0.3395
 8370TIP3    H246602   6.618   5.799   0.855  1.0747  0.9027  1.8139
 8371TIP3   OH246603   3.224   6.689   2.990 -0.1577 -0.7957 -0.5967
 8371TIP3    H146604   3.130   6.674   2.999  0.0560 -1.1215  1.6966
 8371TIP3    H246605   3.259   6.603   2.965 -0.3361 -1.0375 -0.0433
 8372TIP3   OH246606   6.342   3.548  15.474  0.4870 -0.1028  0.1714
 8372TIP3    H146607   6.271   3.517  15.417  1.7944  0.9395 -2.1778
 8372TIP3    H246608   6.318   3.518  15.562 -1.6345 -1.8272 -0.9143
 8373TIP3   OH246609   3.436   1.788  12.246 -0.1188 -0.1123 -0.3093
 8373TIP3    H146610   3.344   1.767  12.262 -0.2716 -1.4803 -2.5475
 8373TIP3    H246611   3.481   1.703  12.247  0.8523  0.3724 -0.7545
 8374TIP3   OH246612   1.213   0.131   1.686 -0.0347 -0.7329 -0.6430
 8374TIP3    H146613   1.215   0.094   1.775  2.2910  0.3894 -0.1547
 8374TIP3    H246614   1.123   0.118   1.657 -0.4684 -2.5422  1.2665
 8375TIP3   OH246615   1.719   3.663  13.423  0.4708 -0.0715  0.5183
 8375TIP3    H146616   1.650   3.726  13.444  0.9392  0.1267  1.5377
 8375TIP3    H246617   1.680   3.577  13.439  0.0760 -0.0137 -0.1170
 8376TIP3   OH246618   2.144   0.366  13.091 -0.4228 -0.4135 -0.1508
 8376TIP3    H146619   2.059   0.388  13.127 -0.9046 -0.3432 -1.2796
 8376TIP3    H246620   2.154   0.425  13.016  0.2215 -1.0249 -0.5533
 8377TIP3   OH246621   2.475   4.180   3.466  0.1875 -0.2068 -0.0256
 8377TIP3    H146622   2.503   4.271   3.451 -1.0001 -0.0835 -1.8756
 8377TIP3    H246623   2.393   4.172   3.417  0.5167 -2.4164 -0.3241
 8378TIP3   OH246624   5.992   0.671  14.000 -0.2617  0.0046  0.1820
 8378TIP3    H146625   5.998   0.758  13.959  0.6229  0.3256  0.9500
 8378TIP3    H246626   5.926   0.682  14.069  0.8549  0.4664  1.1970
 8379TIP3   OH246627   0.659   2.395  11.609 -0.0262  0.3136  0.4276
 8379TIP3    H146628   0.744   2.352  11.605 -0.0878  0.2393 -0.1474
 8379TIP3    H246629   0.597   2.325  11.627  0.0538  0.3990  1.0628
 8380TIP3   OH246630   0.933   4.704   6.758  0.2183 -0.0977 -0.3618
 8380TIP3    H146631   0.980   4.765   6.701  1.6595 -2.0970 -1.4335
 8380TIP3    H246632   0.877   4.655   6.698  0.9470 -1.4935  0.0676
 8381TIP3   OH246633   0.049   0.524   1.074  0.2057  0.2575 -0.6683
 8381TIP3    H146634   0.079   0.482   1.154  1.5286 -2.7213 -2.5716
 8381TIP3    H246635   0.122   0.580   1.047 -0.1536  1.0877  0.0064
 8382TIP3   OH246636   5.523   6.124  15.952 -0.1305 -0.1562  0.1312
 8382TIP3    H146637   5.452   6.126  15.889 -1.2736  1.1431  1.3712
 8382TIP3    H246638   5.567   6.209  15.941 -0.9393  0.5170  1.6395
 8383TIP3   OH246639   2.821   4.690  14.805  0.1055  0.0098 -0.0990
 8383TIP3    H146640   2.762   4.630  14.852  1.7337 -0.8633  0.9241
 8383TIP3    H246641   2.787   4.691  14.716  0.0826 -2.5935 -0.1961
 8384TIP3   OH246642   2.322   6.414  12.687  0.0178 -0.1408 -0.3677
 8384TIP3    H146643   2.242   6.419  12.635  0.4746 -0.9419 -1.1776
 8384TIP3    H246644   2.335   6.503  12.719 -2.6479 -0.4823  2.0427
 8385TIP3   OH246645   0.997   4.410  15.846  0.2443  0.0275 -0.3228
 8385TIP3    H146646   0.981   4.497  15.882  0.9140 -0.5811  1.6086
 8385TIP3    H246647   1.089   4.411  15.820 -0.1160  0.3143 -1.6260
 8386TIP3   OH246648   2.219   2.968  14.489  0.2402 -0.3689 -0.1997
 8386TIP3    H146649   2.168   3.021  14.428  1.8034  0.2950 -0.9796
 8386TIP3    H246650   2.310   2.984  14.465  0.8331 -1.6756  1.0132
 8387TIP3   OH246651   0.253   2.045  12.529  0.2524 -0.0426  0.0781
 8387TIP3    H146652   0.337   2.022  12.568 -0.7000 -1.2561  1.5272
 8387TIP3    H246653   0.221   2.118  12.582  1.6457  2.5027 -2.3134
 8388TIP3   OH246654   0.422   3.054  14.934 -0.2955  0.8023  0.7243
 8388TIP3    H146655   0.451   2.969  14.901 -0.8371  0.6679  0.5942
 8388TIP3    H246656   0.383   3.034  15.019 -1.4763  0.7480  0.1891
 8389TIP3   OH246657   1.910   4.424  11.683  0.3057 -0.3903  0.5187
 8389TIP3    H146658   1.941   4.342  11.720 -1.0069 -0.2428  2.0683
 8389TIP3    H246659   1.936   4.491  11.746  0.5168  0.2744 -0.2471
 8390TIP3   OH246660   6.326   5.402  15.868 -0.2608  0.2378  0.1822
 8390TIP3    H146661   6.309   5.375  15.778  0.2563  0.9051 -0.1271
 8390TIP3    H246662   6.409   5.360  15.891 -0.5458 -0.1880  0.4711
 8391TIP3   OH246663   3.668   1.380  13.095  0.2762  0.3656  0.4060
 8391TIP3    H146664   3.656   1.335  13.179 -1.3176 -0.6714 -0.3262
 8391TIP3    H246665   3.611   1.333  13.034  2.3092  0.3184 -1.5807
 8392TIP3   OH246666   0.274   3.914   5.642 -0.4112  0.3503  0.1870
 8392TIP3    H146667   0.277   3.960   5.726 -0.3056  1.1563 -0.2427
 8392TIP3    H246668   0.366   3.903   5.618 -0.4051 -0.8758  0.6862
 8393TIP3   OH246669   5.938   6.627  14.287  0.3086  0.4211  0.4220
 8393TIP3    H146670   5.986   6.706  14.310  0.3989  1.1681 -2.0505
 8393TIP3    H246671   5.849   6.657  14.270  0.4218  0.0949 -0.8537
 8394TIP3   OH246672   1.011   6.191   1.806 -0.2911 -0.4308 -0.2545
 8394TIP3    H146673   0.992   6.275   1.847  1.3517 -0.6601  1.0830
 8394TIP3    H246674   1.106   6.192   1.793 -0.4216 -1.5474 -1.4466
 8395TIP3   OH246675   2.092   0.093  14.603  0.0259 -0.3989 -0.9398
 8395TIP3    H146676   2.166   0.146  14.572  0.4167 -0.0355  0.5410
 8395TIP3    H246677   2.020   0.118  14.546  0.9420 -0.4911 -2.1842
 8396TIP3   OH246678   4.643   3.174  14.607  0.0001 -0.3308  0.1420
 8396TIP3    H146679   4.597   3.093  14.585 -0.3561 -0.2892  0.6998
 8396TIP3    H246680   4.736   3.151  14.604 -0.1040 -1.3426  2.3280
 8397TIP3   OH246681   4.178   1.142  11.987  0.0298  0.1601  0.4918
 8397TIP3    H146682   4.114   1.164  12.055  1.0736  0.5704  1.3787
 8397TIP3    H246683   4.263   1.158  12.029  0.6975  1.5493 -1.2999
 8398TIP3   OH246684   4.214   2.297   0.441 -0.3960 -0.6298  0.4669
 8398TIP3    H146685   4.296   2.340   0.465  0.7154  0.4292 -4.1486
 8398TIP3    H246686   4.146   2.361   0.462  0.2342 -0.3760  1.8187
 8399TIP3   OH246687   6.817   2.780  13.724  0.5015 -0.4767  0.0147
 8399TIP3    H146688   6.758   2.739  13.788  0.9822  0.7185  1.2815
 8399TIP3    H246689   6.859   2.851  13.773  0.0906  1.2007 -1.9416
 8400TIP3   OH246690   3.417   2.184   0.369 -0.0679  0.8194  0.1694
 8400TIP3    H146691   3.339   2.136   0.398  0.0271  0.7950  0.3843
 8400TIP3    H246692   3.415   2.265   0.419  0.9294  0.1195  1.4024
 8401TIP3   OH246693   3.738   4.089   4.225 -0.2288 -0.1206 -0.0365
 8401TIP3    H146694   3.696   4.139   4.295 -0.4939  2.0496 -1.6094
 8401TIP3    H246695   3.685   4.109   4.147  2.4156  0.9892 -1.6838
 8402TIP3   OH246696   2.636   5.515   4.528  0.2069 -0.2779  0.4382
 8402TIP3    H146697   2.660   5.425   4.508 -1.0737 -0.2437 -1.4574
 8402TIP3    H246698   2.573   5.508   4.600 -0.2775 -0.9412 -0.0427
 8403TIP3   OH246699   6.471   2.461   0.188  0.3234 -0.1275 -0.2374
 8403TIP3    H146700   6.383   2.436   0.160 -0.3761  2.1686 -0.2338
 8403TIP3    H246701   6.529   2.405   0.135 -1.0875 -0.3716 -1.6137
 8404TIP3   OH246702   3.991   1.905  17.062 -0.1713 -0.6262  0.5180
 8404TIP3    H146703   4.031   1.819  17.049  2.7930  0.5621  0.9539
 8404TIP3    H246704   3.947   1.923  16.979  0.9714 -1.7009 -0.3650
 8405TIP3   OH246705   6.416   6.592   2.604  0.2367 -0.2783  0.1215
 8405TIP3    H146706   6.490   6.535   2.582 -0.2680 -0.3407 -1.5434
 8405TIP3    H246707   6.357   6.535   2.654  1.6382 -0.0000  2.1927
 8406TIP3   OH246708   4.508   4.970  12.606  0.4149  0.5185 -0.4077
 8406TIP3    H146709   4.582   4.910  12.604  1.9002  2.2342  0.1429
 8406TIP3    H246710   4.473   4.970  12.517  1.2008 -0.1724 -0.7182
 8407TIP3   OH246711   6.697   5.312   1.824 -0.5278 -0.1081 -0.7660
 8407TIP3    H146712   6.708   5.402   1.794  1.0056  0.4339  1.2515
 8407TIP3    H246713   6.639   5.319   1.900  0.1448 -0.7160 -0.1772
 8408TIP3   OH246714   5.790   3.505   4.984 -0.2878 -0.3036  0.0004
 8408TIP3    H146715   5.878   3.527   4.954 -0.0567 -3.6492 -2.4000
 8408TIP3    H246716   5.735   3.577   4.952  1.1432  0.1914 -1.4761
 8409TIP3   OH246717   1.245   4.262   1.744 -0.1517  0.2510  0.5974
 8409TIP3    H146718   1.276   4.327   1.807  1.0753  0.1769  0.0923
 8409TIP3    H246719   1.161   4.297   1.713  0.6836  1.8545  0.0047
 8410TIP3   OH246720   4.850   6.160   0.062 -0.0892 -0.0741  0.0797
 8410TIP3    H146721   4.862   6.083   0.119 -0.6427  0.2626  0.6562
 8410TIP3    H246722   4.805   6.224   0.117  0.7802  0.8447 -0.2472
 8411TIP3   OH246723   1.611   1.702  15.147  0.1382 -0.1620  0.3262
 8411TIP3    H146724   1.575   1.682  15.234  0.6444 -0.5043  0.4588
 8411TIP3    H246725   1.539   1.684  15.087 -0.4829  0.8509  0.7377
 8412TIP3   OH246726   5.831   4.153  11.732  0.2427  0.5097 -0.0812
 8412TIP3    H146727   5.916   4.137  11.691  0.2379  0.1781  0.0356
 8412TIP3    H246728   5.777   4.189  11.661  0.1182 -0.4265 -0.4818
 8413TIP3   OH246729   1.922   3.613  11.894 -0.0804 -0.3935  0.2882
 8413TIP3    H146730   2.001   3.655  11.861 -1.1014  0.1050 -1.7395
 8413TIP3    H246731   1.948   3.571  11.975  1.3053  3.1916  1.9120
 8414TIP3   OH246732   2.482   5.280   4.389 -0.2013  0.0027  0.1803
 8414TIP3    H146733   2.419   5.309   4.454  0.9280  0.2329  1.1987
 8414TIP3    H246734   2.429   5.232   4.324 -1.2239 -1.1107  1.7664
 8415TIP3   OH246735   1.336   0.036   1.459 -0.0908  0.7775  0.1050
 8415TIP3    H146736   1.346  -0.052   1.496  1.3706  1.0210  0.3717
 8415TIP3    H246737   1.281   0.082   1.521 -1.8270 -0.2412 -0.6021
 8416TIP3   OH246738   2.561   5.296   1.230 -0.6891 -0.4107  0.2322
 8416TIP3    H146739   2.599   5.226   1.176 -0.5285  0.3700 -0.7032
 8416TIP3    H246740   2.477   5.315   1.189  0.0548  1.1863 -0.6869
 8417TIP3   OH246741   2.595   1.902   5.347 -0.4149  0.0242 -0.1799
 8417TIP3    H146742   2.550   1.836   5.294 -1.1712  0.2366  0.1892
 8417TIP3    H246743   2.612   1.858   5.430  0.3346 -0.1504 -0.4177
 8418TIP3   OH246744   6.527   6.600   5.181  0.0951  0.1110  0.2059
 8418TIP3    H146745   6.567   6.540   5.243 -1.0668 -1.1636 -0.2209
 8418TIP3    H246746   6.445   6.628   5.223  0.8949  1.9065  0.6570
 8419TIP3   OH246747   5.069   2.612  11.069 -0.3550 -0.5908 -0.0676
 8419TIP3    H146748   5.078   2.701  11.035  0.1579 -0.8950 -0.7379
 8419TIP3    H246749   5.059   2.557  10.991 -0.4470 -1.1479  0.3313
 8420TIP3   OH246750   0.365   4.267  16.240  0.1313  0.0639  0.2395
 8420TIP3    H146751   0.384   4.360  16.224  2.1484 -0.3008  0.2332
 8420TIP3    H246752   0.421   4.221  16.178 -1.3093 -1.1888 -0.1851
 8421TIP3   OH246753   5.288   2.870   0.616 -0.0466 -0.2690  0.2500
 8421TIP3    H146754   5.300   2.957   0.577  0.8867 -1.2385 -1.8284
 8421TIP3    H246755   5.194   2.857   0.617 -0.1439  0.2082 -0.8501
 8422TIP3   OH246756   1.256   1.234  13.860  0.5041  0.3834 -0.5458
 8422TIP3    H146757   1.348   1.255  13.880  1.2485 -2.6770 -0.3063
 8422TIP3    H246758   1.259   1.194  13.773 -0.7200  0.7249 -0.7661
 8423TIP3   OH246759   6.367   1.071   3.969  0.4708  0.2929  0.3967
 8423TIP3    H146760   6.360   1.157   3.928 -0.1307  0.2815  0.4666
 8423TIP3    H246761   6.282   1.057   4.011  1.0270  0.2357  1.5304
 8424TIP3   OH246762   5.122   5.830   1.779  0.0426  0.1376 -0.0275
 8424TIP3    H146763   5.058   5.901   1.785 -0.7982 -0.3644 -2.0074
 8424TIP3    H246764   5.163   5.826   1.865 -0.7871  2.1706  0.5080
 8425TIP3   OH246765   5.987   4.857   3.094  0.4715 -0.2313 -0.3861
 8425TIP3    H146766   6.055   4.798   3.062  0.3017 -0.8879  0.4180
 8425TIP3    H246767   6.028   4.943   3.095  1.3623 -0.6465  0.2775
 8426TIP3   OH246768   5.342   4.656  16.130 -0.0372 -0.3678 -0.5207
 8426TIP3    H146769   5.284   4.581  16.141  0.7905 -0.9769 -0.2052
 8426TIP3    H246770   5.306   4.724  16.187 -1.5880 -0.0261 -1.8380
 8427TIP3   OH246771   3.626   4.102   3.685 -0.1771  0.0708  0.0576
 8427TIP3    H146772   3.655   4.011   3.685  0.5880  0.3027  0.7366
 8427TIP3    H246773   3.685   4.146   3.624  0.3229  0.3635  0.7401
 8428TIP3   OH246774   3.679   4.586   4.455  0.1410 -0.1657 -0.4260
 8428TIP3    H146775   3.743   4.646   4.492 -0.4250 -0.7237  1.5953
 8428TIP3    H246776   3.729   4.532   4.393  2.1155 -1.7590  2.3591
 8429TIP3   OH246777   1.038   0.869   0.689 -0.3692  0.2399  0.4004
 8429TIP3    H146778   1.063   0.954   0.654  1.7928 -0.7941 -0.7438
 8429TIP3    H246779   0.945   0.879   0.712 -0.2373  2.7958  0.0910
 8430TIP3   OH246780   6.050   4.638  16.601 -0.0487 -0.2949  0.1144
 8430TIP3    H146781   6.085   4.626  16.689  1.6869  0.4178 -0.4493
 8430TIP3    H246782   5.972   4.692  16.613  0.5051  0.2839  1.1521
 8431TIP3   OH246783   3.677   4.042  13.987 -0.2489  0.4843 -0.3305
 8431TIP3    H146784   3.738   4.108  14.020  0.1574 -0.1891  0.3108
 8431TIP3    H246785   3.623   4.088  13.923  0.0921  1.4095  0.0341
 8432TIP3   OH246786   5.651   2.127   3.983 -0.1181  0.0682  0.2525
 8432TIP3    H146787   5.714   2.147   4.052 -1.6177 -1.2465  2.0942
 8432TIP3    H246788   5.583   2.193   3.993 -0.6135 -0.4640  0.3877
 8433TIP3   OH246789   5.758   3.401   6.764 -0.1026 -0.1598 -0.6093
 8433TIP3    H146790   5.845   3.392   6.803 -1.1533 -0.3410  1.8608
 8433TIP3    H246791   5.721   3.313   6.768 -0.5387 -0.0139 -1.3233
 8434TIP3   OH246792   3.829   4.034  15.782 -0.4827  0.0686 -0.3415
 8434TIP3    H146793   3.915   3.992  15.784  1.2679  3.0028 -3.1861
 8434TIP3    H246794   3.830   4.092  15.858  0.8506  1.2033 -1.1485
 8435TIP3   OH246795   2.938   6.066  13.088 -0.5520  0.0853  0.5544
 8435TIP3    H146796   2.922   6.012  13.166  1.1774  0.8857  1.5123
 8435TIP3    H246797   2.882   6.143  13.101 -0.4488  0.1059  0.8782
 8436TIP3   OH246798   1.056   3.214   5.355 -0.1484 -0.1360 -0.7140
 8436TIP3    H146799   0.987   3.229   5.290 -0.2506 -1.3470 -0.9090
 8436TIP3    H246800   1.124   3.167   5.307  0.0843 -0.4139 -0.1249
 8437TIP3   OH246801   1.806   2.222   3.551 -0.0856  0.3181 -0.0900
 8437TIP3    H146802   1.731   2.178   3.591 -1.8525  1.1776 -2.2272
 8437TIP3    H246803   1.788   2.316   3.562  1.7767  0.5953  1.1563
 8438TIP3   OH246804   3.549   5.535  11.365  0.1251 -0.0099 -0.0448
 8438TIP3    H146805   3.535   5.559  11.457 -0.1651 -0.7274  0.1052
 8438TIP3    H246806   3.462   5.507  11.335  0.5084 -1.1641 -0.1164
 8439TIP3   OH246807   2.619   2.872   0.487  0.7590  0.1338 -0.3953
 8439TIP3    H146808   2.698   2.895   0.438  0.6813  2.7082  0.5033
 8439TIP3    H246809   2.646   2.802   0.547  1.5383 -1.1164 -2.1393
 8440TIP3   OH246810   2.463   3.326  10.949  0.0306 -0.5303 -0.2907
 8440TIP3    H146811   2.470   3.421  10.961  2.3978 -0.7826  0.8338
 8440TIP3    H246812   2.492   3.311  10.859  2.6755 -0.3756  0.4526
 8441TIP3   OH246813   1.444   1.985  12.139  0.3977 -0.2590  0.4625
 8441TIP3    H146814   1.368   2.043  12.150 -0.1013 -0.6253 -0.8781
 8441TIP3    H246815   1.438   1.924  12.212 -1.1728 -0.8800 -0.1366
 8442TIP3   OH246816   6.312   3.395  12.053 -0.2998  0.4128  0.6668
 8442TIP3    H146817   6.347   3.311  12.084  1.2070  1.6450  2.5741
 8442TIP3    H246818   6.283   3.440  12.132 -0.3817  1.9841 -0.2026
 8443TIP3   OH246819   2.266   1.647   4.884  0.7351 -0.2181 -0.3651
 8443TIP3    H146820   2.281   1.733   4.922 -2.0875  0.7865 -1.2655
 8443TIP3    H246821   2.247   1.590   4.959  0.6232  0.4043  0.0809
 8444TIP3   OH246822   4.769   3.418   1.499  0.1555 -0.1341 -0.0706
 8444TIP3    H146823   4.716   3.352   1.456 -0.6976 -0.5631  1.5504
 8444TIP3    H246824   4.720   3.441   1.578  2.5575 -0.9430  1.7916
 8445TIP3   OH246825   4.596   5.174   5.603 -0.1963 -0.4552 -0.7020
 8445TIP3    H146826   4.538   5.166   5.527 -0.0820 -0.0595 -0.8354
 8445TIP3    H246827   4.634   5.087   5.614 -0.7308 -0.6880 -0.6830
 8446TIP3   OH246828   0.800   5.717  14.476  0.3612  0.1650  0.3878
 8446TIP3    H146829   0.879   5.725  14.530 -0.4797  0.2873  1.6237
 8446TIP3    H246830   0.788   5.623  14.466  1.6799  0.1340 -1.3734
 8447TIP3   OH246831   3.918   1.067   1.811  0.2551 -0.5872  0.4873
 8447TIP3    H146832   3.879   1.118   1.741 -0.1479  0.9050  1.7281
 8447TIP3    H246833   3.901   1.118   1.890  1.0725 -1.9811  1.6219
 8448TIP3   OH246834   5.609   5.013   2.844 -0.3006  0.0754  0.0327
 8448TIP3    H146835   5.582   5.000   2.753 -1.9008 -0.4214  0.5403
 8448TIP3    H246836   5.639   4.927   2.872 -1.4781 -0.2237  0.4600
 8449TIP3   OH246837   1.012   2.392   2.214  0.4509 -0.4871 -0.6535
 8449TIP3    H146838   1.051   2.376   2.128  0.4243 -0.2729 -0.7042
 8449TIP3    H246839   1.083   2.372   2.276  0.7644  0.2772 -0.7574
 8450TIP3   OH246840   4.808   5.735   3.447 -0.2149  0.1615  0.3280
 8450TIP3    H146841   4.849   5.650   3.433  0.7983  0.9543 -2.1829
 8450TIP3    H246842   4.757   5.725   3.527  0.3241 -2.6125  0.4121
 8451TIP3   OH246843   4.623   5.939   2.432  0.1275 -0.3063  0.2426
 8451TIP3    H146844   4.530   5.960   2.443 -0.5476 -2.6994 -0.2260
 8451TIP3    H246845   4.643   5.965   2.342 -0.0058  0.4043  0.4095
 8452TIP3   OH246846   4.421   2.606  11.200  0.6399  0.0397  0.0093
 8452TIP3    H146847   4.485   2.665  11.162  0.7095  0.3789  0.6324
 8452TIP3    H246848   4.472   2.541  11.247  0.5307  0.2686  0.4466
 8453TIP3   OH246849   0.629   3.202  15.638  0.0600  0.1175 -0.5769
 8453TIP3    H146850   0.588   3.230  15.720  2.9166  1.0550  0.6307
 8453TIP3    H246851   0.699   3.265  15.623  1.2243 -1.5031 -2.4150
 8454TIP3   OH246852   4.602   1.888   3.993  0.4124 -0.0818  0.1177
 8454TIP3    H146853   4.669   1.838   3.947 -0.9558  0.2337 -2.4111
 8454TIP3    H246854   4.541   1.823   4.028 -0.2104 -0.2934 -1.3039
 8455TIP3   OH246855   2.207   1.525   5.348  0.4947  0.4738  0.6436
 8455TIP3    H146856   2.177   1.467   5.417 -0.8274 -0.2620 -0.4958
 8455TIP3    H246857   2.301   1.513   5.345  0.2960 -1.4029  0.6531
 8456TIP3   OH246858   3.029   1.250  17.179 -0.5003  0.1519 -0.7371
 8456TIP3    H146859   2.957   1.291  17.226 -0.3394 -0.3371 -0.0357
 8456TIP3    H246860   3.099   1.315  17.180 -0.5527  0.2072 -0.4195
 8457TIP3   OH246861   0.175   0.524  13.156  0.1292 -0.2896 -0.0428
 8457TIP3    H146862   0.117   0.463  13.201  0.7123 -2.0274 -1.5518
 8457TIP3    H246863   0.121   0.561  13.086 -0.7869  2.4312  1.9476
 8458TIP3   OH246864   2.952   1.817   1.451 -0.0837  0.2088  0.3822
 8458TIP3    H146865   2.860   1.824   1.474 -0.1503 -1.4196  0.6648
 8458TIP3    H246866   2.996   1.790   1.531  0.5833  0.4882  0.1262
 8459TIP3   OH246867   4.238   6.351   2.403  0.0158  0.2515 -0.1403
 8459TIP3    H146868   4.154   6.341   2.359 -1.0650 -2.4670  2.1786
 8459TIP3    H246869   4.285   6.270   2.385  1.5259  1.0822 -0.1471
 8460TIP3   OH246870   0.640   1.703   1.962  0.4582 -0.3316 -1.1377
 8460TIP3    H146871   0.549   1.703   1.931  0.3720  1.3608 -0.9713
 8460TIP3    H246872   0.675   1.787   1.932  1.3886 -0.1157  0.4460
 8461TIP3   OH246873   0.938   4.478  13.079  0.3013 -0.0885  0.4221
 8461TIP3    H146874   0.899   4.455  12.995  0.0069 -0.1293  0.5671
 8461TIP3    H246875   0.963   4.570  13.070  0.9892 -0.3116  0.0236
 8462TIP3   OH246876   2.459   6.673  16.638 -0.1964 -0.0868 -0.4404
 8462TIP3    H146877   2.409   6.659  16.718  0.3059 -1.0977 -0.2751
 8462TIP3    H246878   2.549   6.684  16.669 -0.2896  1.7317 -0.7262
 8463TIP3   OH246879   5.315   2.677   4.776  1.0019  0.1529 -0.3810
 8463TIP3    H146880   5.254   2.627   4.723  0.5200  2.2825 -1.9835
 8463TIP3    H246881   5.260   2.741   4.822  1.7580  0.4419  0.1442
 8464TIP3   OH246882   5.295   4.342   3.363  0.2520  1.0220  0.0282
 8464TIP3    H146883   5.364   4.408   3.350  0.3051  1.3531  1.7342
 8464TIP3    H246884   5.238   4.380   3.430 -1.1659  0.4031 -0.7758
 8465TIP3   OH246885   1.935   6.620  15.296 -0.0890  0.3396 -0.4217
 8465TIP3    H146886   1.934   6.575  15.381  2.0937  1.7865  0.4872
 8465TIP3    H246887   2.007   6.683  15.304 -0.1926  0.9258 -3.1718
 8466TIP3   OH246888   5.553   2.444  12.115  0.1714  0.0825  0.0428
 8466TIP3    H146889   5.593   2.515  12.166  1.7964 -1.2533  0.7237
 8466TIP3    H246890   5.494   2.401  12.177  0.9787 -0.5906  0.3612
 8467TIP3   OH246891   6.409   3.011   3.782 -0.0675  0.2504 -0.2246
 8467TIP3    H146892   6.442   3.101   3.789  0.0415  0.3612 -1.8595
 8467TIP3    H246893   6.315   3.022   3.764 -0.0922  0.0270 -0.2311
 8468TIP3   OH246894   2.609   1.094  15.251  0.4987 -0.0012 -0.1937
 8468TIP3    H146895   2.534   1.079  15.192 -0.8603  0.0435  1.4536
 8468TIP3    H246896   2.577   1.157  15.315  0.7864 -2.3487  2.4875
 8469TIP3   OH246897   1.028   5.526   3.517  0.5606 -0.6496  0.4076
 8469TIP3    H146898   1.014   5.460   3.449 -1.9821 -0.7042  0.8905
 8469TIP3    H246899   1.115   5.506   3.553  0.8611 -2.2138 -1.0677
 8470TIP3   OH246900   3.794   6.109   5.839 -0.5522  0.2059 -0.6089
 8470TIP3    H146901   3.834   6.156   5.913 -1.7225 -1.4984  1.2231
 8470TIP3    H246902   3.805   6.168   5.765  0.8449  1.9552  0.8762
 8471TIP3   OH246903   2.779   2.457  11.670  0.0074 -0.3718  0.0106
 8471TIP3    H146904   2.832   2.487  11.743  1.3252 -3.0829  0.3078
 8471TIP3    H246905   2.695   2.432  11.710  0.2142 -0.5006  0.3709
 8472TIP3   OH246906   3.198   4.534  10.749  0.2918 -0.1349  0.3919
 8472TIP3    H146907   3.119   4.514  10.698  0.7782 -0.7592 -0.1352
 8472TIP3    H246908   3.179   4.618  10.790  0.4699  1.2030 -2.1010
 8473TIP3   OH246909   3.100   2.321   4.586  0.0594  0.3552 -0.3582
 8473TIP3    H146910   3.141   2.272   4.657  1.2072 -0.0103 -1.2498
 8473TIP3    H246911   3.058   2.253   4.532 -0.9018  0.6392  0.0126
 8474TIP3   OH246912   6.201   3.491   0.130  0.3845 -0.1631 -0.2915
 8474TIP3    H146913   6.223   3.545   0.206  1.2300  0.0256 -0.6661
 8474TIP3    H246914   6.114   3.521   0.104 -1.1882 -2.0401  2.2329
 8475TIP3   OH246915   6.216   0.580   0.980 -0.5061 -0.6856  0.2178
 8475TIP3    H146916   6.267   0.589   0.900 -1.1024  1.4172  0.0225
 8475TIP3    H246917   6.235   0.660   1.030  0.3061 -2.1910  2.4765
 8476TIP3   OH246918   5.362   4.706  11.350  0.0297 -0.2735  0.0765
 8476TIP3    H146919   5.269   4.697  11.370 -0.1337 -0.4471 -0.7285
 8476TIP3    H246920   5.374   4.800  11.333  0.5903  0.2841  2.8864
 8477TIP3   OH246921   5.309   4.213  15.380  0.3829 -0.1203  0.2343
 8477TIP3    H146922   5.336   4.183  15.294 -0.6617 -0.7053  0.0958
 8477TIP3    H246923   5.233   4.159  15.402  0.3972  0.2838  1.3513
 8478TIP3   OH246924   5.817   5.760  15.663 -0.3095  0.3230  0.1606
 8478TIP3    H146925   5.723   5.770  15.677 -0.2951 -0.7582  1.1235
 8478TIP3    H246926   5.840   5.831  15.602 -1.7067  0.6890  0.0384
 8479TIP3   OH246927   2.335   0.975   4.367 -0.2412  0.0317  0.0853
 8479TIP3    H146928   2.331   1.069   4.386  1.8305  0.5361 -1.6486
 8479TIP3    H246929   2.247   0.954   4.334 -0.6629  1.3937  0.2641
 8480TIP3   OH246930   2.825   2.181  11.557  0.0752  0.0146  0.5217
 8480TIP3    H146931   2.851   2.110  11.616  0.9228 -0.0238  0.1208
 8480TIP3    H246932   2.881   2.255  11.581  0.7537 -0.1359 -0.5184
 8481TIP3   OH246933   0.942   0.809  11.867 -0.2483  0.1437  0.1559
 8481TIP3    H146934   0.859   0.763  11.854 -0.1439  0.2444 -0.9963
 8481TIP3    H246935   1.009   0.749  11.832  0.2128 -0.0806  1.3785
 8482TIP3   OH246936   3.688   4.505  11.533 -0.2530  0.5535  0.0034
 8482TIP3    H146937   3.727   4.418  11.540 -0.7685  0.2249 -1.0787
 8482TIP3    H246938   3.602   4.490  11.496 -0.1249  1.5760 -0.7506
 8483TIP3   OH246939   4.132   2.208  16.816 -0.0464  0.4780 -0.1314
 8483TIP3    H146940   4.079   2.263  16.873  1.8611  0.6956  1.5300
 8483TIP3    H246941   4.210   2.260  16.797  1.7391 -1.4907  1.3674
 8484TIP3   OH246942   2.898   6.136   1.401  0.5347 -0.2443 -0.0190
 8484TIP3    H146943   2.852   6.087   1.334  0.7629 -0.2729 -0.1558
 8484TIP3    H246944   2.971   6.079   1.427 -0.4463 -0.9180  1.3715
 8485TIP3   OH246945   4.362   1.612  14.951 -0.2316 -0.5558 -0.6430
 8485TIP3    H146946   4.356   1.707  14.938  0.0107 -0.5360 -0.6252
 8485TIP3    H246947   4.329   1.598  15.039  0.1127 -0.4389 -0.4940
 8486TIP3   OH246948   1.251   4.340   4.360  0.2933 -0.1907 -0.5846
 8486TIP3    H146949   1.216   4.395   4.290  0.9675 -0.8493 -1.4478
 8486TIP3    H246950   1.244   4.251   4.327 -1.1555 -0.7043  0.9520
 8487TIP3   OH246951   0.652   6.416  12.806 -0.4646  0.1492  0.3669
 8487TIP3    H146952   0.650   6.497  12.754 -1.7102 -0.4422 -0.5497
 8487TIP3    H246953   0.577   6.422  12.864  0.0459  0.1110  1.0441
 8488TIP3   OH246954   2.840   0.465   3.984 -0.1268 -0.2212  0.1511
 8488TIP3    H146955   2.897   0.481   3.910  0.9745  0.8794  1.1857
 8488TIP3    H246956   2.891   0.409   4.043 -0.9886 -1.0978  0.0944
 8489TIP3   OH246957   0.261   5.061   4.588  0.2068  0.5881  0.3235
 8489TIP3    H146958   0.271   4.970   4.615 -1.5160  0.2555 -0.0514
 8489TIP3    H246959   0.263   5.057   4.492 -1.0604  0.7703  0.2793
 8490TIP3   OH246960   3.797   4.419   4.256  0.2532  0.3421  0.1329
 8490TIP3    H146961   3.882   4.462   4.256 -0.9517  2.9025 -0.1949
 8490TIP3    H246962   3.772   4.415   4.164 -0.6248  1.0786  0.3196
 8491TIP3   OH246963   3.993   0.491  12.428 -0.3050  0.3662  0.4914
 8491TIP3    H146964   3.997   0.441  12.346  1.9446  0.6791  0.3344
 8491TIP3    H246965   3.926   0.557  12.412  0.6342  0.9445 -1.4635
 8492TIP3   OH246966   0.410   0.295   3.397 -0.0195  0.3321  0.1948
 8492TIP3    H146967   0.339   0.248   3.440  0.2810 -0.7822 -0.4734
 8492TIP3    H246968   0.370   0.333   3.319  0.1380 -0.4891 -0.3046
 8493TIP3   OH246969   2.335   1.837   3.863 -0.5072 -0.2248 -0.7088
 8493TIP3    H146970   2.249   1.812   3.898 -1.2535  2.1207 -0.6901
 8493TIP3    H246971   2.396   1.823   3.935 -1.1734 -0.2961 -0.1541
 8494TIP3   OH246972   1.152   1.636   2.549 -0.4564  0.1304  0.2912
 8494TIP3    H146973   1.067   1.640   2.504 -0.0586  2.6979 -0.3876
 8494TIP3    H246974   1.133   1.670   2.637  0.0170  1.7147 -0.1940
 8495TIP3   OH246975   6.678   0.272   5.041 -0.1552  0.2051  0.4922
 8495TIP3    H146976   6.626   0.347   5.011  1.4840  1.2742  0.1988
 8495TIP3    H246977   6.719   0.303   5.121  2.1724  0.4244 -0.7058
 8496TIP3   OH246978   4.530   6.036   5.551 -0.2167 -0.0681  0.0795
 8496TIP3    H146979   4.517   5.965   5.488  0.1732 -2.0904  2.1248
 8496TIP3    H246980   4.442   6.062   5.575 -0.3859 -0.7107  0.1835
 8497TIP3   OH246981   4.804   2.969   2.345 -0.2554  0.4915 -0.1407
 8497TIP3    H146982   4.819   2.996   2.436  0.1278  0.1986 -0.1188
 8497TIP3    H246983   4.730   2.908   2.351  0.3571 -0.2456  0.0932
 8498TIP3   OH246984   5.024   4.613  14.052  0.6522  0.9711 -0.7041
 8498TIP3    H146985   4.969   4.553  14.103  2.1952  1.0078  1.1019
 8498TIP3    H246986   4.963   4.655  13.991 -0.9380 -0.4724 -0.1859
 8499TIP3   OH246987   2.131   1.912   1.489  0.1358  0.2164  0.2037
 8499TIP3    H146988   2.140   2.002   1.521  0.1594 -0.0015  0.8170
 8499TIP3    H246989   2.221   1.884   1.471  0.2796 -0.1830  1.4246
 8500TIP3   OH246990   2.694   2.642  10.889  0.3798  0.0669 -0.7784
 8500TIP3    H146991   2.775   2.647  10.941  0.6038  0.7816 -1.1760
 8500TIP3    H246992   2.718   2.682  10.806 -0.7683  1.6174 -0.4050
 8501TIP3   OH246993   4.501   4.008   4.885  0.5273 -0.3478 -0.2756
 8501TIP3    H146994   4.415   4.025   4.925  1.2868  1.0175  0.8784
 8501TIP3    H246995   4.550   3.962   4.953  1.2202  0.3020 -0.3203
 8502TIP3   OH246996   2.556   1.555   4.245 -0.3154  0.3362 -0.3019
 8502TIP3    H146997   2.484   1.504   4.208 -1.2456  2.8061 -2.2165
 8502TIP3    H246998   2.548   1.543   4.340  0.0278 -3.5138 -0.6122
 8503TIP3   OH246999   0.129   5.724  13.645 -0.4025  0.4830 -0.4944
 8503TIP3    H147000   0.176   5.651  13.685 -3.2148 -1.2519 -0.0684
 8503TIP3    H247001   0.058   5.743  13.706 -1.4987  1.5454 -2.0160
 8504TIP3   OH247002   0.629   2.403   3.718  0.0182  0.3290 -0.2129
 8504TIP3    H147003   0.538   2.414   3.745  0.1802  0.7570  0.1692
 8504TIP3    H247004   0.665   2.491   3.717  0.1698  0.2631 -1.3168
 8505TIP3   OH247005   2.527   1.503   0.243 -0.0557  0.4611  0.4648
 8505TIP3    H147006   2.498   1.594   0.250  0.9934  1.0003 -1.3882
 8505TIP3    H247007   2.583   1.489   0.319 -0.3598  1.3218  0.8528
 8506TIP3   OH247008   4.339   1.207   3.652 -0.0141 -0.3574 -0.2216
 8506TIP3    H147009   4.370   1.117   3.648 -3.6470 -1.7678 -2.7420
 8506TIP3    H247010   4.309   1.218   3.743  1.1063 -1.4109  0.2998
 8507TIP3   OH247011   5.231   1.876   1.787  0.0812 -0.4603 -0.8376
 8507TIP3    H147012   5.247   1.966   1.757 -0.2055 -0.6981 -1.7255
 8507TIP3    H247013   5.319   1.841   1.803  0.2392 -0.3062 -1.3473
 8508TIP3   OH247014   3.403   0.171  13.422 -0.6809 -0.1521 -0.0743
 8508TIP3    H147015   3.472   0.111  13.391 -1.0295 -1.2269  1.1327
 8508TIP3    H247016   3.450   0.247  13.455 -0.0630 -0.7944  0.5597
 8509TIP3   OH247017   5.852   4.024  11.993 -0.0775 -0.2092  0.5273
 8509TIP3    H147018   5.870   4.089  11.924  2.6160  0.1200  1.4171
 8509TIP3    H247019   5.808   4.074  12.062  0.4071  0.3008  0.4765
 8510TIP3   OH247020   3.655   5.272  14.098 -0.0822  0.2308 -0.3378
 8510TIP3    H147021   3.739   5.236  14.126 -0.0792  0.4497 -0.0633
 8510TIP3    H247022   3.599   5.265  14.175 -0.2971  0.1421 -0.5029
 8511TIP3   OH247023   0.177   0.667   3.245  0.6073  0.5185  0.7200
 8511TIP3    H147024   0.165   0.623   3.161  0.9210  0.8430  0.5007
 8511TIP3    H247025   0.262   0.636   3.277  0.8365  0.9709  0.5569
 8512TIP3   OH247026   1.231   3.063   2.844  0.1635 -0.0636  0.4833
 8512TIP3    H147027   1.190   3.067   2.757  0.5842  1.4965  0.3431
 8512TIP3    H247028   1.157   3.065   2.905 -0.0429  1.6604  0.2051
 8513TIP3   OH247029   5.381   1.740   3.600 -0.6981 -0.2922 -0.4548
 8513TIP3    H147030   5.424   1.696   3.527  0.2344  2.0322 -1.4208
 8513TIP3    H247031   5.342   1.670   3.652  3.4054 -2.5195 -0.0561
 8514TIP3   OH247032   2.168   3.341  13.483  0.0703  0.3568 -0.5080
 8514TIP3    H147033   2.186   3.365  13.392 -1.0190 -1.2869 -1.1963
 8514TIP3    H247034   2.203   3.253  13.492 -1.6998 -0.3238  0.0240
 8515TIP3   OH247035   6.094   3.048   2.978  0.6201  0.2292  0.1054
 8515TIP3    H147036   6.100   3.011   3.066  1.2982  0.3921  0.1331
 8515TIP3    H247037   6.070   2.974   2.922 -0.5070  0.2572  0.5156
 8516TIP3   OH247038   1.588   1.089  11.409  0.1746  0.0201  0.1477
 8516TIP3    H147039   1.539   1.164  11.376 -0.4022 -0.8849 -1.1460
 8516TIP3    H247040   1.523   1.018  11.413  0.7386 -0.4668  1.1751
 8517TIP3   OH247041   0.562   2.357  10.838 -0.4988 -0.6995  0.0304
 8517TIP3    H147042   0.521   2.409  10.908 -0.8823 -0.8324 -0.0953
 8517TIP3    H247043   0.535   2.267  10.856 -0.1154 -0.8136  0.0490
 8518TIP3   OH247044   1.365   2.231  15.047 -0.9785  0.2148  0.0237
 8518TIP3    H147045   1.429   2.169  15.082 -1.3532 -0.1040  0.1449
 8518TIP3    H247046   1.288   2.221  15.103 -1.3461  0.1745 -0.4818
 8519TIP3   OH247047   3.703   4.699  16.749 -0.3375  0.4088 -0.3963
 8519TIP3    H147048   3.672   4.609  16.756  0.5770  0.1470  0.4166
 8519TIP3    H247049   3.670   4.742  16.828 -1.3251  0.9748 -1.0911
 8520TIP3   OH247050   4.160   5.484  16.621 -0.2509 -0.2643 -0.1340
 8520TIP3    H147051   4.116   5.530  16.692  1.4427 -0.4880  1.1102
 8520TIP3    H247052   4.221   5.548  16.585 -1.6398  0.1095 -1.9769
 8521TIP3   OH247053   6.124   1.497   0.602  0.8104  0.1447 -0.3248
 8521TIP3    H147054   6.103   1.449   0.682  0.0729 -0.0619 -0.6307
 8521TIP3    H247055   6.121   1.589   0.628  2.1085  0.0474  0.2332
 8522TIP3   OH247056   6.648   6.559  12.794 -0.9304  0.3301  0.2075
 8522TIP3    H147057   6.670   6.583  12.704 -3.6985 -0.6225 -0.8381
 8522TIP3    H247058   6.558   6.589  12.806 -0.5684  0.6826  2.8103
 8523TIP3   OH247059   4.990   3.099   4.958 -0.0654  0.0881 -0.4932
 8523TIP3    H147060   5.081   3.070   4.950 -0.2675 -0.6247 -0.2320
 8523TIP3    H247061   4.949   3.035   5.016 -0.5085  0.9316  0.1330
 8524TIP3   OH247062   4.947   6.631  13.086 -0.2301  0.8358 -0.6561
 8524TIP3    H147063   4.974   6.682  13.163  0.0455  1.7504 -1.3433
 8524TIP3    H247064   4.855   6.610  13.101 -0.1422  0.8982 -0.0195
 8525TIP3   OH247065   5.093   5.526   1.251  0.2482 -0.3455 -1.3270
 8525TIP3    H147066   5.165   5.510   1.312 -0.5188 -1.8335 -0.7721
 8525TIP3    H247067   5.110   5.466   1.178 -0.2837 -0.5229 -1.3100
 8526TIP3   OH247068   2.245   3.456   0.077  0.2618  0.9975  0.5386
 8526TIP3    H147069   2.290   3.429   0.157 -1.0017 -1.2795  0.5449
 8526TIP3    H247070   2.171   3.508   0.108 -0.7770 -0.6814  0.9432
 8527TIP3   OH247071   0.374   4.119  16.732  0.3511  0.8756  0.1009
 8527TIP3    H147072   0.356   4.128  16.638 -0.4620  1.3246  0.2944
 8527TIP3    H247073   0.451   4.174  16.746  2.3056 -1.4296 -0.8161
 8528TIP3   OH247074   2.618   1.809   0.840  0.0877 -0.0248 -0.1942
 8528TIP3    H147075   2.681   1.763   0.896 -1.1316 -0.5786  0.7960
 8528TIP3    H247076   2.572   1.868   0.900  0.9614  1.8067 -1.2792
 8529TIP3   OH247077   2.640   2.118  16.861 -0.6364 -0.0062 -0.4367
 8529TIP3    H147078   2.708   2.090  16.800  0.2943  1.0179  0.0953
 8529TIP3    H247079   2.567   2.058  16.844 -0.7288  0.7267 -3.0937
 8530TIP3   OH247080   6.481   0.902  14.181 -0.4252 -0.5533  0.7392
 8530TIP3    H147081   6.411   0.842  14.157 -0.5071  1.3417 -5.4434
 8530TIP3    H247082   6.441   0.988  14.178  1.6782  0.4611 -1.3362
 8531TIP3   OH247083   2.132   3.491  16.937 -0.4213  0.0073  0.1942
 8531TIP3    H147084   2.041   3.506  16.914  0.3075  2.1500 -1.6559
 8531TIP3    H247085   2.156   3.566  16.993  0.2627 -0.4322  0.5134
 8532TIP3   OH247086   2.933   6.476  14.299 -0.1525  0.4651  0.1169
 8532TIP3    H147087   2.839   6.492  14.297 -0.1257  0.8515  1.2525
 8532TIP3    H247088   2.967   6.540  14.362  0.8084  0.0276  0.0628
 8533TIP3   OH247089   0.898   3.071  11.538  0.3399 -0.4585 -0.1858
 8533TIP3    H147090   0.979   3.116  11.561  0.6270 -1.1814  0.2735
 8533TIP3    H247091   0.842   3.139  11.500  1.4309 -0.0894 -1.2130
 8534TIP3   OH247092   0.703   3.920   5.790  0.3955 -0.4112 -0.3608
 8534TIP3    H147093   0.643   3.896   5.860 -0.5136 -1.1113 -1.3558
 8534TIP3    H247094   0.704   4.016   5.792  2.7601 -0.3274  2.5558
 8535TIP3   OH247095   2.890   5.923  14.051  0.3788 -0.3125  0.6481
 8535TIP3    H147096   2.900   5.979  14.128  0.0996 -0.6333  0.9205
 8535TIP3    H247097   2.949   5.961  13.986 -1.1591  1.4097  0.1771
 8536TIP3   OH247098   3.945   3.355  11.748  0.3032  0.0909  0.2153
 8536TIP3    H147099   3.995   3.284  11.708 -1.1567 -0.6040 -0.4439
 8536TIP3    H247100   3.854   3.334  11.729 -0.1770  2.0471  0.1925
 8537TIP3   OH247101   6.559   1.710  12.770 -0.2062 -0.4791  0.2379
 8537TIP3    H147102   6.473   1.727  12.731  0.3519  1.1680 -0.3816
 8537TIP3    H247103   6.618   1.769  12.722  0.6319  1.1698  3.0956
 8538TIP3   OH247104   3.383   6.044  12.501 -0.3778 -0.0886 -0.0762
 8538TIP3    H147105   3.390   6.103  12.426 -0.6082 -0.4213 -0.3651
 8538TIP3    H247106   3.299   5.999  12.487 -0.4703 -0.0757  0.4370
 8539TIP3   OH247107   5.892   5.486  14.284  1.3429 -0.3026 -0.1688
 8539TIP3    H147108   5.918   5.509  14.372  0.1312 -0.5671  0.2850
 8539TIP3    H247109   5.939   5.405  14.264  2.5276  0.3854 -0.2396
 8540TIP3   OH247110   5.669   4.657  14.901  0.0080 -0.3602 -0.4980
 8540TIP3    H147111   5.663   4.685  14.993 -0.6737  1.6421 -1.1072
 8540TIP3    H247112   5.589   4.691  14.861  0.9360 -0.0472 -2.1292
 8541TIP3   OH247113   3.090   2.025   5.780 -0.8536  0.2410 -0.2834
 8541TIP3    H147114   3.088   2.121   5.789  1.5622  0.3249 -0.0140
 8541TIP3    H247115   3.121   1.994   5.865  1.1189 -0.5480 -1.2358
 8542TIP3   OH247116   0.452   4.882  13.812 -0.0199 -0.3444  0.2018
 8542TIP3    H147117   0.392   4.807  13.802  0.2852 -0.5896  0.2115
 8542TIP3    H247118   0.508   4.878  13.735  0.5207 -0.5952  0.6087
 8543TIP3   OH247119   1.541   4.446   4.310  0.0643  0.1600  0.0887
 8543TIP3    H147120   1.627   4.406   4.310  0.7226  1.3598 -2.4791
 8543TIP3    H247121   1.486   4.385   4.260 -1.5253 -2.0683  4.0561
 8544TIP3   OH247122   0.227   0.814   2.128  0.0769 -0.4137 -0.2184
 8544TIP3    H147123   0.307   0.778   2.089 -0.2346 -1.4072  0.0480
 8544TIP3    H247124   0.171   0.834   2.053  0.2928 -0.3774 -0.3726
 8545TIP3   OH247125   5.323   4.882  13.578 -0.6152 -0.2453 -0.6956
 8545TIP3    H147126   5.359   4.969  13.565 -1.3749  0.4257  1.3439
 8545TIP3    H247127   5.388   4.823  13.537  0.2071  1.1996 -1.5536
 8546TIP3   OH247128   0.245   6.400   5.083 -0.2592  0.5502 -0.0518
 8546TIP3    H147129   0.197   6.479   5.057 -2.3372 -0.5189  0.3322
 8546TIP3    H247130   0.217   6.383   5.173  0.7014 -0.2404  0.1144
 8547TIP3   OH247131   1.480   0.600   0.502  0.1732 -0.7327  0.0518
 8547TIP3    H147132   1.467   0.623   0.410 -0.1979 -0.9790  0.0449
 8547TIP3    H247133   1.398   0.622   0.544  0.3680 -0.5545  0.3422
 8548TIP3   OH247134   0.597   1.052  14.940 -0.0982 -0.1115  0.2570
 8548TIP3    H147135   0.671   1.069  14.998 -0.9492 -0.4488  1.4854
 8548TIP3    H247136   0.626   0.981  14.883  0.0317 -1.2892  1.7301
 8549TIP3   OH247137   1.317   0.606   2.638  0.5071 -0.3256 -0.7113
 8549TIP3    H147138   1.246   0.659   2.675  0.8385  0.6704 -1.4683
 8549TIP3    H247139   1.382   0.601   2.709  0.2474 -0.1581 -0.4595
 8550TIP3   OH247140   1.209   0.752   6.076 -0.3244 -0.1180 -0.5260
 8550TIP3    H147141   1.196   0.819   6.143  1.4962 -1.1137  0.9549
 8550TIP3    H247142   1.153   0.679   6.104 -0.1748 -0.2338 -0.5224
 8551TIP3   OH247143   4.234   3.823   3.921  0.1397  0.3279  0.2326
 8551TIP3    H147144   4.282   3.903   3.941  1.9863 -0.4573 -0.8134
 8551TIP3    H247145   4.209   3.788   4.006  0.9142  1.0655  0.7737
 8552TIP3   OH247146   5.043   4.591   1.203  0.3461  0.3174  0.5429
 8552TIP3    H147147   5.036   4.685   1.186  1.6337  0.2026 -0.9529
 8552TIP3    H247148   4.956   4.556   1.186  0.4542  0.9180 -1.5368
 8553TIP3   OH247149   4.759   2.605  12.147 -0.3093  0.1900 -0.2924
 8553TIP3    H147150   4.722   2.670  12.206  0.0396 -1.2011  1.5438
 8553TIP3    H247151   4.687   2.546  12.128 -0.0671 -0.1943 -0.0431
 8554TIP3   OH247152   5.086   1.868  13.254 -0.0481  0.2986 -0.1487
 8554TIP3    H147153   5.100   1.943  13.312 -1.6821  0.4252  0.1368
 8554TIP3    H247154   5.174   1.844  13.224  0.5962  1.7249  0.4987
 8555TIP3   OH247155   4.996   6.355   5.574 -0.1609  0.3443 -0.2124
 8555TIP3    H147156   4.907   6.374   5.601  0.0636  0.7466  0.2432
 8555TIP3    H247157   5.020   6.277   5.624  0.3902  1.3090  1.0735
 8556TIP3   OH247158   1.124   1.827  15.400 -0.1362  0.1074  0.0904
 8556TIP3    H147159   1.109   1.885  15.474  0.8433  1.2422 -0.5788
 8556TIP3    H247160   1.219   1.812  15.399 -0.2603 -0.7322 -0.3273
 8557TIP3   OH247161   3.119   2.300   5.783 -0.0687 -0.5326 -0.0042
 8557TIP3    H147162   3.196   2.296   5.726 -1.0502 -1.5893 -1.3130
 8557TIP3    H247163   3.142   2.367   5.849  1.4460  0.1016 -1.1056
 8558TIP3   OH247164   6.143   0.913  14.578 -0.7867  0.0386  0.2380
 8558TIP3    H147165   6.156   0.969  14.654 -1.7127  0.7019 -0.0804
 8558TIP3    H247166   6.206   0.841  14.590 -1.2868 -0.1572  1.8815
 8559TIP3   OH247167   0.601   0.730  11.966 -0.6440 -0.4984 -0.5323
 8559TIP3    H147168   0.515   0.699  11.994 -0.5196 -0.7972 -0.4862
 8559TIP3    H247169   0.641   0.764  12.046 -0.5570 -0.7334 -0.4757
 8560TIP3   OH247170   5.612   2.341  17.030 -0.0799 -0.7426 -0.7030
 8560TIP3    H147171   5.634   2.431  17.053 -3.4509 -0.5797  3.0954
 8560TIP3    H247172   5.665   2.287  17.089 -0.6536 -0.9632 -0.3684
 8561TIP3   OH247173   1.778   3.175   5.895 -0.1469 -0.0103  0.0696
 8561TIP3    H147174   1.813   3.262   5.875  1.2028 -0.0475  1.9937
 8561TIP3    H247175   1.685   3.182   5.877  0.1492  1.4033 -1.1364
 8562TIP3   OH247176   3.011   2.635   2.364  0.2238 -0.1607 -0.5838
 8562TIP3    H147177   3.026   2.724   2.332  1.5881  0.1514  0.8429
 8562TIP3    H247178   3.093   2.610   2.406 -0.0414 -2.2132 -1.1757
 8563TIP3   OH247179   0.869   1.068  15.506 -0.1973  0.6617  0.2100
 8563TIP3    H147180   0.810   1.054  15.580 -1.7932 -2.9160 -1.5044
 8563TIP3    H247181   0.947   1.016  15.528 -0.6089 -0.2736 -0.4771
 8564TIP3   OH247182   3.819   3.988  11.217 -0.6254  0.2828 -0.0571
 8564TIP3    H147183   3.758   4.014  11.286 -1.7242  1.5217 -1.4270
 8564TIP3    H247184   3.832   3.894  11.231 -3.5652 -0.2404 -0.2127
 8565TIP3   OH247185   4.366   0.943  11.929 -0.5698  0.1072  0.1029
 8565TIP3    H147186   4.286   0.985  11.960 -1.0301  0.2817 -1.2706
 8565TIP3    H247187   4.370   0.964  11.836  0.8659 -0.2463  0.0664
 8566TIP3   OH247188   2.821   2.072   2.669  0.0054  0.4516 -0.2537
 8566TIP3    H147189   2.794   1.995   2.719 -0.9770  1.7163  1.2553
 8566TIP3    H247190   2.905   2.097   2.707  0.1303  0.3851 -0.4788
 8567TIP3   OH247191   6.741   2.400  14.625 -0.1511  0.0305 -0.4836
 8567TIP3    H147192   6.701   2.352  14.697 -0.9516 -0.2484 -1.0936
 8567TIP3    H247193   6.696   2.484  14.623  0.1044  0.1710 -0.4533
 8568TIP3   OH247194   0.684   2.164   3.570 -0.1611  0.1780 -0.1477
 8568TIP3    H147195   0.655   2.238   3.624  0.3390 -0.2660  0.7547
 8568TIP3    H247196   0.604   2.115   3.553 -0.2677  0.0802  0.5839
 8569TIP3   OH247197   3.505   1.234  14.837  0.0699 -0.2819 -0.0519
 8569TIP3    H147198   3.480   1.167  14.901  0.2919  1.3515  1.8275
 8569TIP3    H247199   3.507   1.316  14.887 -2.4109  1.5924 -2.7369
 8570TIP3   OH247200   4.372   6.721  17.156 -0.2559 -0.0001  0.1162
 8570TIP3    H147201   4.412   6.643  17.196  0.6038  0.5444  0.3455
 8570TIP3    H247202   4.288   6.729  17.201  0.5501  0.4110  1.6409
 8571TIP3   OH247203   0.515   3.686  11.687 -0.2413 -0.2924 -0.4572
 8571TIP3    H147204   0.519   3.658  11.595  0.7530 -0.8144 -0.2668
 8571TIP3    H247205   0.434   3.647  11.720 -0.5960 -0.1277 -1.0951
 8572TIP3   OH247206   1.256   1.744   2.800 -0.7719  0.4845 -0.2422
 8572TIP3    H147207   1.248   1.687   2.877  1.2996  0.7021  0.1945
 8572TIP3    H247208   1.345   1.729   2.769 -1.5538  0.4050 -2.6386
 8573TIP3   OH247209   0.005   1.258  11.176 -0.0357 -0.1415  0.1769
 8573TIP3    H147210   0.005   1.304  11.259 -2.1743  2.7148 -1.2122
 8573TIP3    H247211  -0.074   1.203  11.178 -0.0652 -0.1052  0.0596
 8574TIP3   OH247212   6.225   0.465   2.114 -0.0506  0.2765  0.7439
 8574TIP3    H147213   6.276   0.439   2.037 -0.9216  1.3182 -0.2357
 8574TIP3    H247214   6.291   0.484   2.181  0.9650  2.2133 -0.6771
 8575TIP3   OH247215   5.273   4.047  12.287  0.0744  0.1547 -0.9056
 8575TIP3    H147216   5.345   4.094  12.328 -0.6202  0.0493  0.4901
 8575TIP3    H247217   5.274   4.076  12.195 -0.0556  2.5462 -0.1978
 8576TIP3   OH247218   3.841   1.071  16.572 -0.4275 -0.3597  0.1840
 8576TIP3    H147219   3.906   1.131  16.609 -1.3241 -0.7979  2.6228
 8576TIP3    H247220   3.888   0.989  16.558 -0.1494 -0.2889  0.7067
 8577TIP3   OH247221   2.045   6.739  13.290  0.8333  0.1735 -0.0142
 8577TIP3    H147222   2.069   6.670  13.228 -0.3501 -1.1553  0.9346
 8577TIP3    H247223   2.123   6.750  13.344  1.1499 -0.1836 -0.3873
 8578TIP3   OH247224   5.566   6.407   5.726 -0.6591 -0.8588 -0.1168
 8578TIP3    H147225   5.627   6.471   5.762  0.9866 -0.2517 -3.6038
 8578TIP3    H247226   5.483   6.454   5.717 -0.8627 -0.7629  1.7832
 8579TIP3   OH247227   2.011   6.131   4.876 -0.2167 -0.3548 -0.0268
 8579TIP3    H147228   1.932   6.173   4.909  1.2158  1.4093  1.3638
 8579TIP3    H247229   2.015   6.155   4.783 -1.4327 -0.7150 -0.1798
 8580TIP3   OH247230   2.020   2.699   4.029  0.1325 -0.2440  0.1575
 8580TIP3    H147231   2.089   2.636   4.050  0.4119 -0.4000 -1.1319
 8580TIP3    H247232   1.938   2.654   4.052  0.3121 -1.1833 -0.9470
 8581TIP3   OH247233   3.261   3.597  16.544 -0.4885 -0.3773 -0.2266
 8581TIP3    H147234   3.232   3.669  16.488 -2.4871 -0.3323  0.7657
 8581TIP3    H247235   3.355   3.610  16.554 -0.1023 -0.1343 -3.1688
 8582TIP3   OH247236   1.415   6.624  16.362 -0.2915 -0.0143 -0.5033
 8582TIP3    H147237   1.346   6.614  16.427 -0.4363  0.3736 -0.5954
 8582TIP3    H247238   1.462   6.703  16.388  1.6142 -1.5171  0.9337
 8583TIP3   OH247239   1.480   0.190  12.905  0.1809 -0.2284 -0.6276
 8583TIP3    H147240   1.562   0.240  12.909  0.0482 -0.0140 -0.5758
 8583TIP3    H247241   1.422   0.235  12.967 -0.1368 -0.0854 -1.0282
 8584TIP3   OH247242   5.637   2.713   1.889  0.0547 -0.1480  0.4384
 8584TIP3    H147243   5.551   2.679   1.916 -0.3309  0.9078  0.6030
 8584TIP3    H247244   5.641   2.801   1.927  0.3799  0.5910 -1.2039
 8585TIP3   OH247245   2.202   2.648   0.117  0.8180 -0.1041 -0.9891
 8585TIP3    H147246   2.153   2.566   0.107  2.9421 -1.3188 -2.0756
 8585TIP3    H247247   2.224   2.673   0.027  0.1559  1.7374 -0.6684
 8586TIP3   OH247248   0.464   0.523   4.170 -0.4310 -0.4654  0.0549
 8586TIP3    H147249   0.398   0.467   4.211 -0.0423 -0.5592  0.5607
 8586TIP3    H247250   0.508   0.466   4.108 -0.3896 -0.5763  0.1857
 8587TIP3   OH247251   3.471   6.109  13.272  0.4726  0.4488 -0.2615
 8587TIP3    H147252   3.543   6.159  13.232 -0.4640  0.8374 -1.5400
 8587TIP3    H247253   3.505   6.020  13.280  2.4534  1.3312  2.7470
 8588TIP3   OH247254   1.247   5.938  13.159 -0.3492  0.0733 -0.1509
 8588TIP3    H147255   1.319   6.001  13.168 -1.7148  1.8039 -0.8330
 8588TIP3    H247256   1.218   5.947  13.068 -1.1111 -0.9765 -0.0343
 8589TIP3   OH247257   6.647   2.460   2.720 -0.2365 -0.2706 -0.5464
 8589TIP3    H147258   6.702   2.537   2.710 -0.4461 -0.3452 -2.8774
 8589TIP3    H247259   6.705   2.386   2.700 -0.0465 -0.7754  1.6203
 8590TIP3   OH247260   5.115   0.579  13.019  0.0538 -0.1793  0.5671
 8590TIP3    H147261   5.171   0.505  13.045  0.0904 -0.5046 -0.4161
 8590TIP3    H247262   5.176   0.641  12.979 -0.4028 -1.0000 -1.5016
 8591TIP3   OH247263   0.923   3.252  17.290  0.4119  0.0142  0.2640
 8591TIP3    H147264   0.850   3.311  17.267  0.5032  0.5148  1.1841
 8591TIP3    H247265   0.899   3.218  17.376  0.5839 -0.9502 -0.0630
 8592TIP3   OH247266   3.781   2.013  12.103  0.1262 -0.0474 -0.2242
 8592TIP3    H147267   3.691   2.035  12.080  0.3654  1.9019  0.5825
 8592TIP3    H247268   3.772   1.959  12.182 -0.3308 -0.0327 -0.2596
 8593TIP3   OH247269   5.769   4.756  13.910  0.5160 -0.0137  0.8093
 8593TIP3    H147270   5.732   4.842  13.892  1.8263  0.3855 -0.1300
 8593TIP3    H247271   5.744   4.702  13.835 -0.8769 -0.6719  1.7130
 8594TIP3   OH247272   1.599   6.226   3.903  0.6105 -0.2423 -0.0901
 8594TIP3    H147273   1.688   6.195   3.892  1.5285  2.6418 -2.4168
 8594TIP3    H247274   1.599   6.272   3.987  1.5905  0.4086 -0.4282
 8595TIP3   OH247275   2.399   0.178  10.900  0.3802  0.1269  0.3436
 8595TIP3    H147276   2.391   0.259  10.852  2.1176 -0.0262 -0.2729
 8595TIP3    H247277   2.334   0.185  10.970  0.9733  2.3511  0.7394
 8596TIP3   OH247278   5.521   4.470  16.645  0.0156 -0.4547 -0.4471
 8596TIP3    H147279   5.477   4.454  16.729 -1.7030 -0.3611 -1.2955
 8596TIP3    H247280   5.525   4.565  16.637  2.4211 -0.3856  0.6051
 8597TIP3   OH247281   1.871   2.661   2.584  0.1784 -0.4355  0.0304
 8597TIP3    H147282   1.894   2.584   2.532  0.1508  0.3506 -1.1826
 8597TIP3    H247283   1.926   2.731   2.549 -0.3917  0.2850  0.5439
 8598TIP3   OH247284   3.473   0.384  16.518 -0.4947  0.0477  0.2111
 8598TIP3    H147285   3.563   0.351  16.512  0.0604  1.1844  1.6583
 8598TIP3    H247286   3.472   0.460  16.460 -0.9841 -0.8263 -0.9698
 8599TIP3   OH247287   6.170   4.784   2.856  0.1437 -0.1225 -0.4901
 8599TIP3    H147288   6.207   4.696   2.861 -0.2634 -0.2298  2.0274
 8599TIP3    H247289   6.243   4.843   2.871  0.0971 -0.1306 -0.2220
 8600TIP3   OH247290   4.114   1.091   5.152  0.5515  0.2913 -0.2490
 8600TIP3    H147291   4.171   1.049   5.086 -0.6583 -1.4930 -0.2374
 8600TIP3    H247292   4.054   1.145   5.100  0.9705  0.6108 -0.4135
 8601TIP3   OH247293   0.853   3.444  14.350 -0.4673  0.3449  0.1209
 8601TIP3    H147294   0.865   3.426  14.256 -2.2977  1.2609 -0.3200
 8601TIP3    H247295   0.823   3.361  14.386  1.2350 -0.3148  0.1483
 8602TIP3   OH247296   5.777   4.277   6.101  0.2517 -0.5827  0.2409
 8602TIP3    H147297   5.700   4.296   6.155 -0.2222 -0.5080 -0.4482
 8602TIP3    H247298   5.768   4.185   6.079  0.7930 -0.7788  0.8286
 8603TIP3   OH247299   3.281   6.474   2.285  0.4915 -0.3536  0.3898
 8603TIP3    H147300   3.215   6.454   2.219  0.6659  0.6284 -0.1036
 8603TIP3    H247301   3.248   6.435   2.366  0.1558 -1.3524 -0.2159
 8604TIP3   OH247302   0.469   4.727   2.251 -0.2514 -0.2704 -0.3593
 8604TIP3    H147303   0.555   4.685   2.254  0.0080  0.1919 -1.1257
 8604TIP3    H247304   0.467   4.782   2.330 -0.3284 -1.1924  0.2961
 8605TIP3   OH247305   4.944   3.132  16.899  0.7316  0.8428 -0.1962
 8605TIP3    H147306   4.960   3.098  16.987 -0.9374  0.9751  0.1791
 8605TIP3    H247307   4.964   3.226  16.905 -0.2110  1.0196  0.2799
 8606TIP3   OH247308   5.600   2.436   1.428 -0.3165 -0.1041  0.5378
 8606TIP3    H147309   5.652   2.428   1.348 -2.1161 -1.0479 -0.6073
 8606TIP3    H247310   5.613   2.527   1.455 -0.9767  0.7822 -1.8332
 8607TIP3   OH247311   4.888   0.609   1.979  0.3044  0.5810 -0.1655
 8607TIP3    H147312   4.965   0.632   1.927 -0.6711  1.3905 -1.3303
 8607TIP3    H247313   4.898   0.516   1.998  0.7786  0.2871 -1.7135
 8608TIP3   OH247314   5.340   0.024   3.111 -0.5048  0.2911 -0.6077
 8608TIP3    H147315   5.292   0.040   3.030 -0.3775  1.6268 -0.4391
 8608TIP3    H247316   5.274   0.034   3.180 -0.4835 -0.2444 -0.5058
 8609TIP3   OH247317   1.411   6.227   5.094  0.3690 -0.1012  0.4643
 8609TIP3    H147318   1.439   6.216   5.185 -0.0195  1.1053  0.7403
 8609TIP3    H247319   1.479   6.280   5.054 -0.3047  0.8046  0.5037
 8610TIP3   OH247320   5.882   4.752  11.987 -0.6983 -0.1083  0.5734
 8610TIP3    H147321   5.920   4.761  11.900 -0.9269  1.6456  0.6263
 8610TIP3    H247322   5.946   4.701  12.036 -0.7073 -1.3842 -0.6839
 8611TIP3   OH247323   0.001   1.143  11.817  0.3637 -0.2589 -0.5752
 8611TIP3    H147324   0.094   1.161  11.800  0.0445  1.6909 -0.4217
 8611TIP3    H247325  -0.044   1.222  11.789 -1.4710 -1.7874 -2.2620
 8612TIP3   OH247326   6.792   6.317  14.331  0.2475 -0.0801  0.2059
 8612TIP3    H147327   6.729   6.389  14.330 -0.4111 -0.5837  2.0138
 8612TIP3    H247328   6.810   6.300  14.239 -0.8066  1.3271 -0.3005
 8613TIP3   OH247329   2.131   5.731  15.121 -0.0997  0.1394 -0.5394
 8613TIP3    H147330   2.185   5.653  15.132  1.0015  0.8767 -0.5403
 8613TIP3    H247331   2.042   5.702  15.140  0.3439 -1.0271 -0.1756
 8614TIP3   OH247332   6.329   1.600   4.931  0.3266 -0.4696 -0.2342
 8614TIP3    H147333   6.238   1.592   4.900 -0.3637  1.0836  1.2422
 8614TIP3    H247334   6.355   1.689   4.906 -0.3197  0.9334  3.5346
 8615TIP3   OH247335   6.266   3.946   5.302  0.4804 -0.3139  0.4191
 8615TIP3    H147336   6.309   3.913   5.223 -0.1265 -2.1476  0.8157
 8615TIP3    H247337   6.268   3.873   5.363 -0.2498  0.6426  1.6351
 8616TIP3   OH247338   0.691   3.480  11.808 -0.1124  0.0800 -0.2520
 8616TIP3    H147339   0.606   3.446  11.833  0.7965 -2.4973 -0.3979
 8616TIP3    H247340   0.672   3.550  11.746 -2.1404  1.2849  1.5807
 8617TIP3   OH247341   5.462   6.009   5.568  0.2162 -0.2995 -0.4040
 8617TIP3    H147342   5.494   5.920   5.557 -0.2779 -0.5318 -0.0218
 8617TIP3    H247343   5.534   6.057   5.608  0.4553 -0.5419 -0.5446
 8618TIP3   OH247344   4.732   2.982   0.586 -0.0546  0.0539 -0.2387
 8618TIP3    H147345   4.720   3.077   0.589  1.8633  0.3482 -0.4680
 8618TIP3    H247346   4.794   2.964   0.657  0.5199 -0.8497 -0.9479
 8619TIP3   OH247347   1.143   0.631   0.774 -0.4825  0.2856  0.4720
 8619TIP3    H147348   1.096   0.710   0.746 -0.1359 -0.3033 -2.0114
 8619TIP3    H247349   1.109   0.562   0.717  1.6271 -0.6372  0.2630
 8620TIP3   OH247350   1.625   0.846   2.863  0.4455  0.1230  0.3812
 8620TIP3    H147351   1.606   0.928   2.816  0.3666  0.5445  1.1242
 8620TIP3    H247352   1.698   0.807   2.816 -1.4088 -0.9327 -1.8543
 8621TIP3   OH247353   4.481   6.283   4.958  0.4814 -0.6076 -0.2730
 8621TIP3    H147354   4.493   6.248   5.046 -1.2919 -1.2432 -0.2464
 8621TIP3    H247355   4.436   6.213   4.910 -2.7856  1.3456 -0.3406
 8622TIP3   OH247356   1.249   6.277  16.880 -0.5683 -0.5983 -0.2748
 8622TIP3    H147357   1.204   6.307  16.959  3.6303 -1.8867  3.0394
 8622TIP3    H247358   1.245   6.181  16.887 -0.6187 -0.7468 -2.0494
 8623TIP3   OH247359   6.467   1.567  14.994 -0.5937  0.6248 -0.1918
 8623TIP3    H147360   6.377   1.577  14.961 -0.5230  0.4852 -0.4308
 8623TIP3    H247361   6.520   1.616  14.932 -0.4187  0.0567 -0.4993
 8624TIP3   OH247362   1.961   3.584  13.834 -0.1339  0.0341 -0.0848
 8624TIP3    H147363   2.018   3.523  13.789 -1.9850 -0.2969 -2.1505
 8624TIP3    H247364   1.954   3.659  13.775 -2.9545 -0.5809 -0.7216
 8625TIP3   OH247365   2.610   5.160   0.992  0.2671  0.0118  0.0286
 8625TIP3    H147366   2.579   5.124   0.909 -1.6530 -0.7739  1.0192
 8625TIP3    H247367   2.645   5.085   1.039 -0.3714  0.0870  0.6449
 8626TIP3   OH247368   5.753   5.637  10.850 -0.1483 -0.9632  0.4086
 8626TIP3    H147369   5.778   5.570  10.913  1.1154 -0.9603 -0.0676
 8626TIP3    H247370   5.774   5.598  10.765 -0.0097 -0.2121  0.0942
 8627TIP3   OH247371   6.717   2.163  13.198  0.2765  0.0663  0.3436
 8627TIP3    H147372   6.699   2.069  13.187  2.3884 -0.2270 -1.1347
 8627TIP3    H247373   6.791   2.165  13.260  1.4420  0.6083 -1.0231
 8628TIP3   OH247374   0.960   3.980  11.799 -0.1222  0.4285  0.3398
 8628TIP3    H147375   0.892   3.953  11.736  0.7505 -0.8371 -0.0962
 8628TIP3    H247376   1.042   3.965  11.754  0.5254 -0.3872  1.7362
 8629TIP3   OH247377   3.337   0.704   0.930  0.1665 -0.1583  0.1229
 8629TIP3    H147378   3.255   0.713   0.882 -0.1244 -0.8586  0.4770
 8629TIP3    H247379   3.364   0.793   0.949 -0.2051  0.0980 -0.5164
 8630TIP3   OH247380   2.275   6.123  11.449 -0.0428  0.1156  0.1968
 8630TIP3    H147381   2.353   6.098  11.401 -0.5216  0.7200 -0.9249
 8630TIP3    H247382   2.267   6.056  11.518  0.6476 -0.7727 -0.5597
 8631TIP3   OH247383   5.068   3.341   2.661 -0.0381  0.3851  1.1551
 8631TIP3    H147384   5.127   3.383   2.724 -1.2810  0.3463  2.4187
 8631TIP3    H247385   5.064   3.250   2.689 -0.1093  0.2302  0.6379
 8632TIP3   OH247386   2.648   2.387   0.804  0.2185  0.4081  0.2530
 8632TIP3    H147387   2.672   2.300   0.772 -1.4875 -0.5692  1.4269
 8632TIP3    H247388   2.678   2.389   0.894  0.6883  1.2672  0.0945
 8633TIP3   OH247389   3.460   1.161   4.134 -0.0706 -0.2434  0.5966
 8633TIP3    H147390   3.536   1.216   4.116 -0.5314 -0.1355 -1.3362
 8633TIP3    H247391   3.490   1.097   4.198  1.3415  0.4159  0.6249
 8634TIP3   OH247392   3.438   5.016   5.113  0.2522  0.5998 -0.8943
 8634TIP3    H147393   3.429   4.921   5.119 -0.9682  0.6020 -2.3214
 8634TIP3    H247394   3.406   5.049   5.197  1.9703 -0.2833  0.1648
 8635TIP3   OH247395   0.415   5.907  14.059 -0.7663  0.5118  0.0763
 8635TIP3    H147396   0.388   5.987  14.104 -1.1773  0.4003  0.0338
 8635TIP3    H247397   0.509   5.899  14.078 -0.8599  0.6570  0.6200
 8636TIP3   OH247398   1.928   6.569   5.866  0.4942  0.0799 -0.6913
 8636TIP3    H147399   1.894   6.599   5.781  0.3600 -0.5987 -0.8798
 8636TIP3    H247400   1.870   6.610   5.931  1.2914  1.5510 -0.8510
 8637TIP3   OH247401   4.615   4.461  13.810  0.0843 -0.1175 -0.6788
 8637TIP3    H147402   4.584   4.500  13.728  2.0878  0.3260 -1.2759
 8637TIP3    H247403   4.669   4.528  13.850  0.8475 -1.0863 -0.0297
 8638TIP3   OH247404   1.865   5.705   1.395  0.0454 -0.1866  0.4417
 8638TIP3    H147405   1.917   5.773   1.437  0.1690 -0.1412  0.2163
 8638TIP3    H247406   1.895   5.623   1.434  1.9240 -0.3963 -1.3296
 8639TIP3   OH247407   0.325   2.831  12.611  0.4020  0.3996 -0.0979
 8639TIP3    H147408   0.344   2.785  12.693  0.8912  0.6569 -0.0601
 8639TIP3    H247409   0.301   2.919  12.639  1.0178  0.6234 -0.2474
 8640TIP3   OH247410   5.411   3.928   3.971  0.5985  0.3421  0.3495
 8640TIP3    H147411   5.339   3.865   3.978  0.8541 -0.0375 -0.3612
 8640TIP3    H247412   5.488   3.874   3.953  1.0500  0.7566  1.0100
 8641TIP3   OH247413   4.422   2.001   3.633 -0.1316 -0.1348  0.2233
 8641TIP3    H147414   4.491   1.939   3.658  0.4514  0.0767 -0.8038
 8641TIP3    H247415   4.431   2.073   3.695 -0.3580 -0.7322  0.9816
 8642TIP3   OH247416   3.842   5.536   0.753 -0.0672  0.2266  0.2493
 8642TIP3    H147417   3.799   5.464   0.799 -0.2195 -0.0644 -0.3335
 8642TIP3    H247418   3.911   5.494   0.702  1.9808  0.8554  2.3466
 8643TIP3   OH247419   0.617   5.110   3.940  0.4136  0.0872  0.0318
 8643TIP3    H147420   0.706   5.074   3.932  0.2116 -0.3932 -0.1071
 8643TIP3    H247421   0.627   5.203   3.923  0.3524 -0.4604 -3.7550
 8644TIP3   OH247422   6.269   0.432  12.966  0.1763  0.4651 -0.0760
 8644TIP3    H147423   6.305   0.462  13.049 -0.0517 -1.8228  0.9245
 8644TIP3    H247424   6.181   0.471  12.962 -0.4529 -0.6458  1.5925
 8645TIP3   OH247425   3.251   4.494   5.518 -0.2743  1.0312 -0.6609
 8645TIP3    H147426   3.189   4.460   5.583 -0.3396  0.0822 -1.1878
 8645TIP3    H247427   3.289   4.571   5.558 -1.3320  1.2602 -0.0633
 8646TIP3   OH247428   6.724   3.990   3.409  0.7565 -0.8591 -0.2509
 8646TIP3    H147429   6.717   3.990   3.505 -1.5579 -0.3093 -0.3455
 8646TIP3    H247430   6.709   4.082   3.384 -2.4509 -1.5203 -1.2291
 8647TIP3   OH247431   4.613   6.473  14.139 -0.1138 -0.3661 -0.1972
 8647TIP3    H147432   4.647   6.417  14.209 -1.0006 -0.1505  0.4123
 8647TIP3    H247433   4.682   6.471  14.072  0.6543 -0.7369  0.5813
 8648TIP3   OH247434   6.336   5.939   2.776  0.2882 -0.0237  0.4543
 8648TIP3    H147435   6.273   5.998   2.818  0.6270  0.1070  0.7843
 8648TIP3    H247436   6.304   5.851   2.798  0.5745  0.0426  1.1620
 8649TIP3   OH247437   1.368   1.069  14.555 -0.1184  0.6287  0.3036
 8649TIP3    H147438   1.349   1.158  14.525  0.3708  0.5444 -0.2764
 8649TIP3    H247439   1.405   1.025  14.478  3.4529  1.0942  1.5444
 8650TIP3   OH247440   6.037   3.382   6.746  0.1133 -0.0959 -0.0519
 8650TIP3    H147441   6.056   3.300   6.701 -0.2729  0.5139 -1.3959
 8650TIP3    H247442   6.113   3.397   6.802  0.7462 -0.7755 -0.7007
 8651TIP3   OH247443   2.579   2.025  16.089 -0.7673  0.1305  0.1803
 8651TIP3    H147444   2.627   1.988  16.163  0.4259 -0.5638 -0.8988
 8651TIP3    H247445   2.644   2.034  16.019 -1.3509  2.8809 -0.1302
 8652TIP3   OH247446   1.782   0.772   5.728  0.2251  0.0216 -0.6690
 8652TIP3    H147447   1.830   0.694   5.699 -1.4752 -0.9936 -0.9183
 8652TIP3    H247448   1.786   0.768   5.824  1.0862  0.2727 -0.6826
 8653TIP3   OH247449   2.310   5.286   2.779 -0.1993 -0.1242 -0.6959
 8653TIP3    H147450   2.236   5.272   2.837  2.3007 -1.2800  2.5193
 8653TIP3    H247451   2.342   5.197   2.760  1.5522  0.3674 -0.2292
 8654TIP3   OH247452   5.644   4.216   3.313  0.1996 -0.0722  0.5145
 8654TIP3    H147453   5.728   4.185   3.280  0.4989  2.2050 -1.1661
 8654TIP3    H247454   5.667   4.266   3.391  0.3932  0.2971  0.2272
 8655TIP3   OH247455   3.586   6.705   4.447 -0.5545  0.5964  0.2626
 8655TIP3    H147456   3.616   6.693   4.357 -0.5186 -0.1060  0.3582
 8655TIP3    H247457   3.637   6.641   4.498 -1.4458  0.1154  0.5877
 8656TIP3   OH247458   2.210   2.543   0.967 -0.1969  0.6748  0.2553
 8656TIP3    H147459   2.276   2.476   0.986  0.0260  0.9826  0.5821
 8656TIP3    H247460   2.157   2.505   0.897 -0.0309  0.1854  0.3876
 8657TIP3   OH247461   3.270   2.434  12.820  0.8932  0.1168  0.4325
 8657TIP3    H147462   3.290   2.454  12.911  1.3499 -2.5102  0.9632
 8657TIP3    H247463   3.325   2.359  12.798 -2.0171 -1.8879 -0.7368
 8658TIP3   OH247464   1.048   6.278   3.833  0.1011  0.9576  0.6763
 8658TIP3    H147465   1.011   6.190   3.845 -0.3149  0.6055 -2.2994
 8658TIP3    H247466   1.102   6.293   3.911 -0.9117 -1.3415  1.9204
 8659TIP3   OH247467   4.277   3.810  16.262  0.0439  0.2929  0.2061
 8659TIP3    H147468   4.214   3.794  16.191  0.2338  1.1846 -0.1802
 8659TIP3    H247469   4.222   3.830  16.338 -0.1647 -0.8685  0.3754
 8660TIP3   OH247470   2.088   2.566  13.150 -0.0981 -1.1113 -0.2058
 8660TIP3    H147471   2.154   2.579  13.218  1.7729 -0.3289 -2.0638
 8660TIP3    H247472   2.057   2.476  13.164  2.5992 -2.1490 -0.2704
 8661TIP3   OH247473   2.408   3.395   2.358 -0.0902  0.0795  0.0125
 8661TIP3    H147474   2.397   3.490   2.367 -2.3667  0.0208 -1.4459
 8661TIP3    H247475   2.401   3.361   2.447  0.8597  1.2503  0.5650
 8662TIP3   OH247476   1.996   5.126  15.754  0.3233 -0.0646 -0.6067
 8662TIP3    H147477   1.989   5.143  15.848  1.7136 -0.0549 -0.4775
 8662TIP3    H247478   1.973   5.034  15.745  1.4884 -0.4280 -0.0516
 8663TIP3   OH247479   3.777   2.196  11.787  0.1260  0.2078 -0.1919
 8663TIP3    H147480   3.847   2.131  11.779 -1.7150 -2.0708  0.8237
 8663TIP3    H247481   3.697   2.145  11.778 -1.4648  2.0489  2.2593
 8664TIP3   OH247482   4.156   3.795   4.190  0.0372 -0.6438 -0.1841
 8664TIP3    H147483   4.075   3.838   4.219  1.4069  2.2327 -0.2702
 8664TIP3    H247484   4.195   3.762   4.271  0.8121  1.8630  0.5774
 8665TIP3   OH247485   0.200   5.556  14.968  0.2285 -0.7204 -0.0281
 8665TIP3    H147486   0.225   5.473  15.009  0.0414 -1.5762 -1.5736
 8665TIP3    H247487   0.280   5.588  14.928  0.8599  1.0449  2.4297
 8666TIP3   OH247488   4.958   2.602  13.016 -0.2569  0.1808 -0.1607
 8666TIP3    H147489   4.956   2.603  12.920  0.8932 -0.8237 -0.2128
 8666TIP3    H247490   5.048   2.625  13.039 -0.3730 -0.1345  0.6603
 8667TIP3   OH247491   5.283   4.580  14.071  0.1027  0.3022 -0.7142
 8667TIP3    H147492   5.275   4.538  14.157 -0.9215  0.3907 -0.7562
 8667TIP3    H247493   5.193   4.590  14.041  0.4062  1.1389 -1.3813
 8668TIP3   OH247494   1.432   2.467  16.524 -0.3187 -0.2787  0.1348
 8668TIP3    H147495   1.527   2.469  16.525 -0.2743 -0.5317  2.1510
 8668TIP3    H247496   1.406   2.539  16.466  1.0815 -0.3651 -0.6290
 8669TIP3   OH247497   3.495   0.489  11.808 -0.4640 -0.0382  0.4368
 8669TIP3    H147498   3.461   0.567  11.851 -1.9747  0.2420 -1.1422
 8669TIP3    H247499   3.522   0.519  11.721 -0.1301 -1.0842  0.1559
 8670TIP3   OH247500   2.345   1.212  16.456 -0.3523 -0.3352  0.4867
 8670TIP3    H147501   2.424   1.207  16.403 -2.0075 -1.5124 -2.0626
 8670TIP3    H247502   2.347   1.132  16.509 -1.8287 -2.8221 -2.8379
 8671TIP3   OH247503   2.854   5.853   1.035  0.0467 -0.8546  0.2461
 8671TIP3    H147504   2.838   5.944   1.056  1.2753 -0.8912  1.5181
 8671TIP3    H247505   2.795   5.804   1.092 -0.6070 -0.8697 -0.4306
 8672TIP3   OH247506   4.422   1.720   5.972 -0.0086 -0.0984 -0.7467
 8672TIP3    H147507   4.493   1.684   5.919  0.0526  1.2730 -1.6785
 8672TIP3    H247508   4.450   1.709   6.062  1.4141  0.4152 -1.0967
 8673TIP3   OH247509   4.827   6.224   5.318 -0.1518 -0.0446  0.3410
 8673TIP3    H147510   4.733   6.241   5.318 -0.2357 -0.4796 -0.3675
 8673TIP3    H247511   4.863   6.281   5.250  0.2141  0.6684  1.1082
 8674TIP3   OH247512   3.637   0.817   3.741  0.2653 -0.5270  0.2901
 8674TIP3    H147513   3.680   0.890   3.786 -0.4188 -0.4769  0.8890
 8674TIP3    H247514   3.708   0.760   3.714  0.7251 -0.3383  1.0696
 8675TIP3   OH247515   4.865   1.340   1.871  0.3724  0.7273  0.7116
 8675TIP3    H147516   4.776   1.357   1.842  0.0540  0.7025  1.6456
 8675TIP3    H247517   4.903   1.284   1.803  0.1695  1.9372 -0.4405
 8676TIP3   OH247518   3.384   1.561   5.338  0.0804 -0.3248  0.0516
 8676TIP3    H147519   3.398   1.653   5.364 -1.0427 -0.5241  1.5257
 8676TIP3    H247520   3.458   1.541   5.281  0.7460  1.2835  0.2809
 8677TIP3   OH247521   5.245   1.014   5.504 -0.8032 -0.4157 -0.0081
 8677TIP3    H147522   5.162   1.057   5.482 -1.8483 -1.1738  2.1675
 8677TIP3    H247523   5.220   0.940   5.559  1.3456 -0.5217  0.9157
 8678TIP3   OH247524   6.273   0.084  15.853 -0.2480 -0.3450  0.1067
 8678TIP3    H147525   6.265   0.177  15.831  0.7230  0.9271  4.3428
 8678TIP3    H247526   6.352   0.056  15.807 -0.4904  0.8727 -1.1532
 8679TIP3   OH247527   1.860   6.690  16.445 -0.0816 -0.4861 -0.9663
 8679TIP3    H147528   1.856   6.778  16.483 -0.6970 -0.8594 -0.1235
 8679TIP3    H247529   1.786   6.644  16.484  1.7098 -2.1552  0.6830
 8680TIP3   OH247530   5.106   5.541  12.901 -0.5571 -0.2343 -0.0934
 8680TIP3    H147531   5.143   5.609  12.845 -0.3366  1.6353  2.1800
 8680TIP3    H247532   5.012   5.544  12.884 -0.5163  0.4374 -0.2222
 8681TIP3   OH247533   0.024   3.030  15.365 -0.3025  0.8612 -0.2963
 8681TIP3    H147534  -0.053   2.993  15.322  0.1246 -0.7395  0.2709
 8681TIP3    H247535   0.022   2.995  15.454  0.4821  1.7090  0.0757
 8682TIP3   OH247536   5.517   2.206   4.683 -0.0966  0.3148 -0.7643
 8682TIP3    H147537   5.492   2.176   4.596  0.4305 -0.6435 -0.5980
 8682TIP3    H247538   5.520   2.302   4.676  1.3073  0.2034 -2.1976
 8683TIP3   OH247539   6.806   0.245   4.147 -0.4120  0.9718  0.2084
 8683TIP3    H147540   6.885   0.264   4.096  1.7725 -0.6994  2.6277
 8683TIP3    H247541   6.761   0.176   4.097 -0.0651  1.5658 -0.9567
 8684TIP3   OH247542   6.006   2.353  12.560  0.1842 -0.0058  0.1455
 8684TIP3    H147543   6.066   2.294  12.605  1.5837  0.6108 -0.8313
 8684TIP3    H247544   6.008   2.323  12.469 -0.4764  0.4448 -0.0219
 8685TIP3   OH247545   5.515   4.211  13.644  0.6903 -0.1357 -0.3117
 8685TIP3    H147546   5.458   4.272  13.690  2.2857  1.9675 -0.9418
 8685TIP3    H247547   5.600   4.220  13.687  1.0216 -1.8348 -0.5242
 8686TIP3   OH247548   0.238   4.786   0.255  0.2808 -0.1382 -0.3901
 8686TIP3    H147549   0.221   4.725   0.184 -1.6561 -0.7467  0.5293
 8686TIP3    H247550   0.235   4.733   0.335 -0.0412  0.9042  0.3240
 8687TIP3   OH247551   1.095   3.180  12.250 -0.1333 -0.2430 -0.0546
 8687TIP3    H147552   1.058   3.268  12.258  0.1638  0.1795 -2.5587
 8687TIP3    H247553   1.161   3.176  12.320  0.1900  1.7270 -0.1727
 8688TIP3   OH247554   4.715   2.175   4.725 -0.1575 -0.0720 -0.5961
 8688TIP3    H147555   4.630   2.131   4.718 -1.0997  1.5591 -0.0247
 8688TIP3    H247556   4.697   2.252   4.780  1.8132  0.0361 -0.0421
 8689TIP3   OH247557   0.631   2.551  15.754  0.1571  0.2099 -0.0705
 8689TIP3    H147558   0.607   2.467  15.793  0.9586  0.2584  0.5622
 8689TIP3    H247559   0.551   2.581  15.710 -0.7097  0.0284  1.3273
 8690TIP3   OH247560   3.616   0.919   3.089 -0.1664 -0.6114 -0.3241
 8690TIP3    H147561   3.530   0.934   3.049 -0.0374 -0.2466 -0.4599
 8690TIP3    H247562   3.637   1.001   3.132 -0.6400 -1.2198  1.1405
 8691TIP3   OH247563   1.414   2.867  11.785  0.2083 -0.5303 -0.6702
 8691TIP3    H147564   1.336   2.868  11.841 -0.6298 -2.2929 -1.7102
 8691TIP3    H247565   1.391   2.808  11.714  2.6051 -1.3375 -0.8579
 8692TIP3   OH247566   0.509   6.481  11.546  0.0011 -0.0509 -0.0175
 8692TIP3    H147567   0.468   6.489  11.632  1.4675 -0.7036  0.7698
 8692TIP3    H247568   0.596   6.519  11.557  0.1605 -0.0103 -1.2638
 8693TIP3   OH247569   2.432   1.765   0.323 -0.5324  0.2950 -0.4264
 8693TIP3    H147570   2.424   1.797   0.413  0.8267  0.9958 -0.5275
 8693TIP3    H247571   2.377   1.824   0.272 -1.7301 -0.4257 -0.0131
 8694TIP3   OH247572   2.629   2.442   2.310 -0.0015  0.1507  0.2933
 8694TIP3    H147573   2.675   2.367   2.271 -0.7845 -0.2636  0.1434
 8694TIP3    H247574   2.618   2.418   2.402 -1.0252 -0.3202  0.0607
 8695TIP3   OH247575   0.423   3.632  12.417 -0.7719 -0.8123 -0.1732
 8695TIP3    H147576   0.516   3.633  12.396 -0.1070  0.7177  2.3539
 8695TIP3    H247577   0.416   3.570  12.490 -1.6645 -0.5427 -0.0185
 8696TIP3   OH247578   1.066   2.254   4.240  0.4900  0.0895 -0.0619
 8696TIP3    H147579   1.093   2.331   4.189 -0.8189  0.8526  0.3497
 8696TIP3    H247580   1.143   2.231   4.291  0.6538  1.7399  0.5248
 8697TIP3   OH247581   2.741   0.274  16.102  0.4135 -0.5297 -0.0059
 8697TIP3    H147582   2.750   0.179  16.112 -1.2352 -0.5889  1.3559
 8697TIP3    H247583   2.786   0.310  16.179 -1.4561 -0.3706  1.0533
 8698TIP3   OH247584   1.931   4.620   4.792  0.1583  0.4567 -0.0265
 8698TIP3    H147585   1.960   4.558   4.726  1.1641  1.3913 -0.4913
 8698TIP3    H247586   1.858   4.576   4.835  0.1564 -0.5999 -1.0481
 8699TIP3   OH247587   1.886   3.208  16.664 -0.5081 -0.2950  0.2260
 8699TIP3    H147588   1.914   3.295  16.635 -1.7152 -0.3632 -1.2885
 8699TIP3    H247589   1.846   3.169  16.586 -0.2691 -2.0949  0.9576
 8700TIP3   OH247590   6.652   6.639   5.960  0.1885 -0.2343 -0.6144
 8700TIP3    H147591   6.568   6.597   5.976  0.3939 -0.4505 -0.0827
 8700TIP3    H247592   6.663   6.636   5.864 -0.3984 -0.2064 -0.6850
 8701TIP3   OH247593   5.714   4.789   2.996 -0.2661 -0.7878 -0.0659
 8701TIP3    H147594   5.704   4.714   3.054 -1.5284 -1.4303 -1.0676
 8701TIP3    H247595   5.750   4.858   3.052 -1.8234 -1.2497  1.5939
 8702TIP3   OH247596   0.272   5.760  10.535 -0.3039  0.3241  0.1991
 8702TIP3    H147597   0.273   5.736  10.442  1.1979  3.6629 -0.8132
 8702TIP3    H247598   0.184   5.793  10.551 -0.8303 -1.0635  0.2260
 8703TIP3   OH247599   3.183   5.827  16.136 -0.2045 -0.2458 -0.0932
 8703TIP3    H147600   3.209   5.913  16.103  0.1946 -0.9349 -1.6644
 8703TIP3    H247601   3.264   5.776  16.137 -0.7411 -1.1649 -1.0190
 8704TIP3   OH247602   0.945   0.662   2.066 -0.0492  0.8089 -0.1583
 8704TIP3    H147603   1.027   0.694   2.105  0.4861  1.1863 -1.5407
 8704TIP3    H247604   0.974   0.598   2.000 -0.8405  1.2935 -0.9892
 8705TIP3   OH247605   3.639   3.797  13.097  0.7739  0.1625 -0.0027
 8705TIP3    H147606   3.632   3.801  13.001 -0.5737 -0.3513  0.0552
 8705TIP3    H247607   3.583   3.868  13.128  2.2845  1.2355  0.4197
 8706TIP3   OH247608   2.921   4.276  16.744 -0.1510 -0.4351 -0.2490
 8706TIP3    H147609   2.883   4.280  16.656 -2.6465 -3.2728  0.5377
 8706TIP3    H247610   2.956   4.187  16.750 -0.3372 -0.4066  1.7302
 8707TIP3   OH247611   5.648   3.375  14.626  0.0003 -0.1958 -0.4527
 8707TIP3    H147612   5.646   3.312  14.699 -0.3991  0.8986  0.5118
 8707TIP3    H247613   5.708   3.336  14.562  2.3216 -0.0840  1.5089
 8708TIP3   OH247614   0.391   6.109   3.488  0.9981  0.0496 -0.1055
 8708TIP3    H147615   0.374   6.106   3.394  0.6322 -0.7115 -0.0209
 8708TIP3    H247616   0.480   6.144   3.495  0.9846  0.2205 -0.7283
 8709TIP3   OH247617   4.910   5.645  13.478  0.1078 -0.0535  0.0401
 8709TIP3    H147618   4.845   5.603  13.534  2.0018 -2.9196  0.2997
 8709TIP3    H247619   4.859   5.696  13.416 -2.3707 -1.7212  0.5565
 8710TIP3   OH247620   3.210   0.410   3.032 -0.3458 -0.5483  0.3630
 8710TIP3    H147621   3.305   0.409   3.023 -0.4833 -0.7246 -1.4079
 8710TIP3    H247622   3.187   0.321   3.058 -0.1063 -0.8915 -0.5438
 8711TIP3   OH247623   1.404   1.506   1.524 -0.6928  0.5918 -0.6136
 8711TIP3    H147624   1.401   1.599   1.502 -0.9766  0.3278 -1.7912
 8711TIP3    H247625   1.371   1.462   1.445 -1.5230 -0.4564  0.2758
 8712TIP3   OH247626   0.135   3.655  12.478  0.4668  0.4787 -0.2645
 8712TIP3    H147627   0.196   3.725  12.455 -0.8984  1.5481 -0.8034
 8712TIP3    H247628   0.167   3.578  12.432  0.2973  1.5142 -2.2314
 8713TIP3   OH247629   3.179   6.813   1.206  0.0240 -0.2036 -0.1316
 8713TIP3    H147630   3.262   6.848   1.238  0.0982 -0.4937 -0.0088
 8713TIP3    H247631   3.186   6.819   1.111  1.4163 -2.9664 -0.2891
 8714TIP3   OH247632   4.037   1.654  13.635  0.0830 -0.1943 -0.0082
 8714TIP3    H147633   4.063   1.711  13.562  0.2477  1.2173  1.1023
 8714TIP3    H247634   4.118   1.642  13.685 -0.3194  0.0285  0.7095
 8715TIP3   OH247635   5.215   1.950   4.233 -0.1563  0.0126  0.5488
 8715TIP3    H147636   5.307   1.972   4.217 -0.2164 -0.3281 -0.3246
 8715TIP3    H247637   5.172   2.034   4.245  0.1309  0.2192  0.1545
 8716TIP3   OH247638   5.424   2.935   5.773 -0.0175  0.1066  0.7205
 8716TIP3    H147639   5.456   3.012   5.726 -2.1392 -0.0090 -1.1077
 8716TIP3    H247640   5.344   2.965   5.816 -1.7777 -1.3220 -1.3133
 8717TIP3   OH247641   2.607   6.817  13.390 -0.0281  0.4303  0.7553
 8717TIP3    H147642   2.558   6.832  13.310 -1.3695 -1.5109  1.1588
 8717TIP3    H247643   2.626   6.905  13.422  1.9168  1.3096 -2.4137
 8718TIP3   OH247644   0.446   0.780  17.262  0.1652 -0.0342 -0.5211
 8718TIP3    H147645   0.364   0.829  17.255 -1.2030 -1.7470  2.0771
 8718TIP3    H247646   0.507   0.841  17.303 -1.3478 -0.1896  2.1539
 8719TIP3   OH247647   1.517   5.161  13.757  0.2277  0.1196 -0.1641
 8719TIP3    H147648   1.558   5.225  13.699  0.7829 -0.6051 -0.5948
 8719TIP3    H247649   1.477   5.097  13.698  2.5940 -1.7943  0.1581
 8720TIP3   OH247650   1.220   1.172  11.659  0.5623  0.2579 -0.3736
 8720TIP3    H147651   1.143   1.120  11.681  1.1746 -0.2762  0.5551
 8720TIP3    H247652   1.286   1.146  11.723  0.7182  2.6176  0.5356
 8721TIP3   OH247653   2.287   2.865   5.842 -0.1547 -0.2329 -0.7928
 8721TIP3    H147654   2.265   2.914   5.921 -0.4261 -0.5544 -0.6682
 8721TIP3    H247655   2.254   2.918   5.770  0.1465  0.0895 -0.6971
 8722TIP3   OH247656   5.477   6.703  15.649 -0.1621 -0.0890 -0.0080
 8722TIP3    H147657   5.443   6.707  15.560 -1.7710  0.3736  0.5923
 8722TIP3    H247658   5.565   6.667  15.640  0.0225  0.7386 -1.8532
 8723TIP3   OH247659   2.911   5.559  11.338 -0.3380  0.2739  0.9363
 8723TIP3    H147660   2.871   5.588  11.256 -2.9839 -1.9607  1.3056
 8723TIP3    H247661   2.941   5.640  11.380 -1.7806  1.7966 -0.7974
 8724TIP3   OH247662   2.281   2.998  11.584  0.4662 -0.0691  0.0549
 8724TIP3    H147663   2.332   3.049  11.647  0.4014 -0.3101  0.3042
 8724TIP3    H247664   2.341   2.983  11.511  1.5773 -2.3943  1.3510
 8725TIP3   OH247665   1.259   5.036   4.231  0.0892  0.2857  0.2189
 8725TIP3    H147666   1.350   5.016   4.254 -0.0988  0.2240  0.9282
 8725TIP3    H247667   1.224   5.080   4.308 -0.9763 -1.1906  0.6152
 8726TIP3   OH247668   6.785   5.428  11.354  0.0723  0.2107 -0.0427
 8726TIP3    H147669   6.779   5.510  11.403  1.7869  0.3447  0.0238
 8726TIP3    H247670   6.836   5.451  11.276  1.5163 -0.9648  0.5036
 8727TIP3   OH247671   4.114   0.739  15.666  0.0649  0.0671  0.1212
 8727TIP3    H147672   4.080   0.653  15.692  3.3223 -0.8702  1.7919
 8727TIP3    H247673   4.157   0.723  15.583 -0.8797  0.5703 -0.4870
 8728TIP3   OH247674   0.290   1.679  14.980 -0.1255 -0.0724 -0.2125
 8728TIP3    H147675   0.338   1.607  14.938 -0.7910 -0.9060  0.4309
 8728TIP3    H247676   0.202   1.673  14.944 -1.0716 -1.5621  2.0945
 8729TIP3   OH247677   0.665   4.184  14.262  0.0407 -0.0612 -0.2744
 8729TIP3    H147678   0.701   4.115  14.318  0.1389  1.1101  1.1824
 8729TIP3    H247679   0.678   4.153  14.173  0.2575 -1.8248  0.3401
 8730TIP3   OH247680   2.158   4.834  12.262  0.2729 -0.3312 -0.2039
 8730TIP3    H147681   2.139   4.782  12.184  0.8593 -2.6095  1.0551
 8730TIP3    H247682   2.167   4.923  12.231 -1.2140 -0.8976 -2.4644
 8731TIP3   OH247683   1.209   3.066   1.917 -0.2759 -1.1946  0.0425
 8731TIP3    H147684   1.224   3.091   2.008 -0.0625 -0.8000 -0.0976
 8731TIP3    H247685   1.169   2.980   1.922 -1.0436 -0.8170  0.5397
 8732TIP3   OH247686   0.408   1.934  16.094 -0.6186 -0.2253 -0.1587
 8732TIP3    H147687   0.340   1.968  16.152  0.2262 -1.9422  2.0091
 8732TIP3    H247688   0.481   1.995  16.102 -0.3784 -0.6423  0.9082
 8733TIP3   OH247689   6.127   2.609   2.931  0.1483  0.7588  0.1640
 8733TIP3    H147690   6.054   2.546   2.931 -0.1943  1.1355  1.0578
 8733TIP3    H247691   6.107   2.668   2.858  0.3099  0.0258 -0.4855
 8734TIP3   OH247692   4.256   5.700  14.625  0.1167  0.4949  0.0727
 8734TIP3    H147693   4.189   5.636  14.649 -2.0466  2.9219  0.9232
 8734TIP3    H247694   4.330   5.680  14.682 -0.8902 -0.5789  1.0534
 8735TIP3   OH247695   4.854   3.094  15.701 -0.0364  0.2648 -0.0427
 8735TIP3    H147696   4.771   3.118  15.741  0.1240 -0.2442  0.6205
 8735TIP3    H247697   4.833   3.021  15.643  0.0372 -0.2535  0.5739
 8736TIP3   OH247698   2.867   5.930   4.256  0.3231 -0.1373  0.7237
 8736TIP3    H147699   2.843   5.962   4.169 -1.8758 -0.6043  1.1193
 8736TIP3    H247700   2.786   5.930   4.306  1.3447 -0.8413  2.5047
 8737TIP3   OH247701   4.948   1.247  12.116  0.0289  0.3035  0.4825
 8737TIP3    H147702   5.000   1.324  12.135 -0.8084  1.3542 -1.3039
 8737TIP3    H247703   4.992   1.204  12.043 -0.4505  0.0342  0.3436
 8738TIP3   OH247704   5.064   2.609  11.893 -0.0946  0.3760 -0.2786
 8738TIP3    H147705   5.024   2.523  11.902  2.9421 -1.2589 -1.0024
 8738TIP3    H247706   4.997   2.664  11.853 -1.8086 -1.8944 -0.6578
 8739TIP3   OH247707   2.839   2.609   4.471 -0.4020  0.2961 -0.6816
 8739TIP3    H147708   2.865   2.534   4.525  0.7260  0.4687 -0.9517
 8739TIP3    H247709   2.920   2.635   4.427 -0.6527  2.0075 -0.1947
 8740TIP3   OH247710   1.950   5.584  16.272 -0.1588 -0.1929  0.4894
 8740TIP3    H147711   2.019   5.635  16.228 -0.9720  0.4122 -0.1213
 8740TIP3    H247712   1.873   5.640  16.266 -0.7400 -0.9299  1.0374
 8741TIP3   OH247713   4.209   0.942   4.196 -0.7126 -0.3241  0.5372
 8741TIP3    H147714   4.198   0.847   4.206  1.7565 -0.5573  1.7945
 8741TIP3    H247715   4.189   0.977   4.283  1.2377 -0.0603  0.9160
 8742TIP3   OH247716   4.074   4.448  11.315 -0.3127  0.0836  1.2259
 8742TIP3    H147717   4.045   4.360  11.289 -0.0168  0.2814  0.1796
 8742TIP3    H247718   4.090   4.441  11.409 -1.5429 -0.6363  1.4132
 8743TIP3   OH247719   0.814   2.391   1.364 -0.2851 -0.4411  0.5957
 8743TIP3    H147720   0.754   2.417   1.434 -1.2236 -0.7421 -0.0901
 8743TIP3    H247721   0.880   2.461   1.362  0.0486 -0.6679  2.0986
 8744TIP3   OH247722   3.762   5.696   2.133 -0.0111  0.3291  0.1610
 8744TIP3    H147723   3.757   5.655   2.220  0.0775 -1.0820 -0.4729
 8744TIP3    H247724   3.830   5.647   2.088 -0.0935  1.0201 -0.7350
 8745TIP3   OH247725   6.333   0.917   4.793  0.2436 -0.3428 -0.1352
 8745TIP3    H147726   6.273   0.967   4.849  1.2895 -0.1416  0.8503
 8745TIP3    H247727   6.287   0.834   4.777 -0.5363  0.0341  0.1179
 8746TIP3   OH247728   1.082   3.907  12.079  0.3663 -0.7836  0.5520
 8746TIP3    H147729   1.077   3.824  12.033  1.2442 -1.3207  1.3853
 8746TIP3    H247730   1.091   3.973  12.009  0.6404 -1.4757 -0.0797
 8747TIP3   OH247731   2.284   4.684   3.608  0.5424 -0.1163 -0.2680
 8747TIP3    H147732   2.221   4.618   3.580  1.1922 -0.7149 -0.3391
 8747TIP3    H247733   2.284   4.677   3.704 -0.3639  0.7075 -0.1887
 8748TIP3   OH247734   3.438   6.729   0.619  0.5083  0.3654 -0.3206
 8748TIP3    H147735   3.465   6.733   0.711  0.9380  0.3808 -0.4417
 8748TIP3    H247736   3.507   6.778   0.573 -1.0396  2.6651 -0.3645
 8749TIP3   OH247737   2.861   2.989  15.885 -0.6634 -0.0656 -0.3232
 8749TIP3    H147738   2.838   3.034  15.966  0.1121  0.5274 -0.4225
 8749TIP3    H247739   2.858   2.896  15.907 -0.4142  0.0944  0.4008
 8750TIP3   OH247740   5.312   6.033  11.014 -0.5506 -0.0304 -0.4829
 8750TIP3    H147741   5.305   6.081  10.931  0.2193 -2.6881 -2.2018
 8750TIP3    H247742   5.222   6.012  11.038 -0.8434  1.5187 -0.0929
 8751TIP3   OH247743   3.068   2.727   2.024  0.1456  0.0158  0.3090
 8751TIP3    H147744   3.122   2.766   1.956 -0.5709  1.1922  0.3874
 8751TIP3    H247745   3.014   2.799   2.056  0.9442 -0.3103  2.6067
 8752TIP3   OH247746   2.849   4.116   4.768 -0.0683  0.4467  0.7765
 8752TIP3    H147747   2.935   4.074   4.769  0.4389  1.4786  1.2397
 8752TIP3    H247748   2.804   4.076   4.693  1.1795  0.6288 -0.0946
 8753TIP3   OH247749   5.035   5.254   1.609  0.0296 -0.1590  0.0816
 8753TIP3    H147750   5.123   5.286   1.631  0.9671 -2.2170 -0.4695
 8753TIP3    H247751   4.978   5.292   1.677  1.6462 -0.3663  1.6163
 8754TIP3   OH247752   0.903   1.686   2.378 -0.1506 -0.3923 -0.0296
 8754TIP3    H147753   0.815   1.653   2.395 -0.6382  0.9561  0.1774
 8754TIP3    H247754   0.892   1.750   2.307  0.5997  0.0260  0.2121
 8755TIP3   OH247755   1.413   0.106  16.199  0.1084  0.1351 -0.2387
 8755TIP3    H147756   1.424   0.159  16.120  1.4952 -1.3761 -1.1266
 8755TIP3    H247757   1.381   0.021  16.167 -1.0259  0.0445  1.0242
 8756TIP3   OH247758   2.067   2.604  10.806 -0.5130  0.0667 -0.2131
 8756TIP3    H147759   2.099   2.539  10.743 -0.7003 -0.5161  0.2899
 8756TIP3    H247760   1.988   2.565  10.843 -2.0695  1.6239 -1.6720
 8757TIP3   OH247761   3.754   4.524  11.802  0.0142 -0.2883  0.4144
 8757TIP3    H147762   3.680   4.493  11.750 -0.7249  1.6584  0.2309
 8757TIP3    H247763   3.819   4.551  11.737 -1.2227  2.9119  0.3118
 8758TIP3   OH247764   3.326   4.250   6.112  0.5391  0.0077  0.3889
 8758TIP3    H147765   3.335   4.271   6.205  0.7838 -0.0705  0.3835
 8758TIP3    H247766   3.243   4.203   6.106 -0.0189  0.9526  0.4039
 8759TIP3   OH247767   2.288   5.376   4.608 -0.2281 -0.1236 -0.7179
 8759TIP3    H147768   2.200   5.406   4.631 -0.3463 -1.0671  0.1604
 8759TIP3    H247769   2.304   5.302   4.667  1.3258  0.2892 -0.5736
 8760TIP3   OH247770   3.740   2.731  14.099 -0.0681 -0.0104  0.1514
 8760TIP3    H147771   3.827   2.728  14.061  1.5821  2.9566  3.1597
 8760TIP3    H247772   3.685   2.773  14.032  0.9707 -1.0301 -1.4033
 8761TIP3   OH247773   1.641   2.662   0.450 -0.6243  0.4110  0.9713
 8761TIP3    H147774   1.598   2.695   0.529 -1.1763 -1.3432  1.4386
 8761TIP3    H247775   1.592   2.703   0.378 -1.3999  0.4763  1.5251
 8762TIP3   OH247776   1.954   3.631   0.676 -0.2521 -0.0671 -0.5292
 8762TIP3    H147777   2.047   3.656   0.678 -0.0305 -0.9035  0.0935
 8762TIP3    H247778   1.952   3.551   0.625 -0.2935 -1.2727  1.2712
 8763TIP3   OH247779   1.090   0.015   4.389  0.2323 -0.9383 -0.3285
 8763TIP3    H147780   0.999  -0.009   4.407 -0.1672  0.7943  0.1775
 8763TIP3    H247781   1.090   0.111   4.387  1.7653 -0.9083 -1.8801
 8764TIP3   OH247782   0.120   1.426  17.138 -0.7295  0.0515 -0.5402
 8764TIP3    H147783   0.134   1.335  17.167  1.0433 -0.3019 -2.2734
 8764TIP3    H247784   0.149   1.479  17.212 -1.1203 -0.7748  0.2327
 8765TIP3   OH247785   3.065   4.029  11.010  0.4551  0.1178 -0.3237
 8765TIP3    H147786   3.029   3.943  11.033  0.6263  0.1295 -0.0162
 8765TIP3    H247787   3.031   4.045  10.922  2.3547 -1.3577 -1.4103
 8766TIP3   OH247788   4.114   2.572  11.971  0.1690 -0.1960  0.0502
 8766TIP3    H147789   4.082   2.483  11.983  0.5632 -0.5189 -1.1696
 8766TIP3    H247790   4.112   2.587  11.877  0.8091  0.8206  0.1707
 8767TIP3   OH247791   5.311   0.427  16.363 -0.5604 -0.3265 -0.1946
 8767TIP3    H147792   5.270   0.361  16.307  0.8266 -0.8256 -0.6731
 8767TIP3    H247793   5.402   0.399  16.370  0.0972  1.5890 -0.4676
 8768TIP3   OH247794   0.699   6.699   4.610  0.3858  0.1359 -0.2206
 8768TIP3    H147795   0.675   6.691   4.518 -0.9637 -3.1288  0.2905
 8768TIP3    H247796   0.617   6.683   4.658  1.4780 -0.4302  1.5456
 8769TIP3   OH247797   0.470   3.364  11.898 -0.1213  0.1220  0.4875
 8769TIP3    H147798   0.415   3.377  11.821  0.7941 -0.4033 -0.2838
 8769TIP3    H247799   0.423   3.407  11.970 -0.7742  1.0175 -0.4548
 8770TIP3   OH247800   3.018   2.973   5.926 -0.1058  0.1524  0.7736
 8770TIP3    H147801   2.983   3.047   5.975 -2.9119  0.3492 -1.3015
 8770TIP3    H247802   2.967   2.898   5.958 -1.0621  0.0759 -0.8216
 8771TIP3   OH247803   5.374   1.590  16.371  0.1133 -0.1443 -0.3887
 8771TIP3    H147804   5.431   1.521  16.406  1.0382  0.5539 -0.4829
 8771TIP3    H247805   5.303   1.595  16.434  1.2927  0.4630  0.9698
 8772TIP3   OH247806   3.312   3.445  14.735 -0.1885  0.3225  0.6117
 8772TIP3    H147807   3.274   3.358  14.744 -0.8392  0.4411 -0.6865
 8772TIP3    H247808   3.367   3.456  14.813 -0.9595 -0.8014  1.3429
 8773TIP3   OH247809   5.998   1.329  11.705 -0.3867 -0.3743 -0.0875
 8773TIP3    H147810   5.991   1.425  11.708 -0.2906 -0.2817 -1.8881
 8773TIP3    H247811   5.948   1.304  11.627 -1.1802 -1.8914  0.8596
 8774TIP3   OH247812   2.799   4.288   3.187 -0.4549  0.1422 -0.4512
 8774TIP3    H147813   2.859   4.269   3.115 -1.7172 -1.5162 -1.1249
 8774TIP3    H247814   2.838   4.364   3.231  2.1150 -0.8208 -0.8591
 8775TIP3   OH247815   3.126   6.032   0.686 -0.0332  0.2468  0.2728
 8775TIP3    H147816   3.064   6.101   0.710 -1.2731  0.2166 -2.4875
 8775TIP3    H247817   3.125   5.972   0.760 -3.8033 -0.0589  0.1465
 8776TIP3   OH247818   6.186   5.452  12.709 -0.5443  0.2833 -0.2405
 8776TIP3    H147819   6.107   5.475  12.758 -0.3941  1.4605 -0.5244
 8776TIP3    H247820   6.257   5.497  12.755 -0.1514 -0.0680 -0.4915
 8777TIP3   OH247821   2.989   6.458  16.228 -0.4363  0.0827  0.4732
 8777TIP3    H147822   3.048   6.466  16.303 -1.2276 -1.4486  1.3179
 8777TIP3    H247823   2.920   6.400  16.259 -3.0744  2.6725 -0.0517
 8778TIP3   OH247824   6.313   3.350   3.123  0.3019 -0.3076 -0.1215
 8778TIP3    H147825   6.342   3.260   3.139  2.7750  0.6675  1.2402
 8778TIP3    H247826   6.273   3.378   3.205  0.3370  0.1488 -0.2563
 8779TIP3   OH247827   2.797   2.765   0.708  0.5253 -0.5720 -0.6127
 8779TIP3    H147828   2.873   2.812   0.741 -0.5545  0.1853  0.8693
 8779TIP3    H247829   2.826   2.674   0.703  1.2307 -0.4488  0.8880
 8780TIP3   OH247830   0.653   4.708   5.329 -0.0034  0.3895 -0.1949
 8780TIP3    H147831   0.711   4.657   5.385  0.6295 -0.3263 -1.4572
 8780TIP3    H247832   0.703   4.787   5.307 -0.1886  0.5950  0.1210
 8781TIP3   OH247833   5.370   5.997   4.126 -0.0854 -0.4206  0.0545
 8781TIP3    H147834   5.401   5.954   4.206 -0.4454  0.3833  0.6385
 8781TIP3    H247835   5.313   6.067   4.157 -0.2665 -0.1257 -0.9172
 8782TIP3   OH247836   4.337   2.978   3.854  0.2392  0.4483  0.9537
 8782TIP3    H147837   4.272   2.963   3.922 -1.3121 -1.3460 -0.8077
 8782TIP3    H247838   4.302   3.050   3.802 -1.2532 -1.4738 -0.8859
 8783TIP3   OH247839   2.691   2.209  12.144 -0.3162 -0.5041  0.4394
 8783TIP3    H147840   2.659   2.156  12.071 -2.4994  1.0114  0.2234
 8783TIP3    H247841   2.628   2.194  12.214 -0.3061  0.8726  0.7681
 8784TIP3   OH247842   4.843   3.531   0.203 -0.3004  0.2230  0.3381
 8784TIP3    H147843   4.817   3.534   0.295 -2.8267 -2.6655 -0.1360
 8784TIP3    H247844   4.936   3.507   0.205 -0.5245 -0.6393  2.1275
 8785TIP3   OH247845   4.299   3.528  16.015  0.2137 -0.1213 -0.1373
 8785TIP3    H147846   4.283   3.435  15.998  2.0625 -0.3849 -0.6253
 8785TIP3    H247847   4.336   3.530  16.103 -0.3127  0.2085  0.0759
 8786TIP3   OH247848   6.520   0.799   4.428  0.4531 -0.6500  0.0912
 8786TIP3    H147849   6.594   0.844   4.386 -0.0175  0.3247  0.2696
 8786TIP3    H247850   6.560   0.731   4.482  1.1640 -0.7288 -0.5197
 8787TIP3   OH247851   1.885   0.996  13.019 -0.0853 -0.5031 -0.2791
 8787TIP3    H147852   1.843   0.916  13.051 -0.8188  0.6630  1.8594
 8787TIP3    H247853   1.813   1.045  12.978 -0.0900 -0.0659  0.2367
 8788TIP3   OH247854   3.817   2.960  11.623  0.0793 -0.2052 -0.3787
 8788TIP3    H147855   3.768   2.936  11.545 -0.0439 -0.8879 -0.1027
 8788TIP3    H247856   3.798   2.890  11.686 -1.3997  1.3182  0.9720
 8789TIP3   OH247857   2.553   5.410   0.599 -0.0585  0.2150 -0.6304
 8789TIP3    H147858   2.541   5.384   0.690  2.1688  1.3598  0.0807
 8789TIP3    H247859   2.465   5.416   0.563 -1.0404  0.4542  1.6642
 8790TIP3   OH247860   1.366   5.858  12.507 -0.0811 -0.2405 -0.3400
 8790TIP3    H147861   1.379   5.834  12.599 -1.6198  0.9815  0.2378
 8790TIP3    H247862   1.423   5.933  12.493 -0.3340 -0.0220 -0.1961
 8791TIP3   OH247863   6.643   6.517  14.220 -0.7815  0.4099 -0.0916
 8791TIP3    H147864   6.627   6.466  14.140  0.2899  0.2266 -0.1994
 8791TIP3    H247865   6.695   6.592  14.190 -1.0820  0.7857  0.3122
 8792TIP3   OH247866   1.391   1.639   0.684 -0.1920  0.6091  0.1484
 8792TIP3    H147867   1.336   1.702   0.729  1.0489  1.7570  0.1342
 8792TIP3    H247868   1.330   1.575   0.647 -1.6063  2.3696 -0.7252
 8793TIP3   OH247869   1.957   3.366   5.451  0.2320  0.4487  0.0891
 8793TIP3    H147870   2.036   3.337   5.405  0.3626 -0.8578  1.0577
 8793TIP3    H247871   1.908   3.285   5.468 -1.0544  1.1727  0.0044
 8794TIP3   OH247872   2.231   6.594   6.119 -0.2858 -0.1884 -0.2434
 8794TIP3    H147873   2.146   6.594   6.162 -0.7926 -0.9059 -1.1917
 8794TIP3    H247874   2.215   6.553   6.034  1.2600 -1.6090  0.0870
 8795TIP3   OH247875   0.769   1.079  11.227  1.1049  0.2596 -0.1637
 8795TIP3    H147876   0.844   1.028  11.258  1.6145  0.6485 -0.7372
 8795TIP3    H247877   0.773   1.161  11.277  0.7055  0.0336  0.2415
 8796TIP3   OH247878   3.524   5.843   4.023  0.1881  0.1698 -0.3287
 8796TIP3    H147879   3.434   5.818   4.043  0.1986  1.0883  0.9400
 8796TIP3    H247880   3.542   5.800   3.939 -1.0455 -0.9370 -0.0680
 8797TIP3   OH247881   4.654   4.304  15.996 -0.3462 -0.9276  0.4052
 8797TIP3    H147882   4.663   4.289  16.090  0.7709 -0.3349  0.4089
 8797TIP3    H247883   4.609   4.226  15.963 -1.9826 -0.5336  1.6226
 8798TIP3   OH247884   5.364   2.395   3.746  0.0370 -0.1885 -0.7780
 8798TIP3    H147885   5.363   2.325   3.681  2.3835 -0.2149 -0.8475
 8798TIP3    H247886   5.424   2.365   3.813 -0.0175  1.1449 -0.1000
 8799TIP3   OH247887   1.325   6.118   1.447  0.3066  0.7427 -0.0413
 8799TIP3    H147888   1.314   6.051   1.379  0.5823  1.1427 -0.4924
 8799TIP3    H247889   1.416   6.109   1.474  0.1647  0.5065  0.3662
 8800TIP3   OH247890   1.635   1.616   0.499 -0.1785 -0.3956  0.5260
 8800TIP3    H147891   1.678   1.701   0.511 -0.1574 -0.4898  1.1107
 8800TIP3    H247892   1.548   1.627   0.537 -0.0965 -0.7056  0.8036
 8801TIP3   OH247893   3.449   2.552  13.346 -0.4509  0.1950 -0.1040
 8801TIP3    H147894   3.411   2.549  13.434  0.5853  0.2687  0.3633
 8801TIP3    H247895   3.537   2.515  13.357 -0.1534  0.6037 -1.0289
 8802TIP3   OH247896   0.774   2.035   0.042  0.5958  0.0381 -0.2740
 8802TIP3    H147897   0.793   1.943   0.056  0.6719  0.0192 -0.4938
 8802TIP3    H247898   0.820   2.081   0.112  1.0513 -0.0451 -0.5147
 8803TIP3   OH247899   2.494   0.348   4.481  0.7506  0.6618  0.0676
 8803TIP3    H147900   2.546   0.318   4.407 -1.0372  2.5188 -2.1193
 8803TIP3    H247901   2.527   0.436   4.500  2.3058 -0.3741  2.7298
 8804TIP3   OH247902   4.144   4.652  16.840  0.1491  0.2385 -0.2275
 8804TIP3    H147903   4.140   4.627  16.747 -0.2239 -1.6784  0.2623
 8804TIP3    H247904   4.183   4.739  16.839  0.1407  0.2818 -2.1871
 8805TIP3   OH247905   2.506   2.670   3.516  0.0922 -0.2430 -0.0314
 8805TIP3    H147906   2.537   2.589   3.557 -1.3292 -0.4894  0.6334
 8805TIP3    H247907   2.417   2.681   3.550 -0.3138  0.7516 -1.3448
 8806TIP3   OH247908   1.907   1.355   3.187 -0.3183 -0.5914  0.1986
 8806TIP3    H147909   1.901   1.415   3.113 -0.1652 -2.7009 -1.6221
 8806TIP3    H247910   1.878   1.407   3.262 -1.3007  1.3876 -1.4475
 8807TIP3   OH247911   4.273   6.360   1.562  0.2141 -0.3008 -0.2243
 8807TIP3    H147912   4.280   6.415   1.640 -0.3843 -0.9522  0.3054
 8807TIP3    H247913   4.309   6.275   1.589  2.0789  0.0994 -1.3405
 8808TIP3   OH247914   0.126   3.028   2.781 -0.3386  0.6171  0.2003
 8808TIP3    H147915   0.110   3.117   2.811  0.5451  0.8647 -0.0640
 8808TIP3    H247916   0.111   3.031   2.687 -0.3908  0.4616  0.2028
 8809TIP3   OH247917   4.356   3.904  14.042  0.1732  0.0785 -0.1598
 8809TIP3    H147918   4.291   3.974  14.039 -0.6994 -0.7350 -1.1540
 8809TIP3    H247919   4.438   3.945  14.013  0.2992  1.2815  1.7835
 8810TIP3   OH247920   0.619   1.438  14.099  0.4579  0.0059 -0.0348
 8810TIP3    H147921   0.539   1.489  14.116  0.2302 -0.7313  1.2498
 8810TIP3    H247922   0.644   1.461  14.010 -0.1095  1.7225  0.2122
 8811TIP3   OH247923   5.423   5.120  16.745  0.6129  0.1454  0.5803
 8811TIP3    H147924   5.373   5.201  16.757  0.8053  0.4900 -0.7419
 8811TIP3    H247925   5.421   5.105  16.650  2.8359  0.0707  0.4918
 8812TIP3   OH247926   1.914   5.277  11.370  0.0373  0.1816 -0.0364
 8812TIP3    H147927   1.977   5.261  11.440  0.0258 -0.8024 -0.2287
 8812TIP3    H247928   1.868   5.193  11.360 -2.0593  1.1537  0.8273
 8813TIP3   OH247929   1.368   1.538  11.402 -0.1644 -0.6343 -0.2865
 8813TIP3    H147930   1.432   1.485  11.353 -1.1739 -0.8566 -1.4253
 8813TIP3    H247931   1.421   1.605  11.444  0.9348 -1.3900 -0.3924
 8814TIP3   OH247932   4.153   5.236   2.909  0.6902 -0.0395 -0.0481
 8814TIP3    H147933   4.098   5.223   2.986  0.7050  0.4601  0.0483
 8814TIP3    H247934   4.094   5.227   2.834  0.8371 -1.4424 -0.0303
 8815TIP3   OH247935   1.218   1.449  11.116  0.0781  0.3100  0.1497
 8815TIP3    H147936   1.126   1.472  11.106 -0.2742 -1.5327 -1.6230
 8815TIP3    H247937   1.232   1.442  11.210 -2.6649 -3.0789  0.4705
 8816TIP3   OH247938   1.893   1.320   6.034  0.3201 -0.0356 -0.0740
 8816TIP3    H147939   1.820   1.381   6.045 -1.3199 -1.7140 -0.9958
 8816TIP3    H247940   1.893   1.267   6.113  2.5718  1.8609  1.3242
 8817TIP3   OH247941   2.684   6.020  15.433  0.2500  0.2879 -0.1924
 8817TIP3    H147942   2.777   5.995  15.426  1.0692  3.0474 -0.3823
 8817TIP3    H247943   2.686   6.103  15.481 -2.2274 -0.0005  0.5003
 8818TIP3   OH247944   1.415   4.615  15.539  0.4475 -0.2226 -0.2766
 8818TIP3    H147945   1.443   4.539  15.590  0.6420  0.2650  0.3722
 8818TIP3    H247946   1.326   4.633  15.569  0.5474  0.0401 -0.1219
 8819TIP3   OH247947   4.546   3.579  13.371  0.0069 -0.0703 -0.0031
 8819TIP3    H147948   4.551   3.634  13.292  0.3194 -0.4381 -0.2442
 8819TIP3    H247949   4.626   3.601  13.419 -0.2221  0.2106  0.2505
 8820TIP3   OH247950   4.720   4.702   2.384  0.6804 -0.3229 -0.4385
 8820TIP3    H147951   4.776   4.780   2.392  1.6732 -1.0235 -0.3323
 8820TIP3    H247952   4.664   4.721   2.309 -1.9441  2.1909  1.9481
 8821TIP3   OH247953   1.698   1.819  12.841 -0.7985 -0.1592 -0.4480
 8821TIP3    H147954   1.774   1.792  12.892 -1.6663  1.3633  1.8219
 8821TIP3    H247955   1.733   1.880  12.777 -0.0387  0.4160  0.4751
 8822TIP3   OH247956   3.091   4.198  12.677  0.2283 -0.5838 -0.6272
 8822TIP3    H147957   3.148   4.266  12.714  0.8168 -0.1753 -2.2120
 8822TIP3    H247958   3.147   4.148  12.618 -0.6722 -1.2086 -0.9779
 8823TIP3   OH247959   4.331   2.473  13.532  0.1937 -0.8106 -0.5162
 8823TIP3    H147960   4.363   2.509  13.450 -0.4397  0.5582 -0.1970
 8823TIP3    H247961   4.246   2.434  13.511  0.5343 -1.4587 -0.7136
 8824TIP3   OH247962   3.399   3.068   5.830 -0.4521  0.2341  0.2495
 8824TIP3    H147963   3.465   3.046   5.764 -1.7288 -3.3936 -0.0319
 8824TIP3    H247964   3.425   3.018   5.907 -0.3916  2.4467  1.7701
 8825TIP3   OH247965   0.635   3.529  13.654  0.4482  0.6227  0.3542
 8825TIP3    H147966   0.695   3.550  13.582 -0.4630  1.2089 -0.2588
 8825TIP3    H247967   0.685   3.547  13.733  0.4840  2.9668 -0.1432
 8826TIP3   OH247968   0.291   5.237   3.013 -0.1291 -0.1854 -0.3214
 8826TIP3    H147969   0.207   5.259   2.973 -1.9926 -0.9027  2.8673
 8826TIP3    H247970   0.345   5.207   2.940 -2.6784  0.0886 -2.4718
 8827TIP3   OH247971   1.992   5.662   3.532  0.8083 -0.2046  0.0203
 8827TIP3    H147972   1.926   5.644   3.599 -0.2669 -0.2305 -1.0053
 8827TIP3    H247973   2.021   5.751   3.549  0.4177 -0.1508  0.4207
 8828TIP3   OH247974   6.141   3.309  14.535 -0.3846  0.0603 -0.3519
 8828TIP3    H147975   6.212   3.261  14.578 -1.9845 -2.5492 -0.3965
 8828TIP3    H247976   6.127   3.386  14.590  0.8630 -0.6456  1.0171
 8829TIP3   OH247977   0.715   0.018  17.047  0.3925  0.4254  0.6988
 8829TIP3    H147978   0.688   0.091  16.991 -0.3958 -1.1297 -1.0797
 8829TIP3    H247979   0.789   0.051  17.096  0.3189  2.2854 -0.3639
 8830TIP3   OH247980   2.175   1.023  14.332  0.5830  0.3582  0.3909
 8830TIP3    H147981   2.118   0.977  14.393 -1.6554  1.6283 -0.5793
 8830TIP3    H247982   2.221   1.087  14.386  1.9843 -1.4004  1.3680
 8831TIP3   OH247983   3.320   3.032  13.214  0.1260 -0.4413 -0.0870
 8831TIP3    H147984   3.318   2.990  13.300 -2.5558  2.6783  1.5572
 8831TIP3    H247985   3.315   3.125  13.232 -0.7573  0.3414 -3.6351
 8832TIP3   OH247986   5.994   4.272  12.311 -0.9235  0.1322 -0.3624
 8832TIP3    H147987   6.045   4.303  12.385 -1.0488 -1.1965  0.3070
 8832TIP3    H247988   6.055   4.274  12.237 -0.1451 -0.5820  0.2375
 8833TIP3   OH247989   4.995   6.750   3.614  0.1864 -0.5576 -0.2147
 8833TIP3    H147990   4.901   6.750   3.634  0.3183 -0.8599  0.4669
 8833TIP3    H247991   5.028   6.831   3.653 -0.2044  0.8839 -2.7028
 8834TIP3   OH247992   2.142   5.913  11.236  0.0003  0.3585 -0.5019
 8834TIP3    H147993   2.097   5.980  11.183  1.8940 -0.2000 -3.0469
 8834TIP3    H247994   2.124   5.831  11.190  1.9369 -0.1214 -0.4807
 8835TIP3   OH247995   1.761   5.450   4.031  0.2311  0.2187 -0.2736
 8835TIP3    H147996   1.821   5.380   4.056 -0.5016 -0.0821  0.6919
 8835TIP3    H247997   1.674   5.410   4.035 -0.2896  1.3886  1.2322
 8836TIP3   OH247998   5.434   1.322  14.747  0.0432  0.2409  0.0307
 8836TIP3    H147999   5.360   1.329  14.808  0.0649  1.3570 -0.0359
 8836TIP3    H248000   5.394   1.311  14.661  0.0259 -2.6532  0.3332
 8837TIP3   OH248001   6.149   1.470   4.637 -1.1172 -0.4790  0.2604
 8837TIP3    H148002   6.148   1.565   4.649  1.1207 -0.5256  1.4309
 8837TIP3    H248003   6.116   1.434   4.719  0.8684 -0.6727  1.0438
 8838TIP3   OH248004   4.982   4.172   1.495 -0.0912 -0.0049  0.3215
 8838TIP3    H148005   5.045   4.135   1.557  0.7247 -1.1574 -1.1256
 8838TIP3    H248006   4.897   4.156   1.536  0.4825  0.8998  1.9590
 8839TIP3   OH248007   6.717   4.776  13.675  0.3331 -0.1221  0.2453
 8839TIP3    H148008   6.703   4.699  13.730  0.7460  0.5922  1.3845
 8839TIP3    H248009   6.717   4.742  13.585 -1.7504 -1.1370  0.5590
 8840TIP3   OH248010   0.709   0.820   6.546  0.1768 -0.1422 -0.0362
 8840TIP3    H148011   0.625   0.783   6.517  0.5529  0.3621 -1.9237
 8840TIP3    H248012   0.761   0.745   6.571 -0.1065 -0.6713 -0.9637
 8841TIP3   OH248013   5.254   6.464  16.199  0.2296 -0.1646  0.1934
 8841TIP3    H148014   5.321   6.398  16.219  2.6090  1.3453 -2.1226
 8841TIP3    H248015   5.202   6.425  16.129 -0.1197 -0.6115  0.6966
 8842TIP3   OH248016   2.633   1.018  11.651 -1.0406  0.2555  0.1890
 8842TIP3    H148017   2.606   1.091  11.706 -1.1396 -2.3263  3.9180
 8842TIP3    H248018   2.728   1.015  11.658 -0.9884  0.3222 -0.4098
 8843TIP3   OH248019   5.203   4.857  14.189  0.7772  0.3685 -0.2286
 8843TIP3    H148020   5.204   4.815  14.275  1.9442  0.8783  0.0358
 8843TIP3    H248021   5.218   4.787  14.127  1.7370  0.2324  0.1353
 8844TIP3   OH248022   6.717   1.240  12.150 -0.2663  0.9011  0.6181
 8844TIP3    H148023   6.667   1.190  12.214  0.7718 -1.8514 -0.5796
 8844TIP3    H248024   6.747   1.175  12.086  1.3817  3.0357 -0.9408
 8845TIP3   OH248025   6.549   1.934  13.213 -0.0215 -0.4615 -0.1767
 8845TIP3    H148026   6.497   1.949  13.134 -1.3296 -0.7766  0.6049
 8845TIP3    H248027   6.536   1.841  13.232  0.2036 -0.3620  0.4764
 8846TIP3   OH248028   6.172   4.240  11.379 -0.2123 -0.8591  0.5264
 8846TIP3    H148029   6.102   4.306  11.382 -0.3463 -0.9660 -0.1280
 8846TIP3    H248030   6.240   4.280  11.326 -0.6209 -1.5475 -0.5469
 8847TIP3   OH248031   5.624   1.133  16.719 -1.0096 -0.2808  0.2349
 8847TIP3    H148032   5.610   1.039  16.716  0.8492 -0.6367  1.4599
 8847TIP3    H248033   5.546   1.167  16.764 -1.9399 -1.1276 -0.6705
 8848TIP3   OH248034   3.323   4.671  15.269  0.7992  0.7401 -0.2854
 8848TIP3    H148035   3.231   4.671  15.294  1.6247  1.0937  3.3379
 8848TIP3    H248036   3.346   4.579  15.260  0.0878  0.6554 -1.4598
 8849TIP3   OH248037   3.736   4.765   5.635  0.1650 -0.4480  0.3555
 8849TIP3    H148038   3.829   4.762   5.656  0.4269 -1.2436 -0.8314
 8849TIP3    H248039   3.701   4.681   5.664 -0.6176  0.5789  2.5706
 8850TIP3   OH248040   5.616   2.888   5.972 -0.2190  0.5256 -0.4583
 8850TIP3    H148041   5.574   2.963   6.014 -1.4144  0.0829 -0.8149
 8850TIP3    H248042   5.582   2.889   5.882  0.7633  0.3115 -0.8392
 8851TIP3   OH248043   1.305   3.269   0.332 -0.2902 -0.1530  0.3632
 8851TIP3    H148044   1.310   3.236   0.242  1.9657  1.4149 -0.1724
 8851TIP3    H248045   1.253   3.349   0.325 -0.0285  0.0229  0.4435
 8852TIP3   OH248046   4.821   5.634  16.644 -0.4371  0.4413  0.3285
 8852TIP3    H148047   4.839   5.597  16.730 -1.2433  0.9310  0.7260
 8852TIP3    H248048   4.746   5.692  16.659 -1.3152 -0.3372 -0.9282
 8853TIP3   OH248049   3.440   5.394  16.940  0.0680 -0.1963  0.1828
 8853TIP3    H148050   3.525   5.432  16.920  0.2228  1.0000  2.7461
 8853TIP3    H248051   3.449   5.301  16.918  1.4067  0.2400 -1.2733
 8854TIP3   OH248052   6.194   4.293   2.754 -0.1202 -1.0467 -0.2302
 8854TIP3    H148053   6.104   4.326   2.752 -1.1025 -3.4851 -0.0697
 8854TIP3    H248054   6.208   4.257   2.666  1.5642  1.2244 -0.9927
 8855TIP3   OH248055   4.010   5.239   3.996 -0.3177  0.0096  0.1928
 8855TIP3    H148056   3.974   5.155   3.969 -0.3272 -0.3339  1.2444
 8855TIP3    H248057   4.068   5.265   3.924 -2.8340  0.7384 -1.7667
 8856TIP3   OH248058   4.913   0.146  15.972  0.6046 -0.0133  0.4027
 8856TIP3    H148059   4.962   0.080  16.021 -0.4422  2.3349  5.2446
 8856TIP3    H248060   4.822   0.117  15.978  0.3103  1.0081  1.2854
 8857TIP3   OH248061   6.030   3.953  12.830 -0.4881 -0.6135 -1.0533
 8857TIP3    H148062   6.050   3.976  12.739 -0.4600 -0.1114 -0.9179
 8857TIP3    H248063   6.060   4.028  12.881 -1.2374 -0.5491 -0.6963
 8858TIP3   OH248064   4.466   0.864  17.128 -0.1899  0.1449 -0.0431
 8858TIP3    H148065   4.505   0.895  17.209 -0.7625  0.6919  0.0352
 8858TIP3    H248066   4.376   0.844  17.151 -0.0439 -0.8125 -0.2861
 8859TIP3   OH248067   6.300   1.031  17.071 -0.3769 -0.3350  0.0923
 8859TIP3    H148068   6.238   1.103  17.081 -0.0702 -0.1717  0.9072
 8859TIP3    H248069   6.251   0.963  17.025 -1.0083 -0.0292  0.3070
 8860TIP3   OH248070   4.171   4.032  15.496 -0.5998  0.3125 -0.6243
 8860TIP3    H148071   4.125   4.011  15.577 -1.5306 -0.1985 -1.2764
 8860TIP3    H248072   4.196   4.124  15.506 -0.6633  0.2413  0.2529
 8861TIP3   OH248073   1.473   4.586   5.546 -0.6965  0.1588 -0.1538
 8861TIP3    H148074   1.437   4.562   5.461 -0.8244 -0.9832  0.2106
 8861TIP3    H248075   1.411   4.551   5.610  1.2892 -2.4133  0.5063
 8862TIP3   OH248076   0.604   0.812   4.983 -0.4277  0.1487 -0.6260
 8862TIP3    H148077   0.518   0.772   4.967  0.1807 -1.1866 -0.7127
 8862TIP3    H248078   0.665   0.737   4.987  0.6693  1.0362 -0.1570
 8863TIP3   OH248079   0.504   2.365   0.185  0.1022 -0.3863  0.3147
 8863TIP3    H148080   0.508   2.283   0.137 -2.0372  0.0802 -0.7553
 8863TIP3    H248081   0.581   2.414   0.154 -0.3128 -0.7562 -1.4161
 8864TIP3   OH248082   3.197   0.066  15.349  0.7766 -0.0169 -0.2769
 8864TIP3    H148083   3.239  -0.021  15.349  1.6466  0.3720  0.8735
 8864TIP3    H248084   3.243   0.114  15.281  0.8930 -0.1886 -0.3224
 8865TIP3   OH248085   1.880   2.642  15.139 -0.4047  0.7537  0.0673
 8865TIP3    H148086   1.898   2.549  15.152  0.8361  1.2732  2.7938
 8865TIP3    H248087   1.884   2.655  15.044 -0.4154 -1.9093 -0.3493
 8866TIP3   OH248088   1.576   3.570  15.419 -0.1182 -0.0810  0.4799
 8866TIP3    H148089   1.624   3.495  15.454  0.4437  0.1866  0.3016
 8866TIP3    H248090   1.522   3.600  15.492  2.1048  1.3665  1.6681
 8867TIP3   OH248091   5.667   2.152   5.968  0.4225  0.1997 -0.2641
 8867TIP3    H148092   5.598   2.199   6.014  1.3996 -0.2039  1.7075
 8867TIP3    H248093   5.679   2.200   5.886 -0.9747  1.2967  0.1495
 8868TIP3   OH248094   1.162   6.797   2.286 -0.6707  0.9370 -0.1354
 8868TIP3    H148095   1.250   6.834   2.294 -0.6655  1.0647 -0.7732
 8868TIP3    H248096   1.175   6.713   2.243 -0.8452  0.8820 -0.0830
 8869TIP3   OH248097   0.007   6.261  11.005  0.5014 -0.1979  0.4512
 8869TIP3    H148098   0.009   6.275  10.911  1.3663  1.4277  0.6752
 8869TIP3    H248099   0.025   6.168  11.016 -0.4204 -0.5674 -1.0088
 8870TIP3   OH248100   5.320   4.564   2.371 -0.0087  0.5509  0.1909
 8870TIP3    H148101   5.301   4.607   2.287  0.8797  2.4614  0.9123
 8870TIP3    H248102   5.255   4.599   2.432  0.6830  0.8376  0.7814
 8871TIP3   OH248103   4.792   6.445   3.851 -0.0725  0.1661 -0.0215
 8871TIP3    H148104   4.799   6.434   3.756  0.4971 -0.6409  0.1080
 8871TIP3    H248105   4.829   6.531   3.869  0.6387 -0.0494 -0.4361
 8872TIP3   OH248106   3.681   6.508   4.614  0.3350 -0.1476 -0.1369
 8872TIP3    H148107   3.614   6.456   4.659  1.1458 -1.4718 -0.4065
 8872TIP3    H248108   3.739   6.538   4.684 -0.0819  0.3501  0.0079
 8873TIP3   OH248109   1.740   2.004  13.930  1.0461 -0.3460 -0.0964
 8873TIP3    H148110   1.758   1.922  13.883  0.2720 -0.7108  0.2342
 8873TIP3    H248111   1.714   1.976  14.018  0.4022  0.2384 -0.0957
 8874TIP3   OH248112   6.241   0.021   3.121  0.1081  0.2552  0.3207
 8874TIP3    H148113   6.257  -0.063   3.165 -0.5240  0.1231  0.3083
 8874TIP3    H248114   6.327   0.048   3.090  0.3990 -0.1555  0.7448
 8875TIP3   OH248115   5.322   6.137   3.038  0.1633  0.8748  0.2627
 8875TIP3    H148116   5.345   6.217   3.085 -1.4513  1.5831 -0.0701
 8875TIP3    H248117   5.359   6.149   2.950 -3.2008  3.1209 -1.0738
 8876TIP3   OH248118   2.708   3.649  13.005  0.2294  0.1739 -0.4815
 8876TIP3    H148119   2.766   3.597  12.949 -0.9970 -0.1491 -1.5217
 8876TIP3    H248120   2.639   3.678  12.945 -0.9105  0.1550  0.7948
 8877TIP3   OH248121   1.795   6.202   4.502  0.9519 -0.0906  0.0075
 8877TIP3    H148122   1.788   6.135   4.434 -0.7328  1.1295 -1.1117
 8877TIP3    H248123   1.824   6.154   4.580  1.0061 -1.8816 -1.0493
 8878TIP3   OH248124   4.451   3.026  13.133  0.1954  0.0381  0.0395
 8878TIP3    H148125   4.467   3.012  13.039  0.7298  0.1235  0.1137
 8878TIP3    H248126   4.376   3.086  13.136  0.9286  1.0118 -0.3638
 8879TIP3   OH248127   0.069   5.032  15.190 -0.0127 -0.0158  0.3137
 8879TIP3    H148128   0.147   5.086  15.205 -0.4277  0.5049  0.6180
 8879TIP3    H248129  -0.002   5.080  15.232 -0.0634 -1.7932  2.4232
 8880TIP3   OH248130   1.399   5.725  16.480  0.0405 -0.1447 -0.0885
 8880TIP3    H148131   1.397   5.638  16.440  1.0541  0.0114 -0.5223
 8880TIP3    H248132   1.333   5.776  16.432  0.5770 -0.2290 -0.9365
 8881TIP3   OH248133   6.014   2.609  14.310  0.1351 -0.4555  0.0051
 8881TIP3    H148134   5.964   2.627  14.390 -2.5331 -1.0118 -1.4319
 8881TIP3    H248135   5.987   2.521  14.284 -0.5567  0.4124 -2.4998
 8882TIP3   OH248136   5.734   6.716   6.505 -0.5960  0.7657 -0.1081
 8882TIP3    H148137   5.793   6.775   6.550 -2.7309  1.0241  2.6155
 8882TIP3    H248138   5.681   6.774   6.449 -0.0853  0.8735 -0.4888
 8883TIP3   OH248139   6.158   6.218   3.595 -0.4689 -0.0239 -0.0314
 8883TIP3    H148140   6.193   6.133   3.568 -0.0374  0.4665 -1.0689
 8883TIP3    H248141   6.208   6.282   3.544 -1.2753  0.8212  0.2087
 8884TIP3   OH248142   4.573   6.576   0.786 -0.2988  0.2578  0.3050
 8884TIP3    H148143   4.571   6.542   0.875 -1.2366  0.1238  0.2516
 8884TIP3    H248144   4.621   6.659   0.791 -0.3817  0.2662  0.9348
 8885TIP3   OH248145   1.739   3.734   6.549  0.2711 -0.2735  0.3711
 8885TIP3    H148146   1.675   3.737   6.620 -0.2603  0.8889 -0.1316
 8885TIP3    H248147   1.724   3.650   6.506 -0.4159 -0.3339  0.7232
 8886TIP3   OH248148   5.946   1.139  16.037  0.0897 -0.6466 -0.1216
 8886TIP3    H148149   5.911   1.053  16.059 -1.3189  0.1454  0.8833
 8886TIP3    H248150   5.948   1.187  16.119  1.9013 -0.0412 -0.4683
 8887TIP3   OH248151   0.871   1.127   2.990  0.0830 -0.2167  0.0213
 8887TIP3    H148152   0.837   1.083   3.068 -1.7581 -0.4517 -0.8407
 8887TIP3    H248153   0.794   1.170   2.952  1.3453  1.6639 -0.5440
 8888TIP3   OH248154   2.899   4.791   3.140 -0.7948  0.3188 -0.1772
 8888TIP3    H148155   2.826   4.793   3.202 -1.4149  0.9042 -0.9129
 8888TIP3    H248156   2.880   4.717   3.083 -1.4220  1.1455 -1.0722
 8889TIP3   OH248157   3.184   5.193   0.223 -0.3010  0.2414 -0.2652
 8889TIP3    H148158   3.249   5.227   0.162 -0.3633 -1.2161 -1.1978
 8889TIP3    H248159   3.140   5.271   0.257  0.5558  1.1461 -1.1644
 8890TIP3   OH248160   6.423   4.695  17.074  0.2019 -0.2385  0.4772
 8890TIP3    H148161   6.351   4.758  17.077  0.0090 -0.3535 -1.0002
 8890TIP3    H248162   6.446   4.680  17.166 -0.3361  1.2983  0.8912
 8891TIP3   OH248163   5.284   2.348   4.946  0.1011  0.2010  0.2224
 8891TIP3    H148164   5.224   2.289   4.993  0.5538  0.5924  1.3157
 8891TIP3    H248165   5.255   2.343   4.855 -0.3675 -1.1077  0.4179
 8892TIP3   OH248166   4.637   1.359  13.916 -0.2672 -0.3894  0.1940
 8892TIP3    H148167   4.715   1.303  13.910 -1.5653 -2.5226  1.5949
 8892TIP3    H248168   4.658   1.421  13.985 -0.2743 -1.8820  1.6075
 8893TIP3   OH248169   6.558   6.646  16.631 -0.0440 -0.2697 -0.0300
 8893TIP3    H148170   6.555   6.741  16.623 -0.9340 -0.0781  1.9919
 8893TIP3    H248171   6.619   6.618  16.563  0.0785  1.7118 -0.8040
 8894TIP3   OH248172   0.730   4.055  16.710 -0.2173 -0.2840 -0.0751
 8894TIP3    H148173   0.794   3.991  16.742 -0.5376 -1.1614 -1.1275
 8894TIP3    H248174   0.753   4.136  16.755  1.6713 -0.5418 -0.4856
 8895TIP3   OH248175   1.144   0.821   2.721 -0.1847  0.8167  0.3071
 8895TIP3    H148176   1.185   0.779   2.796 -1.5278  2.0878  1.8535
 8895TIP3    H248177   1.198   0.898   2.704  0.4306  0.2348 -0.4031
 8896TIP3   OH248178   0.877   0.999  16.037 -0.4321 -0.2055  0.1325
 8896TIP3    H148179   0.853   0.972  16.126 -0.6562  0.9963  0.4478
 8896TIP3    H248180   0.973   0.999  16.037 -0.4301 -0.7507  0.1995
 8897TIP3   OH248181   5.488   6.472   0.933  0.2730 -0.0619 -0.2213
 8897TIP3    H148182   5.402   6.470   0.975 -0.7099  1.1417 -2.0058
 8897TIP3    H248183   5.550   6.484   1.005 -1.2092  0.8259  0.9699
 8898TIP3   OH248184   6.709   0.546  11.696  0.1829  0.1085 -0.2006
 8898TIP3    H148185   6.791   0.501  11.718  0.0656  0.2092  0.4793
 8898TIP3    H248186   6.646   0.476  11.681  0.3580  0.0323 -0.5847
 8899TIP3   OH248187   5.482   4.880   6.361 -0.8746 -0.4446  0.2821
 8899TIP3    H148188   5.569   4.891   6.324 -1.4400  0.4165 -0.8325
 8899TIP3    H248189   5.456   4.791   6.337  1.0955 -2.1830  3.7538
 8900TIP3   OH248190   0.523   5.235  15.896  0.3593 -0.4398  0.0579
 8900TIP3    H148191   0.606   5.283  15.889 -0.3124  0.7622  0.0441
 8900TIP3    H248192   0.461   5.299  15.932 -0.8431 -0.9665 -1.0003
 8901TIP3   OH248193   0.149   6.238  12.503 -0.3676  0.0865 -0.3521
 8901TIP3    H148194   0.150   6.220  12.597  0.0130 -0.7160 -0.4975
 8901TIP3    H248195   0.233   6.280  12.485  1.1426 -2.8359 -0.8539
 8902TIP3   OH248196   0.292   0.866   3.478  0.0590 -0.0555  0.0004
 8902TIP3    H148197   0.206   0.877   3.439  0.0961 -0.9176 -0.3346
 8902TIP3    H248198   0.336   0.950   3.463 -1.0106  0.7059  0.9461
 8903TIP3   OH248199   2.601   2.308  11.193 -0.3602 -0.2968  0.5570
 8903TIP3    H148200   2.661   2.278  11.125 -2.3556  2.3327 -2.7212
 8903TIP3    H248201   2.650   2.374  11.242 -0.3152  1.8035 -2.0585
 8904TIP3   OH248202   1.422   2.068   3.135 -0.3613  0.2008  1.0219
 8904TIP3    H148203   1.361   2.036   3.202 -0.9007  0.9715  0.9080
 8904TIP3    H248204   1.375   2.140   3.092 -1.0006 -1.6963 -1.7520
 8905TIP3   OH248205   3.697   2.643  12.911  0.4327 -0.6297  0.0633
 8905TIP3    H148206   3.760   2.589  12.959  1.4871 -0.9982 -1.6610
 8905TIP3    H248207   3.661   2.584  12.845 -1.3857 -0.2849  0.6934
 8906TIP3   OH248208   2.756   5.614   3.344 -0.8926 -0.0018  0.3558
 8906TIP3    H148209   2.761   5.598   3.438 -1.3343  1.8370  0.7396
 8906TIP3    H248210   2.680   5.671   3.334  0.3701  1.5503 -0.8321
 8907TIP3   OH248211   1.292   5.434  16.808 -0.0061  0.3090  0.4351
 8907TIP3    H148212   1.218   5.421  16.748  0.8242  2.2921 -1.1567
 8907TIP3    H248213   1.322   5.523  16.790  3.3760 -0.7067  0.2920
 8908TIP3   OH248214   0.944   1.031   4.206 -0.2073  0.3162  0.7569
 8908TIP3    H148215   0.989   1.098   4.258  2.1177 -1.3764  1.1273
 8908TIP3    H248216   0.967   1.052   4.115  1.3525 -0.4378  0.9315
 8909TIP3   OH248217   5.533   1.409  14.351  0.2296  0.1559 -0.1498
 8909TIP3    H148218   5.484   1.342  14.398 -1.2087  0.8749 -0.5364
 8909TIP3    H248219   5.617   1.414  14.395 -0.4132 -0.4470  1.1864
 8910TIP3   OH248220   1.319   1.048   4.523  0.1775 -0.3188  0.7470
 8910TIP3    H148221   1.320   1.036   4.428 -0.9565 -0.9735  0.8012
 8910TIP3    H248222   1.411   1.061   4.547  0.2209  3.9283 -0.8885
 8911TIP3   OH248223   0.127   4.196   0.464  0.4106 -0.0350 -0.0247
 8911TIP3    H148224   0.066   4.124   0.476 -0.3272  0.0930 -2.4905
 8911TIP3    H248225   0.212   4.160   0.490 -0.4921 -0.4900  2.5996
 8912TIP3   OH248226   2.922   2.650  11.031 -0.3968  0.4760  0.1146
 8912TIP3    H148227   3.016   2.664  11.023 -0.2545 -0.9784 -1.0234
 8912TIP3    H248228   2.910   2.619  11.121  0.6098 -1.9681 -0.5082
 8913TIP3   OH248229   5.937   6.770   6.251  0.7065  0.2816  0.0647
 8913TIP3    H148230   6.025   6.807   6.252  0.8076  0.1577 -1.6480
 8913TIP3    H248231   5.944   6.691   6.306  1.0399  1.5095  1.8707
 8914TIP3   OH248232   6.131   4.971  15.215 -0.0806 -0.1353  0.1071
 8914TIP3    H148233   6.138   4.897  15.276  2.1843 -0.3624 -0.3473
 8914TIP3    H248234   6.211   5.021  15.228 -0.8017  1.3241 -0.8049
 8915TIP3   OH248235   6.511   6.053   6.074  0.1845  0.1614  1.1298
 8915TIP3    H148236   6.534   6.137   6.033  0.1827 -0.0189  0.7491
 8915TIP3    H248237   6.428   6.071   6.119 -0.2441  0.1684  0.3734
 8916TIP3   OH248238   4.263   5.862   0.885 -0.1605  0.0697 -0.4436
 8916TIP3    H148239   4.240   5.871   0.977 -0.0082 -0.6295 -0.3333
 8916TIP3    H248240   4.204   5.923   0.840  0.1015  0.7859  0.1516
 8917TIP3   OH248241   0.912   1.007  12.063  0.2823 -0.0808 -0.9627
 8917TIP3    H148242   0.941   1.081  12.010  0.0681 -0.2840 -1.3752
 8917TIP3    H248243   0.905   0.934  12.000  2.2870 -0.9431 -0.2634
 8918TIP3   OH248244   6.294   1.347   3.998  0.0724  0.1799 -0.0786
 8918TIP3    H148245   6.386   1.365   4.016 -0.2411  1.3844  0.4506
 8918TIP3    H248246   6.265   1.421   3.944 -0.6148 -0.0942 -0.0980
 8919TIP3   OH248247   0.287   1.981   4.178  0.2379 -0.0314  0.0545
 8919TIP3    H148248   0.362   1.938   4.218 -1.4412 -2.6978  0.5799
 8919TIP3    H248249   0.275   2.061   4.229  2.4528  0.3188  0.1483
 8920TIP3   OH248250   3.072   1.208  11.845  0.3602 -0.5532  0.0498
 8920TIP3    H148251   3.089   1.174  11.757  0.5411 -1.4930  0.4337
 8920TIP3    H248252   3.096   1.136  11.903 -0.0965 -0.0679  0.8535
 8921TIP3   OH248253   6.414   2.591   0.519 -0.0559  0.1995 -0.0122
 8921TIP3    H148254   6.377   2.504   0.504 -1.5259  0.7024  0.5374
 8921TIP3    H248255   6.360   2.650   0.466  0.0314  0.9511  0.7059
 8922TIP3   OH248256   1.533   1.295   4.121 -0.6885 -0.0325 -0.0886
 8922TIP3    H148257   1.537   1.337   4.036 -1.1301 -0.1253 -0.1563
 8922TIP3    H248258   1.619   1.253   4.131 -0.9407 -0.7704 -0.8769
 8923TIP3   OH248259   1.409   1.533  13.455  0.3771 -0.3056  0.2501
 8923TIP3    H148260   1.415   1.564  13.364  1.9601 -0.8742  0.1268
 8923TIP3    H248261   1.316   1.510  13.466  0.0682  0.1792 -1.0781
 8924TIP3   OH248262   0.750   4.620  16.754  0.0664  0.5950  0.3722
 8924TIP3    H148263   0.679   4.598  16.814 -0.4104  0.3333 -0.2711
 8924TIP3    H248264   0.710   4.682  16.692 -0.0945 -0.8015 -0.9820
 8925TIP3   OH248265   6.202   2.568  15.462 -0.5572  0.5501  0.0651
 8925TIP3    H148266   6.240   2.553  15.376 -1.4606  0.4177 -0.3224
 8925TIP3    H248267   6.252   2.511  15.520 -1.4746 -1.1591 -0.7683
 8926TIP3   OH248268   6.235   4.723   1.047  0.1884  0.4639 -0.1354
 8926TIP3    H148269   6.186   4.797   1.011  0.2040  1.1778  1.2069
 8926TIP3    H248270   6.219   4.728   1.142  0.4561 -1.0724  0.0149
 8927TIP3   OH248271   1.880   0.804  14.928  0.7691 -0.7116  0.1013
 8927TIP3    H148272   1.944   0.734  14.942  1.4673 -0.2124 -0.5044
 8927TIP3    H248273   1.926   0.868  14.874  0.1137  0.1715  0.5570
 8928TIP3   OH248274   4.182   6.397   5.624 -0.3155  0.3124  0.2464
 8928TIP3    H148275   4.191   6.479   5.575 -2.1195  0.8609  0.7484
 8928TIP3    H248276   4.171   6.425   5.715 -0.0004 -0.5472  0.5567
 8929TIP3   OH248277   1.379   2.794  14.364  0.3179 -0.0733 -0.4712
 8929TIP3    H148278   1.365   2.706  14.330 -1.3943 -0.3182  0.7191
 8929TIP3    H248279   1.418   2.781  14.450  1.3918  0.4005 -0.8714
 8930TIP3   OH248280   0.013   5.957  12.927 -0.0120  0.1133  0.2777
 8930TIP3    H148281   0.055   6.033  12.968 -0.0715  0.6993 -0.7095
 8930TIP3    H248282  -0.080   5.970  12.942  0.0318 -0.2712  0.9338
 8931TIP3   OH248283   2.356   2.441   3.918  0.1324 -0.4640 -0.2811
 8931TIP3    H148284   2.311   2.431   3.834  2.0702 -0.6717 -1.3502
 8931TIP3    H248285   2.350   2.355   3.959 -1.9045 -0.0385  0.4109
 8932TIP3   OH248286   2.230   4.056  16.194  0.0078  0.5537 -0.3890
 8932TIP3    H148287   2.187   4.122  16.139 -0.9584 -0.2679 -0.6447
 8932TIP3    H248288   2.158   4.019  16.246  0.7583  0.6732  0.7734
 8933TIP3   OH248289   0.451   4.033  11.502  0.0802  0.0948  0.1809
 8933TIP3    H148290   0.507   4.025  11.426  0.9204 -0.0243  0.7971
 8933TIP3    H248291   0.372   4.076  11.470  0.1814 -0.4709 -0.8647
 8934TIP3   OH248292   1.811   4.154  14.897 -0.4273 -0.0247 -0.2193
 8934TIP3    H148293   1.781   4.123  14.983  0.4290 -0.2730  0.0021
 8934TIP3    H248294   1.898   4.190  14.914  0.5193 -1.6683 -1.2541
 8935TIP3   OH248295   0.692   4.473  11.066  0.6342  0.0670 -0.4830
 8935TIP3    H148296   0.721   4.405  11.005  1.6688 -0.2701  0.3481
 8935TIP3    H248297   0.597   4.466  11.065  0.6461 -0.2442 -1.6919
 8936TIP3   OH248298   5.906   4.862   5.756  0.0286  0.0998 -0.0968
 8936TIP3    H148299   5.853   4.810   5.816  1.3903 -0.8345  0.3415
 8936TIP3    H248300   5.901   4.815   5.673 -0.5335  0.5077 -0.3039
 8937TIP3   OH248301   2.492   1.920  14.737  0.1174  0.1497  0.5235
 8937TIP3    H148302   2.422   1.985  14.746  0.0560  0.0841  0.5184
 8937TIP3    H248303   2.457   1.855  14.676 -0.1191 -0.2870  1.1216
 8938TIP3   OH248304   4.614   2.571  14.283 -0.1702  0.5886  0.0617
 8938TIP3    H148305   4.531   2.576  14.236  0.5859  0.8806 -1.2871
 8938TIP3    H248306   4.601   2.623  14.362 -1.3751  0.3378  0.0356
 8939TIP3   OH248307   0.705   2.298  15.353  0.5300  0.4356  0.2900
 8939TIP3    H148308   0.717   2.390  15.329 -0.2561 -0.0923 -2.4458
 8939TIP3    H248309   0.670   2.257  15.274 -2.1203 -1.6141  2.3372
 8940TIP3   OH248310   2.168   4.474  14.918 -0.4114 -0.3297  0.2717
 8940TIP3    H148311   2.191   4.436  15.002  1.4749  2.2712  1.0563
 8940TIP3    H248312   2.153   4.567  14.936  1.1072  0.5518 -2.3593
 8941TIP3   OH248313   2.695   5.774  13.860 -0.6149  0.1593 -0.3926
 8941TIP3    H148314   2.721   5.823  13.939  0.7761  1.4729 -1.6033
 8941TIP3    H248315   2.774   5.725  13.836 -1.7524 -2.1945  0.3533
 8942TIP3   OH248316   0.106   5.188   5.588  0.3692  0.7830  0.3166
 8942TIP3    H148317   0.116   5.134   5.666 -0.0737 -1.2459 -0.9483
 8942TIP3    H248318   0.016   5.220   5.592 -0.5121 -1.3808 -0.5160
 8943TIP3   OH248319   1.433   5.951   6.157 -0.5547 -0.8959  0.7091
 8943TIP3    H148320   1.428   5.982   6.248  1.9381  1.2004  0.2776
 8943TIP3    H248321   1.508   5.999   6.120 -0.4400 -2.9287 -1.9899
 8944TIP3   OH248322   2.369   5.382  16.612 -0.0974 -0.2877 -0.1450
 8944TIP3    H148323   2.278   5.410  16.614 -0.3389 -1.0620  0.8539
 8944TIP3    H248324   2.372   5.312  16.546 -0.5153 -1.1068  0.6697
 8945TIP3   OH248325   3.352   0.219  10.905 -0.1779 -0.2939  0.0858
 8945TIP3    H148326   3.364   0.306  10.868 -0.9506 -0.3855 -0.4073
 8945TIP3    H248327   3.260   0.216  10.931 -0.1488 -0.9462  0.1442
 8946TIP3   OH248328   5.639   2.903  15.980 -0.0191  0.2402  0.6119
 8946TIP3    H148329   5.588   2.832  16.019  0.8383  0.2567  1.8382
 8946TIP3    H248330   5.663   2.959  16.055  0.3155  1.1685 -0.1723
 8947TIP3   OH248331   1.299   1.161   1.301  0.4427  0.5995 -0.6222
 8947TIP3    H148332   1.264   1.111   1.228  1.5373 -0.6421 -0.3210
 8947TIP3    H248333   1.226   1.169   1.362  0.0640 -0.0290 -0.9870
 8948TIP3   OH248334   5.865   6.012   3.405 -0.1101 -0.1595  0.0538
 8948TIP3    H148335   5.850   6.023   3.498  0.2250  1.1351 -0.0274
 8948TIP3    H248336   5.943   5.956   3.399  0.5284  0.6583  0.5740
 8949TIP3   OH248337   4.496   6.181  16.764  0.3495 -0.0522 -0.2629
 8949TIP3    H148338   4.587   6.210  16.769 -0.5808  3.6002 -1.3009
 8949TIP3    H248339   4.490   6.133  16.681  1.3118 -0.4566 -0.1130
 8950TIP3   OH248340   2.318   6.540  12.423 -0.5428 -0.3597  0.9827
 8950TIP3    H148341   2.325   6.610  12.487  0.4587 -1.1013  1.7043
 8950TIP3    H248342   2.401   6.494  12.428 -1.1700 -1.5934  0.5135
 8951TIP3   OH248343   1.289   6.192  11.157 -0.2126 -0.2622  0.1142
 8951TIP3    H148344   1.244   6.250  11.096  0.5819 -0.7116 -0.9212
 8951TIP3    H248345   1.220   6.135  11.190 -0.3896 -1.2292 -1.7840
 8952TIP3   OH248346   4.770   3.524  15.829 -0.5548  0.1002  0.7222
 8952TIP3    H148347   4.803   3.495  15.914  3.5158 -1.4270 -1.1002
 8952TIP3    H248348   4.786   3.619  15.829 -2.5383  0.5050  2.2778
 8953TIP3   OH248349   6.747   0.000  12.088  0.1946 -0.2817 -0.2299
 8953TIP3    H148350   6.691  -0.075  12.105  0.3259 -0.2809  0.2138
 8953TIP3    H248351   6.752   0.006  11.992  0.2500 -0.8862 -0.2665
 8954TIP3   OH248352   5.161   1.061   0.129  0.4224  0.0771  0.2391
 8954TIP3    H148353   5.202   1.111   0.059 -1.7778  0.6841 -0.7201
 8954TIP3    H248354   5.111   0.993   0.084 -0.4160 -0.0158  1.2576
 8955TIP3   OH248355   0.936   3.779   2.023  0.2041 -0.7548 -0.4377
 8955TIP3    H148356   1.015   3.809   1.977  1.2115 -0.8063  1.1581
 8955TIP3    H248357   0.868   3.840   1.995  1.6065  1.5117  0.7521
 8956TIP3   OH248358   1.865   4.588  16.260 -0.2603 -0.0605 -0.5871
 8956TIP3    H148359   1.854   4.508  16.312  0.7820 -0.1154 -0.4259
 8956TIP3    H248360   1.798   4.647  16.293  0.0524 -0.2748  0.4976
 8957TIP3   OH248361   0.823   6.581   6.089 -0.0210 -0.2428 -0.8041
 8957TIP3    H148362   0.895   6.582   6.151 -0.5267  0.2438 -0.2092
 8957TIP3    H248363   0.750   6.541   6.137  0.1752 -1.8882 -1.7935
 8958TIP3   OH248364   2.036   5.040   6.327  0.1005  0.1058  0.3419
 8958TIP3    H148365   2.003   5.127   6.352 -2.0880 -0.8285  0.9002
 8958TIP3    H248366   2.125   5.038   6.362  1.0732  2.9241 -1.6068
 8959TIP3   OH248367   1.262   1.473   3.439 -0.1176 -0.0338 -0.6742
 8959TIP3    H148368   1.173   1.504   3.454  0.4201  1.2837 -0.0454
 8959TIP3    H248369   1.262   1.382   3.470 -1.4445 -0.3366 -1.4823
 8960TIP3   OH248370   4.838   0.628   5.103 -0.5588  0.1502  0.1235
 8960TIP3    H148371   4.843   0.601   5.011 -1.9327 -0.7286  0.2847
 8960TIP3    H248372   4.760   0.682   5.108 -0.0772  0.8171  0.6425
 8961TIP3   OH248373   5.348   5.822   5.372 -0.2557  0.1051  0.1861
 8961TIP3    H148374   5.358   5.727   5.365  2.1145  0.2179  1.0818
 8961TIP3    H248375   5.359   5.854   5.282  1.0517 -0.3462  0.1687
 8962TIP3   OH248376   5.904   2.797  13.809 -0.0178 -0.0315 -0.6724
 8962TIP3    H148377   5.951   2.728  13.763  1.4782 -0.1123  0.8891
 8962TIP3    H248378   5.952   2.878  13.788 -0.2343  0.1506 -0.4798
 8963TIP3   OH248379   0.206   1.203   0.293  0.1688 -0.1533 -0.3672
 8963TIP3    H148380   0.157   1.123   0.271  1.1426 -1.1013  0.7699
 8963TIP3    H248381   0.139   1.266   0.319 -0.5253 -1.1820  0.4253
 8964TIP3   OH248382   3.060   2.178  13.108 -0.5203 -0.0934  0.3389
 8964TIP3    H148383   3.006   2.219  13.040  0.4058  0.0341 -0.3395
 8964TIP3    H248384   3.142   2.158  13.064  0.7307  1.4914  1.8105
 8965TIP3   OH248385   3.183   0.520  11.594  0.2059 -0.7263 -0.4414
 8965TIP3    H148386   3.265   0.514  11.544  0.9419 -0.3741  0.6800
 8965TIP3    H248387   3.195   0.458  11.666 -0.2292 -0.1624  0.1173
 8966TIP3   OH248388   1.499   5.817   0.348  0.0848  0.2074 -0.4789
 8966TIP3    H148389   1.460   5.855   0.269  0.5027 -1.6884 -1.6556
 8966TIP3    H248390   1.429   5.764   0.386 -0.6186  2.3003  1.3694
 8967TIP3   OH248391   3.966   5.956  13.626 -0.3002  0.1706 -0.2673
 8967TIP3    H148392   4.052   5.990  13.604 -0.6514  2.2675  1.3293
 8967TIP3    H248393   3.984   5.881  13.683  0.5073  1.3374  1.0748
 8968TIP3   OH248394   0.920   6.230   2.607 -0.4797  0.1342  0.5523
 8968TIP3    H148395   0.988   6.219   2.674 -1.0504  1.0126  1.3034
 8968TIP3    H248396   0.845   6.181   2.639 -0.0128 -1.4642 -0.6377
 8969TIP3   OH248397   4.860   2.993  15.160 -0.1629 -0.1609  0.4064
 8969TIP3    H148398   4.885   2.937  15.087  0.6231  0.6628  0.0256
 8969TIP3    H248399   4.941   3.004  15.211 -0.9681 -1.7797  2.1638
 8970TIP3   OH248400   3.930   3.961   0.094 -0.1953 -0.3825  0.4207
 8970TIP3    H148401   3.972   3.886   0.051 -0.1178 -1.0344  1.5780
 8970TIP3    H248402   3.980   4.037   0.063  1.1717 -1.0341  0.9149
 8971TIP3   OH248403   0.545   2.720   5.815 -0.1393 -0.3763 -0.4787
 8971TIP3    H148404   0.540   2.648   5.879 -1.7367 -0.4515 -0.6501
 8971TIP3    H248405   0.570   2.678   5.733 -1.5015 -0.8356 -0.6798
 8972TIP3   OH248406   1.644   0.097   0.924  0.4299 -0.1529  0.1074
 8972TIP3    H148407   1.563   0.106   0.873  0.9614  0.2536 -0.6910
 8972TIP3    H248408   1.637   0.012   0.966 -1.0012  0.4245  1.1015
 8973TIP3   OH248409   2.372   4.212   5.780  0.3979  0.5128 -0.0758
 8973TIP3    H148410   2.382   4.239   5.872 -1.4162 -0.3526  0.4286
 8973TIP3    H248411   2.339   4.122   5.786 -0.6446  0.7659 -1.5478
 8974TIP3   OH248412   4.268   5.663   4.878  0.3943  0.6552 -0.0463
 8974TIP3    H148413   4.293   5.638   4.967 -0.7872 -0.7067 -0.0552
 8974TIP3    H248414   4.314   5.600   4.822 -3.9898 -3.1645  0.0064
 8975TIP3   OH248415   2.204   6.733  15.132 -0.4236 -0.3219 -0.3175
 8975TIP3    H148416   2.174   6.697  15.048 -0.7018 -0.8308 -0.0012
 8975TIP3    H248417   2.285   6.687  15.150  0.3657  0.7470 -0.9582
 8976TIP3   OH248418   1.242   5.398  12.524  0.4246  0.3880 -0.0797
 8976TIP3    H148419   1.221   5.313  12.563 -1.0162  0.6089 -0.3493
 8976TIP3    H248420   1.315   5.379  12.465 -0.8637 -0.9884 -1.3185
 8977TIP3   OH248421   0.940   4.623  13.365 -0.2174 -0.2689 -0.2324
 8977TIP3    H148422   1.036   4.622  13.364 -0.1474 -1.2935  1.9704
 8977TIP3    H248423   0.916   4.579  13.447 -2.5953 -0.6672 -1.0598
 8978TIP3   OH248424   0.655   2.817  14.964  0.1151  0.0906 -0.1525
 8978TIP3    H148425   0.574   2.781  15.000  1.0247 -1.9246  0.0050
 8978TIP3    H248426   0.700   2.855  15.039  0.1275 -0.4215  0.1074
 8979TIP3   OH248427   0.345   6.779  14.364  0.2177  0.2686  0.0851
 8979TIP3    H148428   0.331   6.865  14.326 -1.6325  0.2438  0.6409
 8979TIP3    H248429   0.401   6.795  14.440 -0.4627  1.0454  0.4315
 8980TIP3   OH248430   6.265   5.326  15.058 -0.0360 -0.3736  0.3595
 8980TIP3    H148431   6.314   5.344  14.977  0.6297  0.2538  0.8928
 8980TIP3    H248432   6.206   5.254  15.034  0.8492 -0.8714 -0.4096
 8981TIP3   OH248433   6.264   3.820   2.950  0.5953  0.4490  0.6741
 8981TIP3    H148434   6.198   3.775   2.897 -0.4289  3.7615 -1.1899
 8981TIP3    H248435   6.342   3.822   2.896  0.7502  0.5256  0.8998
 8982TIP3   OH248436   5.470   0.675  11.682 -0.6219  0.2541 -0.6295
 8982TIP3    H148437   5.524   0.735  11.630  2.3781 -1.1358  0.6272
 8982TIP3    H248438   5.462   0.719  11.767 -2.3584  0.8438 -1.0503
 8983TIP3   OH248439   5.219   5.823   0.543  0.5313 -0.1125  0.6360
 8983TIP3    H148440   5.250   5.831   0.453 -0.7069  1.5921  0.3075
 8983TIP3    H248441   5.153   5.754   0.540 -0.2551  0.6372 -0.0167
 8984TIP3   OH248442   1.507   3.658  13.887 -0.4790  0.3165 -0.5416
 8984TIP3    H148443   1.541   3.653  13.798  0.3682 -0.3617 -0.1890
 8984TIP3    H248444   1.435   3.595  13.888  1.1824 -1.6737 -0.0455
 8985TIP3   OH248445   2.063   3.879  10.815  0.0458 -0.4727  0.0351
 8985TIP3    H148446   2.154   3.849  10.815  0.3908  0.5360 -0.0299
 8985TIP3    H248447   2.013   3.803  10.786  1.0338 -0.5818 -1.5062
 8986TIP3   OH248448   5.421   4.107   3.433  0.0037 -0.2972  0.0207
 8986TIP3    H148449   5.509   4.106   3.397  0.4230 -1.2538  1.0326
 8986TIP3    H248450   5.386   4.193   3.409  1.4967  0.4175  0.3154
 8987TIP3   OH248451   6.783   0.834   2.277 -0.0826 -0.5509  0.4635
 8987TIP3    H148452   6.856   0.789   2.234  0.7494  1.2627 -0.1566
 8987TIP3    H248453   6.810   0.842   2.368  0.7662  0.5421  0.1413
 8988TIP3   OH248454   5.525   3.536   2.804  0.3092 -0.4366 -0.0057
 8988TIP3    H148455   5.469   3.614   2.803 -2.1957 -2.1257 -0.8070
 8988TIP3    H248456   5.567   3.539   2.890 -0.3316  1.3525  0.3092
 8989TIP3   OH248457   4.631   1.102  11.988  0.1829  0.0288 -0.1326
 8989TIP3    H148458   4.678   1.027  11.952  0.6280  0.1122  0.2798
 8989TIP3    H248459   4.572   1.128  11.917  0.4614 -0.3287 -0.5030
 8990TIP3   OH248460   1.695   6.460   3.286  0.2327  0.0886  0.5774
 8990TIP3    H148461   1.706   6.376   3.331  1.4978  0.4603  0.9980
 8990TIP3    H248462   1.619   6.446   3.228 -0.7208 -0.7589  1.9597
 8991TIP3   OH248463   1.517   4.508  14.218  0.3937  0.4130 -0.1034
 8991TIP3    H148464   1.501   4.472  14.305 -0.0125  0.0583 -0.3234
 8991TIP3    H248465   1.493   4.600  14.226 -0.0472  0.2874  0.0515
 8992TIP3   OH248466   5.101   5.250  12.559  0.0953  0.0975  0.3129
 8992TIP3    H148467   5.119   5.332  12.512 -0.6076  0.2683  0.3247
 8992TIP3    H248468   5.012   5.261  12.593 -0.2968 -0.9598 -0.3052
 8993TIP3   OH248469   4.412   6.612   2.456 -0.1956  0.1818  0.3951
 8993TIP3    H148470   4.482   6.548   2.457 -0.3670 -0.0108  0.0711
 8993TIP3    H248471   4.337   6.565   2.420 -0.5989  0.2723  1.1037
 8994TIP3   OH248472   3.090   4.131  12.000  0.2799  0.5437 -0.4593
 8994TIP3    H148473   3.030   4.070  11.958  0.9465  0.5884 -1.5352
 8994TIP3    H248474   3.035   4.204  12.027 -0.0290  1.1254 -2.4650
 8995TIP3   OH248475   1.466   0.720   2.230 -0.1981  0.1585  0.3810
 8995TIP3    H148476   1.498   0.658   2.295 -0.5460 -0.0515  0.3559
 8995TIP3    H248477   1.392   0.763   2.273  0.7194  1.3622  0.8179
 8996TIP3   OH248478   3.815   2.060  16.503  0.1719  0.4652  0.0639
 8996TIP3    H148479   3.810   2.146  16.460  1.0258  0.0388 -0.9195
 8996TIP3    H248480   3.798   1.997  16.432 -2.7889 -0.1514  1.1909
 8997TIP3   OH248481   3.156   3.726  13.605 -0.6008 -0.2590  0.3648
 8997TIP3    H148482   3.215   3.671  13.553  0.8559 -0.0719  1.7582
 8997TIP3    H248483   3.106   3.664  13.658 -1.7935 -0.4246 -0.8910
 8998TIP3   OH248484   0.928   3.987  15.764 -0.1273  0.3559  0.2259
 8998TIP3    H148485   0.876   3.923  15.814 -1.0754  1.1038  0.2344
 8998TIP3    H248486   0.865   4.026  15.704  0.4732  1.1836  0.1273
 8999TIP3   OH248487   3.314   3.947   5.829 -0.0859  0.6702 -0.2360
 8999TIP3    H148488   3.229   3.967   5.789 -0.7922 -2.1050 -0.3324
 8999TIP3    H248489   3.295   3.934   5.922  0.0170 -0.8208 -0.3992
 9000TIP3   OH248490   0.840   6.533   0.478 -0.2842  0.2223 -0.0389
 9000TIP3    H148491   0.744   6.524   0.478 -0.2566 -0.1785 -1.0976
 9000TIP3    H248492   0.868   6.493   0.396  0.5291  3.0078 -1.2600
 9001TIP3   OH248493   2.818   2.730   1.641  0.4732 -0.0947 -0.7185
 9001TIP3    H148494   2.871   2.765   1.569  0.6537 -0.9750 -1.0273
 9001TIP3    H248495   2.784   2.648   1.607  0.6312 -0.5647  0.2412
 9002TIP3   OH248496   6.132   4.685   0.245 -0.2363 -0.1709  0.1940
 9002TIP3    H148497   6.108   4.608   0.194  0.4912 -0.8996  0.9268
 9002TIP3    H248498   6.171   4.650   0.326 -1.4778  0.9464  1.3289
 9003TIP3   OH248499   4.861   4.938  17.232  0.3063  0.1844  0.1713
 9003TIP3    H148500   4.870   4.844  17.217  0.2710  0.1270  0.5124
 9003TIP3    H248501   4.770   4.949  17.258  0.8265  0.0193  2.2504
 9004TIP3   OH248502   1.933   2.036  11.536  0.0461 -0.8469  0.3174
 9004TIP3    H148503   1.838   2.045  11.542  0.3257  2.4635  1.7513
 9004TIP3    H248504   1.959   2.101  11.471  1.4655  0.0767  1.7342
 9005TIP3   OH248505   0.317   5.490   2.241 -0.5024 -0.2863  0.3604
 9005TIP3    H148506   0.231   5.448   2.245 -0.7458  0.0888 -0.6192
 9005TIP3    H248507   0.304   5.566   2.185  0.7103 -0.7960 -0.6483
 9006TIP3   OH248508   3.980   6.364   2.283 -0.6732  0.2563 -0.0666
 9006TIP3    H148509   3.991   6.319   2.199  0.4723  0.8970 -0.2795
 9006TIP3    H248510   3.886   6.358   2.302 -0.7036 -1.3791 -0.5504
 9007TIP3   OH248511   5.795   4.195  14.590 -0.1023  0.2498 -0.0521
 9007TIP3    H148512   5.797   4.276  14.642  0.4456  1.3447 -1.7223
 9007TIP3    H248513   5.701   4.178  14.577 -0.2615 -0.1352  1.3744
 9008TIP3   OH248514   1.424   5.145  13.331 -0.0572  0.2460 -0.3070
 9008TIP3    H148515   1.382   5.128  13.247  0.5377  1.6512 -0.9302
 9008TIP3    H248516   1.424   5.241  13.339 -0.3666  0.1297  1.4428
 9009TIP3   OH248517   4.153   0.221   5.464 -0.1032 -0.0773  0.3452
 9009TIP3    H148518   4.080   0.164   5.488 -0.2802 -0.2549 -0.5767
 9009TIP3    H248519   4.137   0.242   5.372  1.1697 -0.3642  0.0403
 9010TIP3   OH248520   6.815   2.364  11.693  0.4628 -0.3009 -0.0448
 9010TIP3    H148521   6.880   2.388  11.758  2.1583 -4.0088 -0.1109
 9010TIP3    H248522   6.806   2.443  11.638  2.0143  1.5692  2.1780
 9011TIP3   OH248523   2.561   6.420  12.368 -0.1563 -0.0423  0.4857
 9011TIP3    H148524   2.519   6.427  12.282 -0.0242 -0.1707  0.4108
 9011TIP3    H248525   2.640   6.474  12.360  0.8194 -1.4678 -0.0662
 9012TIP3   OH248526   2.052   6.572   2.331 -0.0295 -0.6571 -0.0925
 9012TIP3    H148527   2.134   6.606   2.294  0.1646  0.0311  0.9221
 9012TIP3    H248528   2.071   6.482   2.354 -0.3675 -1.3640 -2.2776
 9013TIP3   OH248529   5.464   4.837   1.137 -0.4825  0.2210 -0.2414
 9013TIP3    H148530   5.503   4.916   1.173 -0.7407 -0.6868  2.2160
 9013TIP3    H248531   5.538   4.780   1.119 -0.3566  0.6496 -1.1314
 9014TIP3   OH248532   5.018   6.556   2.388  1.1403 -0.0228  0.1640
 9014TIP3    H148533   5.012   6.573   2.294  3.0382  0.5201  0.1046
 9014TIP3    H248534   4.961   6.480   2.402 -1.2861  1.4536 -0.9265
 9015TIP3   OH248535   0.222   5.120  13.701  0.8335 -0.0806  0.2623
 9015TIP3    H148536   0.145   5.092  13.651  0.7724  1.0267 -0.3071
 9015TIP3    H248537   0.294   5.118  13.638  1.0156  0.0745  0.4650
 9016TIP3   OH248538   3.818   3.487  14.811  0.0396 -0.0926  0.0568
 9016TIP3    H148539   3.855   3.401  14.833  0.3322  0.2679  1.0335
 9016TIP3    H248540   3.830   3.494  14.717  0.9576 -0.6959  0.1099
 9017TIP3   OH248541   4.098   5.913  16.448 -0.4448 -0.2625 -0.4861
 9017TIP3    H148542   4.176   5.912  16.504  0.3813 -1.2384 -1.6306
 9017TIP3    H248543   4.084   6.006  16.428  0.1460 -0.0432  0.0904
 9018TIP3   OH248544   0.012   3.458   2.265 -0.0745 -0.0006 -0.7486
 9018TIP3    H148545   0.045   3.369   2.255 -0.3416 -0.2179  0.2966
 9018TIP3    H248546   0.090   3.513   2.262  0.1084 -0.2809 -1.1897
 9019TIP3   OH248547   5.301   0.711  15.721  0.3840 -0.2581  0.1567
 9019TIP3    H148548   5.223   0.766  15.735  1.0858  0.3987  1.7666
 9019TIP3    H248549   5.372   0.760  15.761  1.3732 -1.5194  0.0106
 9020TIP3   OH248550   3.430   5.841  14.731 -0.6253 -0.3392  0.0036
 9020TIP3    H148551   3.420   5.757  14.687 -3.0726  0.8340 -1.9695
 9020TIP3    H248552   3.401   5.825  14.821 -0.8084 -1.6366 -0.2691
 9021TIP3   OH248553   0.341   5.521  12.261  0.4093  0.1715  0.1338
 9021TIP3    H148554   0.325   5.430  12.285 -2.0673  1.2596  3.3950
 9021TIP3    H248555   0.346   5.520  12.165 -0.3207 -3.2707  0.0065
 9022TIP3   OH248556   5.568   0.326  16.034  0.1945 -0.6440  0.2695
 9022TIP3    H148557   5.633   0.258  16.015 -0.6595 -0.9264 -1.8739
 9022TIP3    H248558   5.591   0.398  15.975 -0.4740 -0.0984  0.6587
 9023TIP3   OH248559   4.146   0.647  16.426  0.5991 -0.5173  0.0594
 9023TIP3    H148560   4.074   0.585  16.440 -2.0375  2.0786 -1.0362
 9023TIP3    H248561   4.168   0.678  16.514  0.3999 -1.3293  0.4080
 9024TIP3   OH248562   5.075   4.364  11.753 -0.4224  0.2106 -0.3845
 9024TIP3    H148563   4.988   4.324  11.749  0.3065 -1.3705 -1.5918
 9024TIP3    H248564   5.106   4.361  11.663  2.7573 -3.7021  0.5686
 9025TIP3   OH248565   0.452   5.924   5.166  0.1235  0.7283  0.4958
 9025TIP3    H148566   0.386   5.911   5.234 -0.6838 -1.2743 -0.5979
 9025TIP3    H248567   0.421   5.999   5.115 -0.1956  1.1038  1.2281
 9026TIP3   OH248568   3.810   4.773  13.525  0.0769  0.0051  0.0705
 9026TIP3    H148569   3.772   4.861  13.532 -1.1762 -0.4008 -1.0668
 9026TIP3    H248570   3.785   4.730  13.607  1.4957  0.9576  1.0507
 9027TIP3   OH248571   5.882   5.081   6.148  0.1620  0.3408  0.1576
 9027TIP3    H148572   5.890   5.172   6.176  3.7593  0.4630 -0.7541
 9027TIP3    H248573   5.879   5.085   6.053  1.8350 -0.4445  0.0216
 9028TIP3   OH248574   5.080   0.341  11.686 -0.4624 -0.4576  0.0104
 9028TIP3    H148575   5.061   0.429  11.719  0.5600 -0.6603  1.2421
 9028TIP3    H248576   4.995   0.297  11.685 -0.8392  0.2450  0.3111
 9029TIP3   OH248577   2.751   6.096   1.124 -0.4749  0.7311  0.5675
 9029TIP3    H148578   2.781   6.185   1.104  0.4560  0.1479 -0.7800
 9029TIP3    H248579   2.656   6.104   1.133 -0.5894  1.6334 -1.0275
 9030TIP3   OH248580   6.322   0.963   4.494  0.5030  0.1907 -0.1067
 9030TIP3    H148581   6.379   0.910   4.438 -0.2169 -1.0486  0.2918
 9030TIP3    H248582   6.362   0.957   4.581 -0.4790 -1.1420  0.2926
 9031TIP3   OH248583   6.300   1.829  11.534 -0.2186 -0.0250  0.0808
 9031TIP3    H148584   6.361   1.868  11.596 -0.4205 -0.7284  0.7528
 9031TIP3    H248585   6.223   1.886  11.536  0.4021  0.8605 -0.7686
 9032TIP3   OH248586   3.201   5.833  12.096 -0.8383  0.2837 -0.0932
 9032TIP3    H148587   3.293   5.825  12.122 -1.7258  0.1207  3.4188
 9032TIP3    H248588   3.186   5.758  12.038  0.9987 -0.1805 -0.0293
 9033TIP3   OH248589   0.546   6.327   3.068 -0.3017  0.5291 -0.0137
 9033TIP3    H148590   0.527   6.336   3.162 -1.3466  1.3776 -0.2795
 9033TIP3    H248591   0.534   6.415   3.033  1.6601  0.5668 -0.7020
 9034TIP3   OH248592   4.519   0.724   1.713 -0.6645 -0.2455  0.2014
 9034TIP3    H148593   4.540   0.632   1.699 -0.7180 -0.1280 -0.7511
 9034TIP3    H248594   4.601   0.770   1.695 -0.1259 -0.2120  2.4678
 9035TIP3   OH248595   4.240   4.958   6.054  0.4109  0.3543  0.1424
 9035TIP3    H148596   4.256   5.024   6.122  0.7836 -0.8788  1.3071
 9035TIP3    H248597   4.196   4.886   6.101 -0.4113 -0.0337 -1.1781
 9036TIP3   OH248598   6.299   2.300  13.741  0.8635  0.1429 -0.0013
 9036TIP3    H148599   6.303   2.278  13.648 -0.1787  0.4820 -0.1354
 9036TIP3    H248600   6.246   2.231  13.780  1.7337 -0.2896  0.4474
 9037TIP3   OH248601   5.095   2.649   5.516  0.1302 -0.2322  0.4830
 9037TIP3    H148602   5.062   2.593   5.445 -0.9391 -0.3083  1.0166
 9037TIP3    H248603   5.140   2.589   5.575  0.7430 -0.2158  0.0488
 9038TIP3   OH248604   2.116   2.460  11.366 -0.3955 -0.1982 -1.0902
 9038TIP3    H148605   2.181   2.395  11.341  1.6373  0.6034  1.6199
 9038TIP3    H248606   2.121   2.464  11.462 -2.1860  2.1886 -0.9889
 9039TIP3   OH248607   4.924   1.787  15.987 -0.1349 -0.6898  0.1065
 9039TIP3    H148608   5.001   1.845  15.984 -0.0776 -0.7570  0.2451
 9039TIP3    H248609   4.886   1.793  15.900  1.5510 -2.7095 -0.8686
 9040TIP3   OH248610   6.406   3.928  12.519  0.7572  0.0679  0.1008
 9040TIP3    H148611   6.486   3.876  12.511  0.4028 -0.4574 -0.0786
 9040TIP3    H248612   6.405   3.957  12.610  1.5984  0.8176 -0.1202
 9041TIP3   OH248613   6.472   3.505   6.413  0.1760  0.2926 -0.7411
 9041TIP3    H148614   6.385   3.542   6.401  0.2984  1.1405  0.7388
 9041TIP3    H248615   6.458   3.421   6.456  0.1036  1.1197  0.9558
 9042TIP3   OH248616   2.570   4.909  16.982  0.1706 -0.0375  0.4998
 9042TIP3    H148617   2.508   4.863  17.038  0.6437 -0.0472  1.0274
 9042TIP3    H248618   2.569   4.999  17.015  0.5317 -0.0675  0.5983
 9043TIP3   OH248619   5.885   1.157  14.101 -0.1981  0.1928 -0.8429
 9043TIP3    H148620   5.971   1.199  14.095  0.9623 -1.5716  1.6655
 9043TIP3    H248621   5.823   1.229  14.111  1.4603  1.4445  1.1587
 9044TIP3   OH248622   4.704   4.213   5.510 -0.3033  0.5097 -0.4602
 9044TIP3    H148623   4.729   4.302   5.534 -1.5721  0.1876  2.4033
 9044TIP3    H248624   4.712   4.162   5.591  0.6174 -2.0993 -2.0336
 9045TIP3   OH248625   5.093   4.485  12.855 -0.3144  0.1009 -0.4304
 9045TIP3    H148626   5.019   4.544  12.841  0.2712  0.5214 -2.0393
 9045TIP3    H248627   5.169   4.543  12.856 -0.0345 -0.2085  2.2076
 9046TIP3   OH248628   6.128   3.491   3.654 -0.6896 -0.1744  0.0567
 9046TIP3    H148629   6.079   3.564   3.614  2.1979  1.3522 -0.9643
 9046TIP3    H248630   6.169   3.530   3.731 -0.0729 -1.0555  0.1849
 9047TIP3   OH248631   4.162   1.667   2.082  0.2208 -0.3979  0.1211
 9047TIP3    H148632   4.216   1.730   2.130  0.2333 -0.2423 -0.0953
 9047TIP3    H248633   4.096   1.639   2.145 -0.0119  0.1106  0.1111
 9048TIP3   OH248634   5.855   5.919  12.577 -0.6862  0.0780 -0.0154
 9048TIP3    H148635   5.825   5.855  12.512 -0.1013 -0.6513  0.4310
 9048TIP3    H248636   5.914   5.977  12.528  0.9952 -1.3998  0.1748
 9049TIP3   OH248637   6.169   2.944  13.164 -0.4490  0.7147 -0.0468
 9049TIP3    H148638   6.261   2.957  13.140 -0.5983 -0.7472 -1.6547
 9049TIP3    H248639   6.126   3.026  13.140  0.1413  0.7447 -1.0581
 9050TIP3   OH248640   5.423   2.352  15.037  0.0447  0.6974 -0.1273
 9050TIP3    H148641   5.344   2.392  15.001 -2.3156 -0.2734  3.4609
 9050TIP3    H248642   5.427   2.384  15.128  3.8865  0.7214 -0.1343
 9051TIP3   OH248643   2.434   4.941   6.788 -0.1665  0.2308 -0.1661
 9051TIP3    H148644   2.341   4.963   6.784 -0.1938  0.5668  1.6731
 9051TIP3    H248645   2.477   5.012   6.740 -0.7378  1.0585  0.5010
 9052TIP3   OH248646   0.449   2.045   3.501  0.1964 -0.1871 -0.6665
 9052TIP3    H148647   0.399   2.126   3.515  1.7451  0.5572  1.1586
 9052TIP3    H248648   0.424   1.989   3.575  2.2253  0.3442  0.4901
 9053TIP3   OH248649   2.996   3.442  11.621 -0.5066 -0.7484  0.2860
 9053TIP3    H148650   2.928   3.427  11.555 -1.6671 -0.1560  1.2958
 9053TIP3    H248651   3.078   3.442  11.572 -1.3286 -0.3799 -1.1380
 9054TIP3   OH248652   5.960   0.923  16.706  0.1483  0.2885  0.0616
 9054TIP3    H148653   5.934   1.013  16.686  0.8088  0.3715 -0.4536
 9054TIP3    H248654   5.979   0.924  16.800  0.0203  0.6448  0.0847
 9055TIP3   OH248655   5.177   0.106  11.962  0.6753 -0.4820  0.2268
 9055TIP3    H148656   5.176   0.031  11.903  0.2642 -0.1352 -0.2167
 9055TIP3    H248657   5.094   0.151  11.945  0.3708 -0.5985  1.3625
 9056TIP3   OH248658   5.849   5.158   2.884  0.0088  0.8093  0.1902
 9056TIP3    H148659   5.924   5.104   2.860 -0.6586 -1.0275  1.9350
 9056TIP3    H248660   5.773   5.100   2.876 -0.6450  1.1092  2.9011
 9057TIP3   OH248661   2.223   6.543  15.825  0.1319 -0.6714  0.5044
 9057TIP3    H148662   2.283   6.613  15.851 -1.9908  0.9700  1.3102
 9057TIP3    H248663   2.243   6.527  15.733  0.9977  0.6845  0.4197
 9058TIP3   OH248664   4.788   1.892  16.235 -0.7450 -0.2454  0.1785
 9058TIP3    H148665   4.837   1.838  16.172  0.3688  0.6550  0.2416
 9058TIP3    H248666   4.704   1.906  16.193  0.1968  0.8766 -1.4602
 9059TIP3   OH248667   0.649   2.483   5.337  0.1659  0.4998  0.3839
 9059TIP3    H148668   0.627   2.390   5.344  0.6873  0.2382 -1.1533
 9059TIP3    H248669   0.743   2.487   5.350  0.0826  0.8889  0.9253
 9060TIP3   OH248670   0.820   4.515   5.434 -0.2086 -0.8330 -0.2250
 9060TIP3    H148671   0.768   4.439   5.405  0.5988 -1.9148  1.0469
 9060TIP3    H248672   0.838   4.498   5.526  1.5620  0.0027 -0.3743
 9061TIP3   OH248673   0.441   2.350  16.862  0.4061  0.1633  0.2570
 9061TIP3    H148674   0.448   2.400  16.943 -0.6910  0.0561  0.4343
 9061TIP3    H248675   0.447   2.416  16.793  1.3423  0.2553  0.4192
 9062TIP3   OH248676   0.999   2.473  16.768 -0.2046  0.1070  0.0528
 9062TIP3    H148677   1.083   2.508  16.740 -0.7140 -0.3244 -2.2443
 9062TIP3    H248678   1.017   2.381  16.789  0.1765  0.4192  1.1417
 9063TIP3   OH248679   6.108   4.212  12.902  0.0421  0.3291 -0.0764
 9063TIP3    H148680   6.090   4.230  12.995 -0.0337 -0.3607  0.0471
 9063TIP3    H248681   6.186   4.263  12.883  0.8933 -0.6046  0.7570
 9064TIP3   OH248682   5.716   6.509  14.474 -0.0494  0.6662 -1.0958
 9064TIP3    H148683   5.695   6.573  14.542 -1.5092 -2.2964  1.5424
 9064TIP3    H248684   5.811   6.499  14.479 -0.1191  0.5218  0.6145
 9065TIP3   OH248685   0.144   3.293   1.397 -0.5146  0.2351 -0.5136
 9065TIP3    H148686   0.239   3.300   1.391  0.1048 -2.1655  3.0146
 9065TIP3    H248687   0.119   3.237   1.323  0.5079  2.1678 -2.3969
 9066TIP3   OH248688   5.243   2.472  14.044  0.0107  0.1416  0.2474
 9066TIP3    H148689   5.165   2.468  14.099  0.3630 -0.7883  0.6878
 9066TIP3    H248690   5.316   2.457  14.103  0.3781 -1.1214 -0.4958
 9067TIP3   OH248691   6.094   6.625   2.459  0.5782  0.1667 -0.2087
 9067TIP3    H148692   6.078   6.625   2.554  0.0678  2.5154 -0.2431
 9067TIP3    H248693   6.168   6.566   2.448 -0.8706 -2.1128  1.3253
 9068TIP3   OH248694   1.636   0.630   0.133 -0.0084  0.0862  0.0863
 9068TIP3    H148695   1.599   0.716   0.153 -0.1634  0.3497 -1.2744
 9068TIP3    H248696   1.696   0.613   0.206  0.1289  1.4110  0.3146
 9069TIP3   OH248697   4.048   3.443  16.143 -0.0264 -0.0887 -0.3379
 9069TIP3    H148698   4.113   3.488  16.197  0.4798 -0.3333 -0.7326
 9069TIP3    H248699   4.037   3.358  16.186 -0.9868  0.3944  0.4124
 9070TIP3   OH248700   4.779   0.880  11.868 -0.0298  0.1332 -0.0915
 9070TIP3    H148701   4.741   0.808  11.920  1.5078 -0.9926 -0.4774
 9070TIP3    H248702   4.840   0.923  11.928 -2.2507  2.3557  0.7379
 9071TIP3   OH248703   1.192   6.034   6.391 -0.0712  0.6912  0.6364
 9071TIP3    H148704   1.243   5.965   6.432 -1.4151  0.9334  2.8701
 9071TIP3    H248705   1.194   6.106   6.454 -0.8476  1.7350 -0.4816
 9072TIP3   OH248706   3.665   4.543  14.027 -0.5895 -0.2659  0.0263
 9072TIP3    H148707   3.712   4.576  14.104  1.3424 -1.4290 -0.5890
 9072TIP3    H248708   3.593   4.492  14.062 -1.0580  1.0123  1.0130
 9073TIP3   OH248709   3.728   5.766  10.847 -0.2871 -0.0018  0.4808
 9073TIP3    H148710   3.710   5.795  10.936 -0.4422  1.6093 -0.0519
 9073TIP3    H248711   3.674   5.687  10.836  1.3429 -1.4825  2.4804
 9074TIP3   OH248712   5.759   4.208   4.255 -0.3385  0.3014 -0.7060
 9074TIP3    H148713   5.719   4.231   4.339 -1.5062 -2.3318 -0.4463
 9074TIP3    H248714   5.753   4.288   4.203 -1.0493  1.5374  1.1654
 9075TIP3   OH248715   0.514   4.126  16.057 -0.0700 -0.3111 -0.7576
 9075TIP3    H148716   0.586   4.071  16.089  0.1799  0.7233  0.5658
 9075TIP3    H248717   0.557   4.186  15.996  0.6700  1.6285  1.5176
 9076TIP3   OH248718   6.723   5.210  16.933  0.0940  0.0914  0.1561
 9076TIP3    H148719   6.644   5.166  16.902  0.5773  0.3140 -1.4624
 9076TIP3    H248720   6.693   5.268  17.003 -1.0869 -0.1650 -0.1285
 9077TIP3   OH248721   5.111   3.336  13.771  0.3169  0.3265  0.0138
 9077TIP3    H148722   5.027   3.369  13.737  0.2636  0.3977  0.2102
 9077TIP3    H248723   5.176   3.366  13.708  0.1796  0.1661 -0.2040
 9078TIP3   OH248724   1.537   4.218   5.013  0.7953 -0.0364  0.1007
 9078TIP3    H148725   1.594   4.219   4.936 -0.7771 -1.7099 -1.1894
 9078TIP3    H248726   1.492   4.303   5.010  1.8971  0.5607  0.1097
 9079TIP3   OH248727   2.804   3.976  14.778  0.0226  0.1905  0.0949
 9079TIP3    H148728   2.852   4.009  14.702  1.4057  0.6054  1.1085
 9079TIP3    H248729   2.864   3.914  14.820 -1.0861 -0.7603  0.3359
 9080TIP3   OH248730   1.500   4.010  17.006  0.2080 -0.0178  0.1740
 9080TIP3    H148731   1.447   3.955  17.064 -1.3920  2.8669  1.6679
 9080TIP3    H248732   1.568   4.047  17.063  1.2274 -0.3596 -0.7849
 9081TIP3   OH248733   1.553   3.438   1.762 -0.4294  0.7091 -0.2326
 9081TIP3    H148734   1.485   3.433   1.695 -0.9657  1.5993  0.2217
 9081TIP3    H248735   1.575   3.531   1.766  0.3637  0.5115  0.0689
 9082TIP3   OH248736   6.304   2.710   0.134 -0.0587 -0.4202 -0.1823
 9082TIP3    H148737   6.265   2.718   0.220  2.5415 -0.2725  1.0968
 9082TIP3    H248738   6.318   2.616   0.123  0.8353 -0.3413  0.1904
 9083TIP3   OH248739   0.401   3.545   3.529 -0.6186 -0.0273  0.4411
 9083TIP3    H148740   0.377   3.547   3.436 -0.7146  0.8887  0.4727
 9083TIP3    H248741   0.447   3.628   3.543 -0.9897  0.0420  1.3100
 9084TIP3   OH248742   4.192   6.727  14.675  0.6736  0.0237 -0.1821
 9084TIP3    H148743   4.172   6.727  14.581  0.2730  1.0480 -0.1109
 9084TIP3    H248744   4.263   6.664  14.684  2.2300  1.4981 -1.5212
 9085TIP3   OH248745   0.320   2.342   1.333  0.6073  0.6217  0.1942
 9085TIP3    H148746   0.258   2.273   1.314 -0.6440  1.4618  1.0854
 9085TIP3    H248747   0.338   2.333   1.427  1.8468  0.3974 -0.0448
 9086TIP3   OH248748   4.650   4.101  14.795 -0.1291 -0.1179  0.0990
 9086TIP3    H148749   4.625   4.184  14.836  1.5207  0.8557 -0.7540
 9086TIP3    H248750   4.730   4.122  14.747 -0.6625 -1.7763 -1.6328
 9087TIP3   OH248751   5.791   0.716  16.832 -0.6577 -0.4580 -0.3775
 9087TIP3    H148752   5.788   0.704  16.927  1.6467 -0.1080 -0.1975
 9087TIP3    H248753   5.836   0.800  16.820 -2.6991  0.5408 -1.8079
 9088TIP3   OH248754   6.367   6.689  14.700  0.2325 -0.0856  0.1063
 9088TIP3    H148755   6.367   6.622  14.768 -0.6518  0.4383  0.6487
 9088TIP3    H248756   6.299   6.661  14.638  0.4610 -0.1303 -0.1279
 9089TIP3   OH248757   3.853   5.331  15.526 -0.3224 -0.2348 -0.0952
 9089TIP3    H148758   3.835   5.270  15.596  1.6294  0.4756  1.1017
 9089TIP3    H248759   3.777   5.390  15.524 -1.4967 -1.7100 -0.2484
 9090TIP3   OH248760   6.801   0.795   5.331 -0.0736  0.2344  0.3729
 9090TIP3    H148761   6.794   0.882   5.370 -0.5928 -0.0707  0.9757
 9090TIP3    H248762   6.887   0.763   5.360  0.2833  0.6824 -0.1570
 9091TIP3   OH248763   4.479   1.374  14.859 -0.6159  0.7746  0.4428
 9091TIP3    H148764   4.450   1.463  14.879 -2.4176  0.0306  1.3320
 9091TIP3    H248765   4.399   1.322  14.858  0.4041 -0.8635 -0.0468
 9092TIP3   OH248766   6.015   3.166  13.053  0.2794 -0.2963  0.1086
 9092TIP3    H148767   5.924   3.193  13.038 -0.0468 -1.2818  0.2252
 9092TIP3    H248768   6.051   3.157  12.965 -0.2277 -1.4664  0.0010
 9093TIP3   OH248769   2.195   3.492   3.570 -0.2652 -0.3700  0.2373
 9093TIP3    H148770   2.286   3.513   3.594 -0.0269 -1.8356  0.7349
 9093TIP3    H248771   2.180   3.540   3.489  1.4434 -1.1916 -0.6211
 9094TIP3   OH248772   1.254   0.112   1.192  0.4881 -0.0239 -0.2568
 9094TIP3    H148773   1.197   0.044   1.227 -1.3970  1.1983 -0.7917
 9094TIP3    H248774   1.320   0.126   1.261 -1.7484  0.7033  1.8854
 9095TIP3   OH248775   0.036   3.891  11.877 -0.2326 -0.0703  0.6682
 9095TIP3    H148776  -0.009   3.901  11.794 -0.2859  0.2825  0.7390
 9095TIP3    H248777   0.121   3.854  11.855 -0.8333 -1.4743  0.5980
 9096TIP3   OH248778   5.727   1.369  15.328 -0.5031 -0.4195 -0.5021
 9096TIP3    H148779   5.668   1.374  15.404  0.4044 -1.2771  0.2930
 9096TIP3    H248780   5.676   1.323  15.261 -0.6848 -1.3427  0.2488
 9097TIP3   OH248781   1.555   6.741  11.061  0.5413 -0.1140  0.1333
 9097TIP3    H148782   1.519   6.728  10.974  0.6833 -0.5990  0.1471
 9097TIP3    H248783   1.650   6.750  11.046  0.5646 -0.1885  0.2363
 9098TIP3   OH248784   1.719   5.883  15.603 -0.0148  0.5117 -0.4757
 9098TIP3    H148785   1.770   5.952  15.646  2.2243 -0.2410 -1.7785
 9098TIP3    H248786   1.629   5.915  15.607  0.7817  2.9693  0.0017
 9099TIP3   OH248787   4.279   0.120  16.462  0.2857  0.0853 -0.8407
 9099TIP3    H148788   4.259   0.139  16.553 -0.4977  1.0482 -1.1849
 9099TIP3    H248789   4.213   0.056  16.435 -0.7645  1.2932 -1.2536
 9100TIP3   OH248790   0.162   3.450  16.047 -0.1924 -0.3123  0.5651
 9100TIP3    H148791   0.225   3.380  16.035 -1.7610 -1.7373  0.2859
 9100TIP3    H248792   0.200   3.504  16.117  1.5365 -0.8207  0.0737
 9101TIP3   OH248793   3.606   6.090  14.969  0.4408  0.3329 -0.1985
 9101TIP3    H148794   3.543   6.072  15.038  1.7984  1.0699  1.3097
 9101TIP3    H248795   3.557   6.143  14.906 -0.6150  0.3942  0.6319
 9102TIP3   OH248796   4.737   5.754   1.703 -0.5019  0.0893 -0.2335
 9102TIP3    H148797   4.822   5.791   1.724 -1.2543  1.4961  0.4924
 9102TIP3    H248798   4.756   5.669   1.663  1.2833  1.0448 -1.5201
 9103TIP3   OH248799   4.024   0.908  13.298  0.1935  0.2121 -0.6123
 9103TIP3    H148800   3.982   0.990  13.322  0.2617 -0.2191  1.1068
 9103TIP3    H248801   4.032   0.860  13.380  0.2604 -1.4743 -1.5475
 9104TIP3   OH248802   1.259   2.636  12.878  0.1479 -0.2280  0.3826
 9104TIP3    H148803   1.303   2.697  12.819 -0.5578  0.2789  0.3617
 9104TIP3    H248804   1.220   2.693  12.945  0.6269 -0.7666  1.1312
 9105TIP3   OH248805   0.323   5.176   5.424 -0.0874 -0.8254  0.1270
 9105TIP3    H148806   0.238   5.189   5.466 -1.2953  1.2175 -2.6271
 9105TIP3    H248807   0.305   5.116   5.352  0.2579  1.0800 -1.6551
 9106TIP3   OH248808   6.537   5.248  10.589 -0.8368 -0.1379  0.0193
 9106TIP3    H148809   6.466   5.312  10.597 -0.7133  0.0554 -0.4114
 9106TIP3    H248810   6.512   5.195  10.513 -0.4250  0.0522 -0.2500
 9107TIP3   OH248811   3.041   3.633   6.220 -0.0199 -0.0332  0.4788
 9107TIP3    H148812   3.132   3.665   6.220 -0.3375  0.9475  1.5302
 9107TIP3    H248813   3.049   3.539   6.208  1.2868 -0.2160  2.2759
 9108TIP3   OH248814   6.171   0.254   5.888 -0.0979 -0.5310 -0.0269
 9108TIP3    H148815   6.168   0.161   5.908 -1.8585 -0.6719 -0.8051
 9108TIP3    H248816   6.178   0.259   5.793 -0.1135  0.1418 -0.0006
 9109TIP3   OH248817   3.539   1.506   5.109 -0.0683 -0.1804 -1.0012
 9109TIP3    H148818   3.509   1.420   5.139  1.0056 -0.6815 -1.3292
 9109TIP3    H248819   3.561   1.493   5.017  0.0775  0.4601 -1.0596
 9110TIP3   OH248820   1.667   3.392   3.904  1.0372 -0.0469 -0.3801
 9110TIP3    H148821   1.662   3.419   3.812 -2.9455 -0.9693 -0.6387
 9110TIP3    H248822   1.631   3.466   3.953 -1.8531 -1.3885 -0.2468
 9111TIP3   OH248823   3.257   4.393   4.368  0.0443  0.6881  0.2331
 9111TIP3    H148824   3.223   4.478   4.338  1.9396  1.4855  0.2109
 9111TIP3    H248825   3.330   4.374   4.310  0.9659  0.0779  1.5268
 9112TIP3   OH248826   2.485   0.598  16.666  0.0077 -0.7529  0.0117
 9112TIP3    H148827   2.390   0.591  16.659 -0.0905  0.0726  0.3207
 9112TIP3    H248828   2.516   0.600  16.576 -0.2596 -1.1455 -0.0876
 9113TIP3   OH248829   2.238   0.373   3.802 -0.2235  0.7220 -1.0278
 9113TIP3    H148830   2.316   0.409   3.760  0.1235 -0.7602 -1.7033
 9113TIP3    H248831   2.169   0.438   3.784  0.9901  2.4984  0.3534
 9114TIP3   OH248832   2.580   1.303  17.160 -0.2076  0.1198  0.3379
 9114TIP3    H148833   2.667   1.337  17.139 -0.7972  0.8643 -1.0582
 9114TIP3    H248834   2.593   1.248  17.237  1.4530  0.3959  0.2834
 9115TIP3   OH248835   2.065   3.220   1.760 -0.3192 -0.7734  0.1759
 9115TIP3    H148836   1.991   3.270   1.724  0.2626 -0.2532 -0.3230
 9115TIP3    H248837   2.111   3.282   1.816  0.4437 -0.7208 -0.4912
 9116TIP3   OH248838   4.603   0.780   1.404  0.2925  0.1682 -0.0792
 9116TIP3    H148839   4.685   0.810   1.444  0.4233  2.1101 -1.6310
 9116TIP3    H248840   4.536   0.838   1.440 -0.3210 -0.9998  0.6962
 9117TIP3   OH248841   6.140   0.419  13.402 -0.0248 -0.4305  0.5106
 9117TIP3    H148842   6.054   0.460  13.402  0.0639 -0.1713 -1.0854
 9117TIP3    H248843   6.187   0.461  13.330  1.1652 -1.1275  0.8433
 9118TIP3   OH248844   2.029   0.678  13.763  0.1571  1.2106  0.1942
 9118TIP3    H148845   2.121   0.673  13.787  0.3430 -0.4067 -0.7704
 9118TIP3    H248846   2.020   0.622  13.687 -2.2564 -1.5293  2.2541
 9119TIP3   OH248847   1.065   0.037  15.658 -0.1487  0.1201  1.1894
 9119TIP3    H148848   1.129   0.051  15.728  1.4664  1.0032 -0.3780
 9119TIP3    H248849   1.064   0.120  15.610 -1.1135 -0.5071  0.0756
 9120TIP3   OH248850   5.785   1.072   2.076  0.0939  0.4476  0.0446
 9120TIP3    H148851   5.720   1.126   2.122  0.8242  0.7803  0.7251
 9120TIP3    H248852   5.749   0.983   2.078  0.5434  0.2514  2.2150
 9121TIP3   OH248853   4.294   1.983   5.459  0.6432  0.6851 -0.3050
 9121TIP3    H148854   4.259   1.903   5.420  1.1577  0.8862 -1.2116
 9121TIP3    H248855   4.357   2.015   5.395  2.5632  0.2858  1.2898
 9122TIP3   OH248856   5.590   1.413   4.162 -0.0460  0.4460  0.0632
 9122TIP3    H148857   5.677   1.382   4.189 -0.7656 -1.6713  0.1207
 9122TIP3    H248858   5.608   1.480   4.096  1.6254 -0.0555 -0.0354
 9123TIP3   OH248859   4.659   0.315  15.839 -0.3962  0.4388 -0.1008
 9123TIP3    H148860   4.691   0.273  15.759  0.5304  0.7774  0.0830
 9123TIP3    H248861   4.576   0.355  15.813 -0.9829 -0.9204 -0.4418
 9124TIP3   OH248862   1.083   4.021   0.103  0.4722  0.4744 -0.0085
 9124TIP3    H148863   1.138   4.037   0.180  1.1028 -0.9571 -0.1271
 9124TIP3    H248864   0.999   4.063   0.124  0.7716  0.4677  1.2794
 9125TIP3   OH248865   4.290   4.067   5.207 -0.2856 -0.0087  0.3672
 9125TIP3    H148866   4.306   3.973   5.205 -0.3199 -0.0221  0.6633
 9125TIP3    H248867   4.370   4.104   5.245 -0.7209 -0.0266  1.3350
 9126TIP3   OH248868   3.410   4.400  16.959 -0.0780 -0.3782 -0.1271
 9126TIP3    H148869   3.476   4.343  16.999  0.1899  0.1013  0.1198
 9126TIP3    H248870   3.359   4.342  16.903  1.7925 -0.4372 -1.9087
 9127TIP3   OH248871   6.273   0.748  14.113  0.3228  0.1596 -0.1245
 9127TIP3    H148872   6.196   0.803  14.127 -0.7725 -0.4329 -3.0559
 9127TIP3    H248873   6.255   0.668  14.162  0.4165  1.0753  1.4757
 9128TIP3   OH248874   2.931   5.649  14.064 -0.6985 -0.5849  0.0078
 9128TIP3    H148875   2.933   5.737  14.103 -0.3001 -1.2356  1.5084
 9128TIP3    H248876   2.972   5.661  13.978 -0.8941  0.7475  0.0675
 9129TIP3   OH248877   0.439   5.734  10.780 -0.4535  0.7958 -0.1400
 9129TIP3    H148878   0.456   5.818  10.821  2.9600  0.5474 -0.6939
 9129TIP3    H248879   0.396   5.755  10.697  0.0635  1.9716 -0.1224
 9130TIP3   OH248880   3.788   2.225  16.813 -0.3435  0.0056 -0.0572
 9130TIP3    H148881   3.728   2.243  16.741  0.6467 -1.0480 -1.2027
 9130TIP3    H248882   3.846   2.301  16.817 -1.3417  0.7486  0.6539
 9131TIP3   OH248883   5.261   1.040  14.640  0.8744 -0.6098  0.4065
 9131TIP3    H148884   5.174   1.010  14.666  0.1660  1.0106  0.0340
 9131TIP3    H248885   5.321   0.981  14.684 -0.4175 -1.8337  0.5814
 9132TIP3   OH248886   2.489   2.997  11.395 -0.1012 -0.1083  0.0918
 9132TIP3    H148887   2.560   2.949  11.437  2.1119  3.5795  1.0058
 9132TIP3    H248888   2.507   2.988  11.301  0.8424 -0.2715  0.2730
 9133TIP3   OH248889   6.565   0.380  11.214  0.5018 -0.8591 -0.1786
 9133TIP3    H148890   6.579   0.426  11.132  1.5225 -1.2490 -0.2372
 9133TIP3    H248891   6.620   0.426  11.277 -1.3839  0.3522  0.6490
 9134TIP3   OH248892   5.289   2.436  12.018 -0.0729 -0.0696  0.7774
 9134TIP3    H148893   5.381   2.446  11.996  0.0792 -1.6861  0.5645
 9134TIP3    H248894   5.242   2.457  11.936  0.1557 -0.1077  0.6368
 9135TIP3   OH248895   0.137   2.368  14.294  0.5574 -0.1775  0.1564
 9135TIP3    H148896   0.165   2.338  14.208 -0.8361 -2.0847  0.2917
 9135TIP3    H248897   0.210   2.421  14.327  1.7069 -0.6124 -1.5909
 9136TIP3   OH248898   3.940   3.605   4.008  0.2927  0.6353  0.3090
 9136TIP3    H148899   4.023   3.643   4.037  1.8735 -2.0554 -0.4401
 9136TIP3    H248900   3.936   3.624   3.915 -0.4896  1.6505  0.5295
 9137TIP3   OH248901   5.719   6.534  11.032  0.0424  0.1347 -0.0816
 9137TIP3    H148902   5.706   6.476  10.956 -1.3537  2.0632 -1.4290
 9137TIP3    H248903   5.635   6.530  11.078  0.7615 -0.7279  1.2050
 9138TIP3   OH248904   1.148   0.385  16.542  0.4740 -0.5690  0.2908
 9138TIP3    H148905   1.070   0.435  16.563  0.2420 -0.6983 -0.2648
 9138TIP3    H248906   1.119   0.319  16.479  1.1524 -0.2278 -0.3972
 9139TIP3   OH248907   3.510   4.013   4.826  0.1872 -0.7115 -0.6923
 9139TIP3    H148908   3.590   4.066   4.825 -1.1399  1.5561 -3.7883
 9139TIP3    H248909   3.447   4.068   4.874  0.0634 -1.8664  0.5242
 9140TIP3   OH248910   0.863   4.690  11.507  0.3095  0.1376  0.0665
 9140TIP3    H148911   0.829   4.617  11.455 -1.9519 -0.4777  2.2040
 9140TIP3    H248912   0.945   4.657  11.544  1.7038  0.4129 -2.5398
 9141TIP3   OH248913   2.749   6.741  13.150  0.9812 -0.0185 -0.1152
 9141TIP3    H148914   2.743   6.738  13.245  0.3634 -1.7585 -0.1621
 9141TIP3    H248915   2.843   6.737  13.131  1.0778 -0.2564  0.4107
 9142TIP3   OH248916   0.253   6.367  14.372 -0.2701 -0.3249  0.7213
 9142TIP3    H148917   0.302   6.371  14.454  0.0476 -0.3056  0.5345
 9142TIP3    H248918   0.161   6.363  14.398 -0.2250  0.6496  1.0600
 9143TIP3   OH248919   1.382   5.993   2.040 -0.1828  0.2568  0.0493
 9143TIP3    H148920   1.454   5.987   1.978  1.8632  1.0450  2.2261
 9143TIP3    H248921   1.328   6.065   2.007 -1.2243 -1.5812 -2.6827
 9144TIP3   OH248922   0.677   0.544   2.144 -0.3730  0.0432 -0.0145
 9144TIP3    H148923   0.768   0.530   2.115 -0.0056  1.1578  0.5634
 9144TIP3    H248924   0.680   0.623   2.197 -2.1086  1.6621 -2.0941
 9145TIP3   OH248925   0.278   3.801   0.741 -0.3500  0.2489 -0.2457
 9145TIP3    H148926   0.337   3.790   0.816  1.6305 -0.7979 -1.8931
 9145TIP3    H248927   0.281   3.895   0.723  0.3653  0.2899  0.0385
 9146TIP3   OH248928   5.041   5.702  13.795  0.2559  0.7642  0.1427
 9146TIP3    H148929   5.126   5.695  13.837 -0.1613  1.7563  1.1985
 9146TIP3    H248930   5.014   5.611  13.779  1.6342  0.4497 -0.5155
 9147TIP3   OH248931   5.952   5.025   3.698 -0.3894  0.5554  0.1247
 9147TIP3    H148932   6.039   5.058   3.676  0.4911 -0.0402  2.3547
 9147TIP3    H248933   5.923   4.979   3.620  1.8644 -0.3023 -0.2987
 9148TIP3   OH248934   1.112   6.556   4.255 -0.5503 -0.6243 -0.7750
 9148TIP3    H148935   1.070   6.629   4.209 -2.8313 -0.2638  1.6275
 9148TIP3    H248936   1.140   6.593   4.338  1.3478 -1.7768 -0.8383
 9149TIP3   OH248937   4.378   3.433  15.105  0.0646 -0.1349 -0.2841
 9149TIP3    H148938   4.364   3.522  15.137  0.2498 -0.1337 -0.2087
 9149TIP3    H248939   4.376   3.379  15.184 -2.3002 -0.4807 -0.5085
 9150TIP3   OH248940   3.498   5.780  14.349 -0.3351  0.3872  0.3554
 9150TIP3    H148941   3.448   5.711  14.392  0.6902  0.3797  1.5992
 9150TIP3    H248942   3.540   5.737  14.275  0.5273 -0.4099  1.2836
 9151TIP3   OH248943   4.899   1.577   4.421  0.8216 -0.7695 -0.1748
 9151TIP3    H148944   4.981   1.602   4.380  0.0014 -2.7916 -3.3595
 9151TIP3    H248945   4.906   1.483   4.436 -1.1793 -1.1664 -1.3363
 9152TIP3   OH248946   1.607   6.459  13.985 -0.2910  0.5764  0.2654
 9152TIP3    H148947   1.663   6.461  13.907  1.1146  1.5753  1.2332
 9152TIP3    H248948   1.520   6.440  13.952  0.1430  1.6245 -1.6318
 9153TIP3   OH248949   6.641   6.683   4.158  0.3432 -0.3908 -0.3149
 9153TIP3    H148950   6.633   6.763   4.106 -1.6281 -0.0133  0.4954
 9153TIP3    H248951   6.670   6.616   4.096 -2.5677 -0.1266 -2.1305
 9154TIP3   OH248952   3.612   5.151  15.324 -0.4681 -0.1898  0.7032
 9154TIP3    H148953   3.676   5.130  15.392 -0.3036  0.4079  0.7427
 9154TIP3    H248954   3.558   5.072  15.316  0.3419 -0.7374  0.5946
 9155TIP3   OH248955   0.801   0.200   5.038  0.4597  0.3282 -0.0680
 9155TIP3    H148956   0.815   0.235   5.126  0.5056  0.2053 -0.0263
 9155TIP3    H248957   0.882   0.154   5.017  0.3176  0.0635 -0.0366
 9156TIP3   OH248958   5.141   0.823  13.468  0.4037  0.6139 -0.6370
 9156TIP3    H148959   5.144   0.833  13.373  1.2460 -1.4684 -0.8810
 9156TIP3    H248960   5.171   0.734  13.484 -2.2777 -0.0457  1.4479
 9157TIP3   OH248961   1.708   5.786  12.710  0.2834 -0.2000 -0.3313
 9157TIP3    H148962   1.722   5.818  12.621  0.1948  2.3380  0.4827
 9157TIP3    H248963   1.794   5.793  12.752 -0.2241  1.2361  0.5147
 9158TIP3   OH248964   4.483   0.356  14.845 -0.1376  0.2219  0.6507
 9158TIP3    H148965   4.569   0.367  14.802 -1.1190  0.0051 -1.4978
 9158TIP3    H248966   4.435   0.298  14.786 -1.8286  0.4924  1.7286
 9159TIP3   OH248967   3.538   3.216  13.704  0.1208  0.3539 -0.0975
 9159TIP3    H148968   3.550   3.212  13.799 -1.4905 -1.5508  0.1032
 9159TIP3    H248969   3.448   3.246  13.692 -1.0930 -3.0167 -0.7821
 9160TIP3   OH248970   3.726   2.564  13.403 -0.0445  0.1517  0.1048
 9160TIP3    H148971   3.811   2.603  13.422 -0.6564  1.5531  0.0759
 9160TIP3    H248972   3.719   2.567  13.307 -0.6611  1.2528  0.1725
 9161TIP3   OH248973   3.787   3.188   2.325  0.0111  0.1583  0.3912
 9161TIP3    H148974   3.790   3.147   2.239 -2.3841 -1.5151  1.0001
 9161TIP3    H248975   3.808   3.280   2.309 -1.7828  0.2206 -2.2354
 9162TIP3   OH248976   0.523   6.198   6.206 -0.0728 -0.1342  0.0341
 9162TIP3    H148977   0.463   6.176   6.277 -0.5865  0.2085 -0.2912
 9162TIP3    H248978   0.494   6.145   6.132 -0.0275  0.0930 -0.1494
 9163TIP3   OH248979   2.680   5.870   1.326 -0.2645  0.1244 -0.3434
 9163TIP3    H148980   2.622   5.924   1.381  0.4096 -0.1044  0.6176
 9163TIP3    H248981   2.749   5.841   1.385 -0.6944 -1.9495 -0.7846
 9164TIP3   OH248982   1.677   1.636   6.476 -0.3089  0.4874 -0.1317
 9164TIP3    H148983   1.727   1.622   6.395  0.6553  1.0743  0.3371
 9164TIP3    H248984   1.637   1.722   6.465  0.0589  0.6948  0.1213
 9165TIP3   OH248985   2.821   0.355  14.809 -0.5106 -0.2313  0.2088
 9165TIP3    H148986   2.758   0.377  14.878 -2.2270  0.2368 -1.4262
 9165TIP3    H248987   2.790   0.271  14.775 -0.2549  0.0120 -0.6272
 9166TIP3   OH248988   2.384   6.395  12.174 -0.5665  0.5848 -0.3195
 9166TIP3    H148989   2.366   6.342  12.097 -0.1404  1.8554 -1.3211
 9166TIP3    H248990   2.303   6.445  12.187 -0.1884  1.3235 -0.7431
 9167TIP3   OH248991   4.325   6.072  14.482 -0.7485  0.0734 -0.3325
 9167TIP3    H148992   4.254   6.008  14.473  0.1364 -1.0410  0.2674
 9167TIP3    H248993   4.366   6.051  14.566  0.3323  0.6362 -0.6940
 9168TIP3   OH248994   3.732   4.592  11.027  0.2035 -0.2889  0.0773
 9168TIP3    H148995   3.654   4.612  11.079 -0.0282 -0.1361 -0.3286
 9168TIP3    H248996   3.735   4.660  10.961  0.6874 -0.2928  0.0916
 9169TIP3   OH248997   1.963   2.974   0.461  0.9444 -0.0475  0.4073
 9169TIP3    H148998   1.979   2.881   0.474 -1.3329 -0.5969 -0.2762
 9169TIP3    H248999   1.988   2.991   0.370  2.1981  0.2380  0.7907
 9170TIP3   OH249000   5.128   5.383   6.052  0.5438  0.3660 -0.0973
 9170TIP3    H149001   5.103   5.381   6.144 -0.6937  1.1433 -0.3879
 9170TIP3    H249002   5.096   5.300   6.016  2.0884 -0.4780  0.4010
 9171TIP3   OH249003   0.847   0.974   5.254 -0.6064  0.3442  0.4242
 9171TIP3    H149004   0.755   0.962   5.277 -0.5231 -0.8285  0.2311
 9171TIP3    H249005   0.895   0.952   5.334 -0.3656 -2.6914 -0.4275
 9172TIP3   OH249006   5.645   2.777  14.310 -0.4132 -0.4330 -0.5615
 9172TIP3    H149007   5.673   2.863  14.341  0.2630 -1.0243  0.5621
 9172TIP3    H249008   5.668   2.776  14.218 -0.7494  0.7145 -0.6750
 9173TIP3   OH249009   0.617   6.372  14.328  0.3817  0.4286 -0.3345
 9173TIP3    H149010   0.694   6.426  14.309 -0.4520  1.7224 -0.1510
 9173TIP3    H249011   0.545   6.417  14.283 -0.1233 -1.3144 -1.3666
 9174TIP3   OH249012   6.546   6.006   1.113  0.5049 -0.0651 -0.5040
 9174TIP3    H149013   6.455   6.031   1.124  0.4595  0.0313 -1.0527
 9174TIP3    H249014   6.586   6.019   1.199  0.3414  1.3173 -0.6146
 9175TIP3   OH249015   6.694   6.384   1.926 -0.3991 -0.3399 -0.3499
 9175TIP3    H149016   6.706   6.442   2.001  1.6666 -0.2559 -0.6753
 9175TIP3    H249017   6.777   6.391   1.878 -1.1725 -1.4225 -1.9040
 9176TIP3   OH249018   5.291   6.784   5.896 -0.4750 -0.4941  0.0210
 9176TIP3    H149019   5.267   6.823   5.980 -0.3416  0.2097 -0.2582
 9176TIP3    H249020   5.289   6.858   5.834  1.1623 -0.6552 -0.2547
 9177TIP3   OH249021   1.038   0.545   6.119  0.2447  0.1653  0.1232
 9177TIP3    H149022   1.010   0.453   6.115 -2.3473  0.9116 -1.0110
 9177TIP3    H249023   0.998   0.579   6.199  1.2107  0.3257  0.5498
 9178TIP3   OH249024   2.834   0.323  11.430 -0.5534 -0.1435  0.2803
 9178TIP3    H149025   2.875   0.409  11.439 -2.1112  0.6413  0.2300
 9178TIP3    H249026   2.793   0.325  11.343 -2.9593  0.1803  1.3341
 9179TIP3   OH249027   6.059   1.575   6.007  0.0632  0.3125 -0.1241
 9179TIP3    H149028   6.086   1.510   5.943 -1.4349 -0.4231 -0.0408
 9179TIP3    H249029   6.141   1.604   6.048  0.9061 -0.2233 -1.3742
 9180TIP3   OH249030   4.192   1.565  12.828  0.2094 -0.0474 -0.7906
 9180TIP3    H149031   4.186   1.616  12.747  0.4363 -0.2105 -0.9139
 9180TIP3    H249032   4.104   1.530  12.841 -0.1378  0.9788 -0.2986
 9181TIP3   OH249033   0.912   5.816   6.292  0.3652  0.4649  0.1241
 9181TIP3    H149034   0.828   5.779   6.319 -0.5755  1.2924 -1.4860
 9181TIP3    H249035   0.942   5.757   6.222 -0.5832  1.9787 -1.6516
 9182TIP3   OH249036   2.749   4.348  15.016  0.3293 -0.1828  0.4168
 9182TIP3    H149037   2.736   4.430  15.065  0.2462  0.4726 -0.6730
 9182TIP3    H249038   2.830   4.362  14.967  0.3801 -0.8047  0.3247
 9183TIP3   OH249039   5.102   6.330   1.605 -0.2400  0.3579 -0.4013
 9183TIP3    H149040   5.015   6.310   1.639 -0.8419  0.1422 -1.9593
 9183TIP3    H249041   5.113   6.424   1.619 -1.3700  0.6827 -1.4984
 9184TIP3   OH249042   5.939   4.335   4.554  0.2310  0.6205  0.6308
 9184TIP3    H149043   5.846   4.337   4.577 -0.0342  1.6723 -0.4437
 9184TIP3    H249044   5.940   4.320   4.460  1.1800 -0.0187  0.7327
 9185TIP3   OH249045   3.624   2.137   6.707 -0.0026  0.1538 -0.0444
 9185TIP3    H149046   3.580   2.212   6.667 -0.0701 -0.5862 -1.4489
 9185TIP3    H249047   3.707   2.172   6.739  0.1140  0.7833 -0.9855
 9186TIP3   OH249048   0.848   6.004   0.152 -0.1461 -0.8737  0.8899
 9186TIP3    H149049   0.849   5.958   0.068  0.2649 -0.3884  0.6247
 9186TIP3    H249050   0.863   5.935   0.217  0.8956 -1.0685  0.4684
 9187TIP3   OH249051   6.344   0.824   1.085 -0.4436  0.4915  0.2130
 9187TIP3    H149052   6.416   0.827   1.148 -1.6589  2.3594  1.6273
 9187TIP3    H249053   6.383   0.790   1.005  1.5021 -0.5444  1.5263
 9188TIP3   OH249054   2.386   3.563   3.201  0.1378 -0.2018 -0.0228
 9188TIP3    H149055   2.440   3.527   3.131 -0.1355  1.4289 -1.1403
 9188TIP3    H249056   2.297   3.564   3.165 -0.6772 -2.5362  1.6627
 9189TIP3   OH249057   0.946   2.244   5.963  0.0908  0.4030 -0.7996
 9189TIP3    H149058   0.974   2.210   6.049  0.2542  1.4949 -0.4049
 9189TIP3    H249059   0.960   2.171   5.903 -1.0480 -0.7464  0.2760
 9190TIP3   OH249060   4.561   0.661   2.722  0.8765  0.4578  0.2344
 9190TIP3    H149061   4.509   0.705   2.654 -0.1522 -1.0706 -0.0259
 9190TIP3    H249062   4.615   0.598   2.674  1.0994  0.2683  0.7302
 9191TIP3   OH249063   1.983   3.932   4.250 -0.4062 -0.5013 -0.1478
 9191TIP3    H149064   1.996   3.838   4.265  0.3860 -0.7713 -2.1899
 9191TIP3    H249065   2.059   3.959   4.198 -1.1733  1.0346 -0.5359
 9192TIP3   OH249066   6.350   0.113   3.663 -0.6869  0.2976 -0.0640
 9192TIP3    H149067   6.422   0.053   3.645 -1.7168 -0.8534 -0.4122
 9192TIP3    H249068   6.344   0.168   3.585  0.0349  0.6479  0.1188
 9193TIP3   OH249069   6.583   0.572   4.160 -0.2986 -0.4518  0.2250
 9193TIP3    H149070   6.534   0.516   4.220 -0.8786 -1.3325 -1.0484
 9193TIP3    H249071   6.595   0.520   4.081  1.5437  0.2349 -0.0047
 9194TIP3   OH249072   5.523   5.550  17.054 -0.5159  0.7982 -0.0038
 9194TIP3    H149073   5.497   5.458  17.057  2.2460 -0.0416  1.5872
 9194TIP3    H249074   5.458   5.596  17.108  0.0757 -0.8835  2.3051
 9195TIP3   OH249075   3.674   1.491  11.697 -0.3338  0.0151 -0.1524
 9195TIP3    H149076   3.638   1.527  11.616 -0.8873  0.8192  0.4347
 9195TIP3    H249077   3.661   1.396  11.689 -0.5692  0.1035 -0.9066
 9196TIP3   OH249078   1.525   6.105  12.414 -0.1586  0.0460 -0.5109
 9196TIP3    H149079   1.593   6.125  12.349 -0.7505  0.5494 -0.9869
 9196TIP3    H249080   1.573   6.065  12.487  0.5535 -0.2645 -1.1341
 9197TIP3   OH249081   0.273   4.808  12.893 -0.2988 -0.5278  0.4019
 9197TIP3    H149082   0.254   4.853  12.810  0.1460 -1.9940 -0.5234
 9197TIP3    H249083   0.366   4.824  12.908 -0.4736  0.1005  0.8649
 9198TIP3   OH249084   6.199   4.909  12.868 -0.7098 -0.2275 -0.0517
 9198TIP3    H149085   6.178   4.968  12.796 -0.1503  0.2948  0.1997
 9198TIP3    H249086   6.138   4.836  12.858 -0.9694  0.0750 -0.7573
 9199TIP3   OH249087   0.657   6.575   2.962 -0.4852 -0.0914 -0.2206
 9199TIP3    H149088   0.721   6.598   2.895 -0.8226 -1.1903 -0.9544
 9199TIP3    H249089   0.586   6.638   2.951  0.7417  1.6374  1.1025
 9200TIP3   OH249090   3.090   3.542   2.647 -0.1975 -0.2454  0.4491
 9200TIP3    H149091   3.060   3.632   2.660 -3.2573 -1.1565  0.3358
 9200TIP3    H249092   3.102   3.509   2.736 -0.8670 -0.2581  0.5401
 9201TIP3   OH249093   4.574   6.256   6.516 -0.5391  0.6910  0.9273
 9201TIP3    H149094   4.645   6.219   6.568 -0.9069  2.1368  2.5391
 9201TIP3    H249095   4.561   6.344   6.552 -1.2310  1.5332 -1.2284
 9202TIP3   OH249096   3.687   1.165   3.201  0.3620  0.2696 -0.3806
 9202TIP3    H149097   3.748   1.167   3.275 -0.1227  0.7161  0.0273
 9202TIP3    H249098   3.685   1.256   3.170 -0.8680  0.5024  0.2893
 9203TIP3   OH249099   0.475   2.977   2.834  0.2456  0.2456 -1.0155
 9203TIP3    H149100   0.387   2.992   2.799  0.7173  2.1243 -1.5155
 9203TIP3    H249101   0.515   2.917   2.771 -0.3546  0.1267 -1.2972
 9204TIP3   OH249102   3.980   0.711   2.450 -0.3813 -0.3986  0.3008
 9204TIP3    H149103   4.039   0.747   2.384  0.9646 -1.1888  1.0484
 9204TIP3    H249104   3.905   0.770   2.450  0.2854  0.4718 -0.8539
 9205TIP3   OH249105   4.043   2.018   0.229  0.0324  0.2672  0.3526
 9205TIP3    H149106   4.055   2.062   0.313 -1.2080 -0.2441  0.8143
 9205TIP3    H249107   3.949   2.021   0.213 -0.0049 -1.4685  0.0075
 9206TIP3   OH249108   2.012   2.250   4.581 -0.4119 -0.0936 -0.5579
 9206TIP3    H149109   2.038   2.174   4.528  1.4570  1.2271 -1.6512
 9206TIP3    H249110   1.945   2.294   4.529 -1.0547 -0.6374 -0.2051
 9207TIP3   OH249111   0.769   5.415   3.160 -0.1455  0.2856 -0.2049
 9207TIP3    H149112   0.689   5.465   3.171 -0.0899  0.2358  0.4575
 9207TIP3    H249113   0.838   5.481   3.147 -0.2288  0.3398 -0.3801
 9208TIP3   OH249114   0.856   1.937   4.874 -0.4059  0.1827 -0.0721
 9208TIP3    H149115   0.902   1.953   4.957 -1.6196 -1.3925  0.9663
 9208TIP3    H249116   0.926   1.924   4.810  0.5682  2.3388  0.4602
 9209TIP3   OH249117   4.048   4.139  17.224 -0.7432 -0.3094 -0.1526
 9209TIP3    H149118   4.072   4.104  17.138  3.0767 -0.2423  0.7145
 9209TIP3    H249119   3.971   4.194  17.207  0.8450  1.0927 -3.8898
 9210TIP3   OH249120   2.503   5.830   0.129  0.0305  0.0062 -0.2863
 9210TIP3    H149121   2.539   5.918   0.117 -0.4363 -0.1036 -3.3562
 9210TIP3    H249122   2.572   5.772   0.096 -0.6909 -0.5847 -0.7830
 9211TIP3   OH249123   3.458   1.755  15.909  0.0920  0.1358 -0.3500
 9211TIP3    H149124   3.535   1.714  15.948 -0.9219 -1.9611 -0.3951
 9211TIP3    H249125   3.491   1.837  15.871  2.1303 -0.3517  0.2261
 9212TIP3   OH249126   1.436   1.547  16.591 -0.3039  0.7396 -0.0130
 9212TIP3    H149127   1.370   1.495  16.636 -0.0635 -0.6550 -1.2056
 9212TIP3    H249128   1.434   1.632  16.635 -1.3738  0.0358  1.3653
 9213TIP3   OH249129   5.880   0.603   2.144 -1.0475 -0.4421  0.1266
 9213TIP3    H149130   5.881   0.647   2.229  0.3064  1.3817 -0.7491
 9213TIP3    H249131   5.796   0.629   2.105 -1.5276 -1.0183  0.7461
 9214TIP3   OH249132   0.881   1.761  13.969 -0.0654 -0.1279  0.4764
 9214TIP3    H149133   0.861   1.847  13.930 -0.3082 -0.7604 -0.8616
 9214TIP3    H249134   0.800   1.735  14.012 -0.7633 -0.6799 -1.0828
 9215TIP3   OH249135   4.739   5.396   2.623  0.1873  0.1546  0.5140
 9215TIP3    H149136   4.686   5.460   2.671  0.3250  0.9855 -0.4044
 9215TIP3    H249137   4.735   5.317   2.677 -1.0363  0.5446  1.0488
 9216TIP3   OH249138   5.027   0.314  16.641  0.6238  0.5369 -0.3033
 9216TIP3    H149139   5.079   0.340  16.717 -0.2441  1.0511  0.1261
 9216TIP3    H249140   4.946   0.279  16.677  0.6675 -0.2973 -0.9676
 9217TIP3   OH249141   1.698   4.690   6.184  0.0389 -0.4581 -0.6118
 9217TIP3    H149142   1.775   4.634   6.174  0.0529 -0.5726  0.0848
 9217TIP3    H249143   1.724   4.754   6.250  0.5278  1.2911 -2.4089
 9218TIP3   OH249144   4.707   0.678  12.035  0.0697  0.4009  0.2077
 9218TIP3    H149145   4.797   0.678  12.065 -0.4929 -0.9169  2.0059
 9218TIP3    H249146   4.690   0.589  12.005 -0.2233  0.9996 -1.5842
 9219TIP3   OH249147   0.018   5.740  14.384  0.1613  0.2826 -0.2739
 9219TIP3    H149148  -0.004   5.833  14.379  1.7956  0.7364  0.4272
 9219TIP3    H249149   0.009   5.708  14.294 -1.6817  0.7742 -0.3083
 9220TIP3   OH249150   5.834   1.591  14.236 -0.5333  0.1568 -0.0788
 9220TIP3    H149151   5.900   1.635  14.182 -0.8687  0.0605 -0.5722
 9220TIP3    H249152   5.884   1.528  14.288 -0.1175  0.7516  0.2493
 9221TIP3   OH249153   5.916   0.042  12.005  0.6384  0.2004  0.6514
 9221TIP3    H149154   5.991   0.025  12.063  1.1905 -1.0478 -0.3849
 9221TIP3    H249155   5.956   0.062  11.920 -0.1611  2.0469  0.6648
 9222TIP3   OH249156   0.363   5.480  11.989  0.2027  0.2823  0.7798
 9222TIP3    H149157   0.445   5.492  11.940 -0.6193 -1.4139 -1.1931
 9222TIP3    H249158   0.311   5.557  11.967  1.4161  1.6654  2.5098
 9223TIP3   OH249159   1.206   4.395  11.943 -0.2165 -0.2444 -0.7717
 9223TIP3    H149160   1.151   4.472  11.930 -1.3418 -0.6447  1.1265
 9223TIP3    H249161   1.146   4.321  11.937  0.8794 -1.0482 -2.7736
 9224TIP3   OH249162   4.300   1.665  13.785  0.3728  0.3681  0.3365
 9224TIP3    H149163   4.357   1.741  13.773  1.0368  0.0091  1.1459
 9224TIP3    H249164   4.261   1.677  13.871 -0.2384  0.2560  0.0789
 9225TIP3   OH249165   3.649   5.358  16.172 -0.4899  0.0012  0.3830
 9225TIP3    H149166   3.686   5.288  16.117 -2.4251 -0.6634 -0.1674
 9225TIP3    H249167   3.661   5.326  16.261 -0.0640 -0.3482  0.2096
 9226TIP3   OH249168   1.212   5.018  10.911  0.1891  0.3105  0.3626
 9226TIP3    H149169   1.181   5.086  10.970  0.3072  2.1444 -1.5626
 9226TIP3    H249170   1.135   4.964  10.895  0.3902 -0.8540  2.8757
 9227TIP3   OH249171   0.307   2.753   0.883 -0.1157 -0.5438  0.3210
 9227TIP3    H149172   0.390   2.769   0.929  1.4637 -2.3765 -1.6797
 9227TIP3    H249173   0.290   2.836   0.837  0.9864 -0.3540  0.2200
 9228TIP3   OH249174   5.427   0.500   4.915  0.1490  0.5230 -0.2435
 9228TIP3    H149175   5.399   0.565   4.851  2.1674  1.1333 -0.5863
 9228TIP3    H249176   5.484   0.549   4.975 -1.1644 -0.1765  1.6605
 9229TIP3   OH249177   6.525   5.299   2.790  0.1504  0.3645  0.1221
 9229TIP3    H149178   6.529   5.306   2.885  1.0594 -1.9636  0.3441
 9229TIP3    H249179   6.540   5.388   2.758 -0.6924  1.2868  2.1337
 9230TIP3   OH249180   5.957   2.847   0.930 -0.0059 -0.4870 -0.1606
 9230TIP3    H149181   6.008   2.782   0.979 -0.9693 -0.2865  1.1599
 9230TIP3    H249182   5.894   2.795   0.879 -0.9709 -0.6087  1.1167
 9231TIP3   OH249183   0.210   6.320   3.378  0.3693 -0.4434 -0.1250
 9231TIP3    H149184   0.238   6.250   3.319  3.4868 -0.7399  1.5285
 9231TIP3    H249185   0.202   6.278   3.463  0.7106  0.9043  0.5996
 9232TIP3   OH249186   2.085   3.338  12.373  0.0999  0.0775  0.0597
 9232TIP3    H149187   2.070   3.317  12.465 -0.1505  1.5688  0.3947
 9232TIP3    H249188   2.169   3.297  12.352  0.1272 -0.3394  0.9344
 9233TIP3   OH249189   5.775   2.711  14.777 -0.8412 -0.5230  0.0599
 9233TIP3    H149190   5.762   2.663  14.859 -1.6784  1.1044  0.9377
 9233TIP3    H249191   5.706   2.777  14.777  0.9103  1.4066 -0.5410
 9234TIP3   OH249192   0.080   5.099  12.989 -0.0649  0.2915 -0.7502
 9234TIP3    H149193   0.138   5.031  13.021 -0.4350 -0.1264 -0.9495
 9234TIP3    H249194   0.009   5.103  13.053  0.6825  1.5084  0.0369
 9235TIP3   OH249195   4.239   1.114  11.724  0.2156  0.2901 -0.0691
 9235TIP3    H149196   4.165   1.059  11.696 -1.6153  1.8247  1.4802
 9235TIP3    H249197   4.215   1.144  11.812  3.5652 -0.5868  1.3105
 9236TIP3   OH249198   1.306   5.203  14.986 -0.1827 -0.1212 -1.6099
 9236TIP3    H149199   1.378   5.248  14.941 -0.5761  0.5853 -1.5614
 9236TIP3    H249200   1.230   5.216  14.928 -1.3403  3.0488  0.3025
 9237TIP3   OH249201   5.226   0.205   2.051 -0.3250  0.2371 -0.3837
 9237TIP3    H149202   5.167   0.195   1.977  0.2868  2.7483 -1.2864
 9237TIP3    H249203   5.308   0.236   2.013  0.0557  1.4263  1.3034
 9238TIP3   OH249204   2.663   0.648   4.047 -0.0617 -0.2137  0.4310
 9238TIP3    H149205   2.734   0.584   4.039  0.4358  0.2601  0.9913
 9238TIP3    H249206   2.703   0.732   4.026 -0.7536 -0.0948 -0.4551
 9239TIP3   OH249207   0.276   3.887  11.677 -1.0333  0.1629  0.0375
 9239TIP3    H149208   0.203   3.911  11.621 -0.5024  2.6054  0.2735
 9239TIP3    H249209   0.354   3.898  11.622 -0.3247  4.3552  1.4831
 9240TIP3   OH249210   1.454   0.425  11.135  0.0298  0.0502  0.2037
 9240TIP3    H149211   1.498   0.341  11.148  0.6388  0.4501  0.7893
 9240TIP3    H249212   1.380   0.405  11.077  0.9083 -0.6520 -0.6876
 9241TIP3   OH249213   0.049   0.297  13.368  0.1493 -0.5920 -0.7913
 9241TIP3    H149214  -0.046   0.309  13.373  0.2829  0.6210 -0.6691
 9241TIP3    H249215   0.084   0.358  13.433  1.1041  0.9426 -2.6231
 9242TIP3   OH249216   4.109   2.626  15.189 -0.2646  0.5948 -0.4936
 9242TIP3    H149217   4.194   2.584  15.173 -1.2289 -1.3105 -0.8770
 9242TIP3    H249218   4.108   2.701  15.130  1.9302  1.8650  0.9331
 9243TIP3   OH249219   4.843   1.773   4.985 -0.7413 -0.6370  0.0278
 9243TIP3    H149220   4.823   1.760   4.892 -0.2232 -1.3562  0.0165
 9243TIP3    H249221   4.774   1.832   5.016 -1.2805 -0.8936 -0.6653
 9244TIP3   OH249222   1.820   3.858   3.320  0.4820  0.1272 -0.0253
 9244TIP3    H149223   1.861   3.943   3.307  1.4050 -0.4460 -1.0341
 9244TIP3    H249224   1.844   3.808   3.242 -2.5617 -0.1087 -0.9289
 9245TIP3   OH249225   4.109   6.484  11.685 -0.0788  0.5317  0.1179
 9245TIP3    H149226   4.040   6.453  11.626 -0.0881  0.1632  0.3191
 9245TIP3    H249227   4.189   6.442  11.653 -0.0857  0.3209  0.3669
 9246TIP3   OH249228   0.890   0.415  13.378  0.3122  0.8210 -0.1288
 9246TIP3    H149229   0.878   0.431  13.471  2.6396  0.4693  0.3072
 9246TIP3    H249230   0.983   0.392  13.370 -0.4532 -2.1007 -2.1232
 9247TIP3   OH249231   6.636   5.263  16.467  0.2227 -0.6741 -0.1365
 9247TIP3    H149232   6.666   5.309  16.546  3.0870 -1.0516 -0.9040
 9247TIP3    H249233   6.643   5.327  16.397  1.7148 -1.4622 -0.7566
 9248TIP3   OH249234   4.948   4.427  15.002  0.3358  0.9645 -0.0340
 9248TIP3    H149235   4.859   4.438  15.037 -0.0138 -0.9186 -0.2200
 9248TIP3    H249236   4.940   4.450  14.909  0.0870  1.0349  0.0041
 9249TIP3   OH249237   3.082   1.291   0.202  0.2673  0.3895 -0.6165
 9249TIP3    H149238   3.075   1.241   0.283  2.2609  0.1002 -0.5837
 9249TIP3    H249239   3.023   1.248   0.141 -0.2119 -0.2257  0.2711
 9250TIP3   OH249240   1.428   4.623  10.861  0.0567 -0.1632 -1.0213
 9250TIP3    H149241   1.516   4.644  10.829 -0.1353  0.9224 -0.9010
 9250TIP3    H249242   1.377   4.602  10.783  0.6042 -1.5411 -1.0210
 9251TIP3   OH249243   3.902   6.340   0.122 -0.1189 -0.0834  0.1821
 9251TIP3    H149244   3.975   6.375   0.071 -1.3341  0.3330 -1.3708
 9251TIP3    H249245   3.912   6.245   0.116 -0.0896 -0.0352 -0.6409
 9252TIP3   OH249246   2.005   4.452   2.753  0.3009 -0.4450 -0.2906
 9252TIP3    H149247   2.012   4.436   2.659  1.2335 -0.3452 -0.2544
 9252TIP3    H249248   1.925   4.407   2.779  0.3702 -1.0261 -1.0190
 9253TIP3   OH249249   4.741   6.257   4.328 -0.5445  0.3444  0.2288
 9253TIP3    H149250   4.757   6.342   4.369  1.5710 -0.0890  0.3833
 9253TIP3    H249251   4.824   6.235   4.285  0.1850 -3.1796  3.0060
 9254TIP3   OH249252   1.635   5.196   3.178 -0.3897 -0.3990 -0.9198
 9254TIP3    H149253   1.689   5.216   3.254 -2.8276  1.7671  0.4035
 9254TIP3    H249254   1.642   5.273   3.122 -1.0098 -0.6678 -1.3893
 9255TIP3   OH249255   5.009   1.096  16.609 -0.0606  0.0175  0.0613
 9255TIP3    H149256   5.037   1.068  16.696  0.0916 -1.9769 -0.5802
 9255TIP3    H249257   5.012   1.016  16.556 -1.0721  0.9936 -1.5437
 9256TIP3   OH249258   4.217   4.097   2.743 -0.4281 -0.3200 -0.4297
 9256TIP3    H149259   4.298   4.137   2.712  1.0688 -3.6369 -1.2749
 9256TIP3    H249260   4.198   4.142   2.825  2.1851  0.6911 -0.2762
 9257TIP3   OH249261   2.550   4.402  11.930  0.1461  0.0771  0.2334
 9257TIP3    H149262   2.612   4.473  11.945  1.0967 -0.6576 -0.1538
 9257TIP3    H249263   2.542   4.397  11.835 -2.2081  1.5935  0.2774
 9258TIP3   OH249264   5.778   2.015   4.523  0.1199 -0.0064  0.0967
 9258TIP3    H149265   5.814   1.971   4.446  0.3215  0.9326 -0.3646
 9258TIP3    H249266   5.743   2.097   4.489  1.0593  0.8602  1.1502
 9259TIP3   OH249267   1.391   3.208  11.526 -0.1109  0.1581  0.8820
 9259TIP3    H149268   1.419   3.279  11.469  0.9682  0.3015  1.5655
 9259TIP3    H249269   1.335   3.250  11.591 -2.8686 -0.2754 -1.0523
 9260TIP3   OH249270   1.105   6.456   2.528 -0.6548  0.1349  0.0011
 9260TIP3    H149271   1.032   6.394   2.518  0.9123 -1.8637  0.2783
 9260TIP3    H249272   1.133   6.446   2.619  1.1404 -0.5750 -0.5845
 9261TIP3   OH249273   1.226   1.420   3.747 -0.4200  0.5306 -0.2432
 9261TIP3    H149274   1.295   1.399   3.685 -1.2892 -0.6889 -0.8350
 9261TIP3    H249275   1.155   1.360   3.725 -1.2212  0.9423  1.1135
 9262TIP3   OH249276   6.076   5.417   5.259 -0.3225  0.5493  0.0740
 9262TIP3    H149277   6.158   5.385   5.296 -0.7193  1.1622  1.5793
 9262TIP3    H249278   6.023   5.338   5.248  0.3965  0.1704 -0.7447
 9263TIP3   OH249279   2.369   5.667   4.649  0.3528 -0.8476  0.6300
 9263TIP3    H149280   2.360   5.579   4.613  2.4570 -1.0818  0.5576
 9263TIP3    H249281   2.354   5.656   4.743 -0.9442 -0.9781  0.4269
 9264TIP3   OH249282   3.268   5.744   5.428 -0.5050 -0.1015  0.0630
 9264TIP3    H149283   3.184   5.787   5.448 -0.8242 -0.1626 -1.0891
 9264TIP3    H249284   3.251   5.696   5.347  0.7020  0.0218 -0.2693
 9265TIP3   OH249285   4.832   2.621   5.590 -0.0066 -0.7927 -0.0767
 9265TIP3    H149286   4.812   2.669   5.670 -0.1768 -0.5785 -0.2478
 9265TIP3    H249287   4.925   2.639   5.574 -0.5811  1.4385 -1.4273
 9266TIP3   OH249288   2.456   5.218   2.010 -0.0813 -0.5232  0.3372
 9266TIP3    H149289   2.543   5.259   2.005  0.1159 -1.0437 -1.1320
 9266TIP3    H249290   2.427   5.214   1.919 -2.0712  0.4799  0.8902
 9267TIP3   OH249291   1.066   0.395   5.751  0.6235 -0.1735  0.1806
 9267TIP3    H149292   1.144   0.341   5.762  2.1000  1.4791 -1.4611
 9267TIP3    H249293   1.100   0.484   5.738 -1.5791  0.7318  0.1656
 9268TIP3   OH249294   2.764   0.918   1.310  0.5853  0.4428 -0.3714
 9268TIP3    H149295   2.838   0.973   1.337  1.3275 -1.1345  0.9980
 9268TIP3    H249296   2.687   0.968   1.337  1.2383  0.7682  0.9944
 9269TIP3   OH249297   3.072   0.572  11.210  0.5694  0.2847 -0.1475
 9269TIP3    H149298   3.100   0.539  11.295  0.6314  2.6712  0.8357
 9269TIP3    H249299   3.154   0.592  11.164  0.6225  3.1451  1.0238
 9270TIP3   OH249300   1.948   1.908   1.077 -0.1449 -0.2002  0.6456
 9270TIP3    H149301   1.999   1.828   1.085  0.7492  0.0671 -1.6973
 9270TIP3    H249302   1.939   1.940   1.167  1.7072 -1.5464  1.3618
 9271TIP3   OH249303   5.717   6.329  11.678 -0.4935  0.2200 -0.3097
 9271TIP3    H149304   5.705   6.334  11.583  1.4604 -0.0955 -0.6165
 9271TIP3    H249305   5.785   6.394  11.697 -0.4700 -0.1085  0.7915
 9272TIP3   OH249306   3.504   1.840   4.934 -0.5666  0.0295 -0.1910
 9272TIP3    H149307   3.579   1.857   4.991  2.1909 -4.1045 -2.1200
 9272TIP3    H249308   3.524   1.891   4.854 -0.4525 -0.0907 -0.2402
 9273TIP3   OH249309   1.184   3.753  11.517 -0.4039  0.0473  0.1953
 9273TIP3    H149310   1.132   3.714  11.446 -0.2269  0.9108 -0.4262
 9273TIP3    H249311   1.193   3.683  11.581 -2.3803 -0.1107  0.3464
 9274TIP3   OH249312   6.544   5.061  12.280 -0.6029 -0.0708 -0.1731
 9274TIP3    H149313   6.466   5.078  12.227 -2.3930 -0.3144  2.1979
 9274TIP3    H249314   6.549   4.966  12.286  0.1517 -0.0663 -0.6789
 9275TIP3   OH249315   1.371   4.634  16.654 -0.2022  0.0492 -0.2490
 9275TIP3    H149316   1.392   4.656  16.563  0.9925 -1.0029 -0.2581
 9275TIP3    H249317   1.421   4.554  16.672 -0.3860  0.2495  1.3461
 9276TIP3   OH249318   3.796   4.773   3.957 -0.0750 -0.1843 -0.3501
 9276TIP3    H149319   3.862   4.707   3.936 -0.3705 -0.6352  0.0958
 9276TIP3    H249320   3.713   4.728   3.941 -0.2818 -0.0440  0.3266
 9277TIP3   OH249321   6.722   0.257   3.767 -0.4934 -0.0320  0.4572
 9277TIP3    H149322   6.700   0.257   3.674  2.5988 -1.0107 -0.3954
 9277TIP3    H249323   6.673   0.330   3.804 -1.9116  0.2907 -1.8790
 9278TIP3   OH249324   3.687   5.563  16.002  0.6619 -0.1326  0.1223
 9278TIP3    H149325   3.679   5.483  16.053 -1.3198 -0.3708 -0.4730
 9278TIP3    H249326   3.680   5.634  16.066 -1.4301 -0.4329  0.3018
 9279TIP3   OH249327   1.503   2.057  16.441  0.8013 -0.2025 -0.0282
 9279TIP3    H149328   1.431   1.994  16.447  0.9390 -0.3138  0.5542
 9279TIP3    H249329   1.503   2.086  16.350  1.2724 -1.6718 -0.5270
 9280TIP3   OH249330   2.282   3.192  12.281 -0.0310 -0.5552 -0.1473
 9280TIP3    H149331   2.222   3.130  12.239  0.9534 -0.5626 -1.6244
 9280TIP3    H249332   2.366   3.146  12.283  0.3499  0.1431  0.1790
 9281TIP3   OH249333   3.448   2.988  12.732 -0.0331  0.7585  0.0963
 9281TIP3    H149334   3.384   3.054  12.760 -1.0466 -0.9243  2.0197
 9281TIP3    H249335   3.528   3.039  12.716 -0.9731  2.5470  0.7412
 9282TIP3   OH249336   5.260   0.180  12.508  0.1321 -0.0324  0.1772
 9282TIP3    H149337   5.352   0.190  12.530  0.0269  0.8529  0.2622
 9282TIP3    H249338   5.257   0.192  12.413 -0.0277  1.1022  0.3101
 9283TIP3   OH249339   1.316   1.352   0.089  0.1678  0.1042  0.4762
 9283TIP3    H149340   1.375   1.406   0.143  0.8405 -0.7457  0.6098
 9283TIP3    H249341   1.366   1.273   0.071 -0.4541 -0.0761 -0.5198
 9284TIP3   OH249342   5.331   5.807  11.847 -0.1713 -0.3334  0.0512
 9284TIP3    H149343   5.255   5.842  11.894 -0.4121  0.6520 -1.0348
 9284TIP3    H249344   5.406   5.851  11.887 -0.4740  1.5632 -1.3328
 9285TIP3   OH249345   6.034   1.466  12.963 -0.2081 -0.0142 -0.0059
 9285TIP3    H149346   6.066   1.383  12.998 -0.0802  0.4477  1.0161
 9285TIP3    H249347   5.970   1.496  13.027  0.0182  0.8515 -0.1704
 9286TIP3   OH249348   2.573   1.068   6.303 -0.3417 -0.4384 -0.1410
 9286TIP3    H149349   2.485   1.083   6.270 -0.3854 -1.0253 -0.3042
 9286TIP3    H249350   2.577   0.974   6.319  0.1776 -0.3822  0.0898
 9287TIP3   OH249351   1.472   6.751  12.965  0.2760  0.6679 -0.5938
 9287TIP3    H149352   1.503   6.696  12.894 -1.2782  1.1414 -1.6777
 9287TIP3    H249353   1.485   6.841  12.934 -0.3502  0.8824 -0.2708
 9288TIP3   OH249354   5.205   5.032  14.853 -0.0597  0.1162  0.2453
 9288TIP3    H149355   5.243   5.077  14.928 -0.6988  1.2180 -0.0700
 9288TIP3    H249356   5.261   5.055  14.779 -0.8378  1.0864 -0.0684
 9289TIP3   OH249357   1.861   0.526   5.694 -0.8016 -0.0900  0.4538
 9289TIP3    H149358   1.884   0.448   5.746 -0.3782  0.2626  0.7983
 9289TIP3    H249359   1.889   0.504   5.605  1.6186  0.6185  0.9916
 9290TIP3   OH249360   0.886   6.029  14.735 -0.1477 -0.6039  0.6956
 9290TIP3    H149361   0.911   5.993  14.820  1.4426  1.1765  1.0686
 9290TIP3    H249362   0.960   6.085  14.710 -1.3599  0.3549 -1.0025
 9291TIP3   OH249363   5.247   3.963   1.338 -0.1679  0.0851  0.6002
 9291TIP3    H149364   5.151   3.957   1.333 -0.3751  1.2586  2.1393
 9291TIP3    H249365   5.275   3.874   1.360 -1.1225  0.1133  2.1174
 9292TIP3   OH249366   2.884   1.369  11.932  0.2655 -0.4558 -0.3627
 9292TIP3    H149367   2.954   1.309  11.908  2.1014  0.9380  1.2107
 9292TIP3    H249368   2.913   1.409  12.013 -2.9863 -0.7029  1.0630
 9293TIP3   OH249369   5.607   6.747  14.640  0.6355 -0.1216 -0.5239
 9293TIP3    H149370   5.556   6.798  14.577  0.4881 -0.0278 -0.3292
 9293TIP3    H249371   5.672   6.810  14.673  1.2222 -0.3811 -1.1615
 9294TIP3   OH249372   0.716   3.166  15.254  0.2049  0.1067  0.2954
 9294TIP3    H149373   0.753   3.254  15.261  0.7776 -0.0382 -0.7500
 9294TIP3    H249374   0.629   3.173  15.294  0.1340  1.2188 -0.0339
 9295TIP3   OH249375   5.234   0.079   6.162 -0.0414  0.1949 -0.6111
 9295TIP3    H149376   5.154   0.057   6.114  0.0888 -0.1964 -0.6571
 9295TIP3    H249377   5.220   0.042   6.250 -0.3006  0.9535 -0.3220
 9296TIP3   OH249378   2.501   3.756   5.102 -0.0871 -0.4485  0.1683
 9296TIP3    H149379   2.486   3.836   5.052  0.5273 -1.2387 -1.3805
 9296TIP3    H249380   2.413   3.724   5.123 -0.3605 -0.0591 -0.3526
 9297TIP3   OH249381   2.806   3.525   5.198  0.0181  0.0585 -0.4417
 9297TIP3    H149382   2.830   3.614   5.225 -0.6291  0.3071 -0.6558
 9297TIP3    H249383   2.825   3.471   5.275 -3.4969  1.0205  1.3436
 9298TIP3   OH249384   4.483   5.228   3.444 -0.0443  0.2352 -0.0009
 9298TIP3    H149385   4.505   5.136   3.428  1.8028  0.5956  0.3491
 9298TIP3    H249386   4.558   5.264   3.490 -0.8584  1.8761  0.1311
 9299TIP3   OH249387   5.793   2.265   0.808  0.6785 -0.2689  0.1842
 9299TIP3    H149388   5.868   2.261   0.868  1.5067  0.4191 -0.7702
 9299TIP3    H249389   5.800   2.351   0.767 -1.5480  0.4729  1.1880
 9300TIP3   OH249390   5.535   5.219   1.895 -0.6069 -0.4313  0.0817
 9300TIP3    H149391   5.569   5.142   1.848 -1.4610 -0.2147 -0.9400
 9300TIP3    H249392   5.440   5.208   1.893 -0.7327  0.5877  0.0293
 9301TIP3   OH249393   0.055   0.267   3.266  0.4104  0.2388  0.1196
 9301TIP3    H149394   0.073   0.202   3.199 -2.0863 -1.9444  1.3735
 9301TIP3    H249395   0.092   0.230   3.346 -1.1334  0.2382  0.8689
 9302TIP3   OH249396   1.215   0.126  15.340  0.0162 -0.3258  0.3979
 9302TIP3    H149397   1.172   0.041  15.327 -0.2413 -0.1509  0.0844
 9302TIP3    H249398   1.270   0.136  15.262 -2.7979  1.4964 -1.5295
 9303TIP3   OH249399   5.048   1.949   0.986  0.0778  0.1062  0.1540
 9303TIP3    H149400   5.062   1.976   1.077  0.8071  0.7141 -0.1232
 9303TIP3    H249401   4.958   1.917   0.984  0.2560 -0.5288  1.2324
 9304TIP3   OH249402   0.197   4.859  14.608  0.0807  0.2261 -0.0066
 9304TIP3    H149403   0.188   4.891  14.518 -1.6246 -0.7108 -0.2017
 9304TIP3    H249404   0.148   4.777  14.610 -0.3893  0.4996  1.9131
 9305TIP3   OH249405   2.696   4.626  11.962  0.2527 -0.2654 -0.0573
 9305TIP3    H149406   2.753   4.668  11.896 -0.0592  0.3569  0.0561
 9305TIP3    H249407   2.608   4.633  11.924 -0.0032  0.5942  0.6554
 9306TIP3   OH249408   4.677   2.159  12.313 -0.4580  0.9205  0.0254
 9306TIP3    H149409   4.746   2.223  12.328  0.2871 -0.1735  1.6745
 9306TIP3    H249410   4.708   2.106  12.240 -0.2301  1.3051 -0.1578
 9307TIP3   OH249411   4.505   1.441   6.569 -0.0565  0.3946  0.0127
 9307TIP3    H149412   4.484   1.517   6.624  3.0305  1.8716 -0.6432
 9307TIP3    H249413   4.529   1.479   6.484 -3.0780 -1.7294 -1.9890
 9308TIP3   OH249414   3.613   0.804   5.756 -0.2457 -0.4686 -0.3778
 9308TIP3    H149415   3.662   0.886   5.753 -1.4273  0.2458 -0.8485
 9308TIP3    H249416   3.608   0.782   5.849  0.3518 -0.1921 -0.2740
 9309TIP3   OH249417   3.778   2.770   2.562  0.4201  0.4259  0.0226
 9309TIP3    H149418   3.751   2.855   2.527 -1.2442 -0.4196 -0.8579
 9309TIP3    H249419   3.827   2.728   2.490  0.8718  0.4523  0.3069
 9310TIP3   OH249420   3.381   5.776  11.723  0.5526  0.0954 -0.3855
 9310TIP3    H149421   3.449   5.820  11.774  0.6730  1.4017 -1.5987
 9310TIP3    H249422   3.320   5.741  11.788  0.6682  1.7464  0.6505
 9311TIP3   OH249423   3.770   3.324  15.573  0.2002 -0.4692  0.6389
 9311TIP3    H149424   3.806   3.301  15.658  0.5318 -1.0393  0.3497
 9311TIP3    H249425   3.825   3.278  15.510  0.0302  0.0327  0.1077
 9312TIP3   OH249426   0.710   1.906  15.269  0.0039  0.2368  0.5961
 9312TIP3    H149427   0.640   1.850  15.304  1.0193  0.1169  2.5773
 9312TIP3    H249428   0.708   1.889  15.175 -0.6921 -2.0372  0.9383
 9313TIP3   OH249429   3.049   1.441   1.381 -0.0608  0.0571  0.3760
 9313TIP3    H149430   2.979   1.479   1.328  0.3251 -2.4818 -2.1781
 9313TIP3    H249431   3.004   1.399   1.454 -0.9744  0.5436  0.1117
 9314TIP3   OH249432   3.287   4.878  11.663 -0.0776  0.3121 -0.2227
 9314TIP3    H149433   3.280   4.950  11.600  0.0816 -0.2994 -0.9661
 9314TIP3    H249434   3.314   4.803  11.609  0.4101 -0.1406  0.6407
 9315TIP3   OH249435   0.803   3.699   4.266 -0.1229 -0.2395 -0.1053
 9315TIP3    H149436   0.891   3.661   4.268 -0.4696 -1.1939 -1.4641
 9315TIP3    H249437   0.801   3.751   4.185 -1.0876 -0.9781 -0.5796
 9316TIP3   OH249438   4.185   3.354   1.068 -0.4958  0.3642  0.6701
 9316TIP3    H149439   4.149   3.267   1.085  0.8813 -0.3377  0.1258
 9316TIP3    H249440   4.109   3.407   1.042 -1.2022 -0.9291  0.0184
 9317TIP3   OH249441   4.936   5.148   3.675  0.1413 -0.2735 -0.6196
 9317TIP3    H149442   4.960   5.062   3.712  2.0133  0.7850  0.8007
 9317TIP3    H249443   4.969   5.146   3.586  1.8720 -0.4112 -0.0177
 9318TIP3   OH249444   2.406   3.854  14.414  0.2234  0.2821  0.0054
 9318TIP3    H149445   2.462   3.830  14.340 -0.5160 -0.6801 -0.2735
 9318TIP3    H249446   2.373   3.941  14.392  0.3780  0.1986 -0.5811
 9319TIP3   OH249447   4.384   4.082   0.325  0.1896  0.8044 -0.2297
 9319TIP3    H149448   4.402   4.098   0.418  0.7305  0.1963 -0.2181
 9319TIP3    H249449   4.374   4.170   0.287  0.2061  1.0661  0.3583
 9320TIP3   OH249450   0.612   4.405   1.219  0.3602 -0.8351  0.1617
 9320TIP3    H149451   0.525   4.370   1.235  0.6089 -0.3425  3.2770
 9320TIP3    H249452   0.667   4.327   1.208 -0.1263 -1.2105  0.3435
 9321TIP3   OH249453   0.351   2.650   5.564  0.1510 -0.1470 -0.1072
 9321TIP3    H149454   0.341   2.609   5.650  1.7741 -0.6149 -0.1028
 9321TIP3    H249455   0.442   2.632   5.539 -0.3051 -0.1124 -1.9713
 9322TIP3   OH249456   0.913   5.575   5.548  0.0105  0.4053 -0.0001
 9322TIP3    H149457   0.905   5.480   5.541  4.7060 -0.2731  0.6828
 9322TIP3    H249458   0.944   5.602   5.461 -0.6530  1.2209  0.0113
 9323TIP3   OH249459   1.608   2.916  10.702  0.2210 -0.1338 -0.1945
 9323TIP3    H149460   1.548   2.922  10.776  0.0257  0.4067 -0.3891
 9323TIP3    H249461   1.684   2.869  10.736 -0.6649 -1.6221 -0.1781
 9324TIP3   OH249462   4.335   3.768  13.293 -0.0650 -0.3609 -0.3833
 9324TIP3    H149463   4.380   3.842  13.334 -2.0025  1.6429 -1.6249
 9324TIP3    H249464   4.401   3.730  13.235  1.0086  0.3148  0.3535
 9325TIP3   OH249465   1.754   2.373  12.535  0.3837 -0.3732  0.0021
 9325TIP3    H149466   1.692   2.444  12.524  1.0205  0.0597 -0.9008
 9325TIP3    H249467   1.833   2.402  12.488  0.2853 -2.1197 -1.3619
 9326TIP3   OH249468   1.166   0.390   4.217  0.1496 -0.7332 -0.4626
 9326TIP3    H149469   1.101   0.382   4.287 -1.8527 -0.7262 -2.1992
 9326TIP3    H249470   1.214   0.307   4.220 -1.1364 -1.5090 -0.1883
 9327TIP3   OH249471   3.069   2.731   0.963 -0.0749 -0.0086 -0.2487
 9327TIP3    H149472   3.150   2.713   1.012 -0.5236 -0.8532  0.1892
 9327TIP3    H249473   3.099   2.780   0.886  1.0730 -1.7160 -0.9525
 9328TIP3   OH249474   2.276   0.034  11.600  0.1656 -0.1220 -0.1109
 9328TIP3    H149475   2.189   0.069  11.620 -0.0231 -0.4681 -0.3261
 9328TIP3    H249476   2.264  -0.060  11.595 -0.0864 -0.0148 -3.2508
 9329TIP3   OH249477   5.902   2.351  11.686  0.2424  0.4280  0.1438
 9329TIP3    H149478   5.880   2.441  11.663 -0.8754  0.3842  0.9302
 9329TIP3    H249479   5.831   2.323  11.745  0.8820 -0.7628  0.3932
 9330TIP3   OH249480   2.991   4.643   2.399  0.3357  0.3188 -0.5307
 9330TIP3    H149481   2.916   4.583   2.394  1.4238 -1.4036  1.9261
 9330TIP3    H249482   2.996   4.666   2.492  1.9289  1.6996 -0.9162
 9331TIP3   OH249483   4.521   5.732  13.383  0.0118  0.1624  0.6825
 9331TIP3    H149484   4.466   5.810  13.385 -0.1734  0.0124  2.2547
 9331TIP3    H249485   4.494   5.681  13.459  0.6473 -1.0816  0.0926
 9332TIP3   OH249486   2.771   3.857   0.250 -0.0770  0.4050 -0.3541
 9332TIP3    H149487   2.861   3.835   0.225  0.9815  1.9428  1.8212
 9332TIP3    H249488   2.781   3.921   0.320 -2.7612 -2.0657  2.5558
 9333TIP3   OH249489   2.226   4.303  11.668  0.1818  0.0942  0.1229
 9333TIP3    H149490   2.204   4.281  11.578  1.6950  1.9886 -0.7787
 9333TIP3    H249491   2.150   4.276  11.719 -1.0938 -0.1736 -1.8404
 9334TIP3   OH249492   5.727   1.323   5.274 -0.3287 -0.1141  0.6863
 9334TIP3    H149493   5.690   1.254   5.220  0.9919 -0.7325  0.5201
 9334TIP3    H249494   5.654   1.354   5.328 -0.9720 -1.5516  0.6800
 9335TIP3   OH249495   4.535   3.750   4.233 -0.8478 -0.3327  0.4181
 9335TIP3    H149496   4.482   3.799   4.296 -1.1567 -1.3792  0.9829
 9335TIP3    H249497   4.613   3.804   4.222 -0.6234 -0.2862  1.9806
 9336TIP3   OH249498   4.398   5.196  17.209  0.3723 -0.2244 -0.0786
 9336TIP3    H149499   4.350   5.215  17.289  0.8225 -0.5580  0.2767
 9336TIP3    H249500   4.413   5.281  17.168  1.0275  0.0399  0.7082
 9337TIP3   OH249501   6.365   2.541   5.606  0.0010  0.1736  0.0708
 9337TIP3    H149502   6.307   2.469   5.632  1.8334 -1.3110  0.1874
 9337TIP3    H249503   6.323   2.619   5.643 -1.6102 -0.8974  0.6358
 9338TIP3   OH249504   5.183   5.438   5.361 -0.3604 -0.7221  0.2529
 9338TIP3    H149505   5.232   5.371   5.408 -0.6164 -1.4309 -0.4665
 9338TIP3    H249506   5.246   5.508   5.345 -0.0595 -0.8437  0.9152
 9339TIP3   OH249507   2.368   1.034   0.652 -0.5582 -0.0069  0.9971
 9339TIP3    H149508   2.344   1.106   0.711 -0.4050  0.1972  0.8091
 9339TIP3    H249509   2.289   1.017   0.601 -0.3665  0.5496  0.4999
 9340TIP3   OH249510   4.257   2.580  13.282 -0.2344 -0.2301  0.0098
 9340TIP3    H149511   4.322   2.588  13.212  0.6697 -2.1150  0.5743
 9340TIP3    H249512   4.198   2.510  13.251  0.0534 -0.9351  1.0146
 9341TIP3   OH249513   1.251   5.783  11.244  0.3014  0.3945  0.1003
 9341TIP3    H149514   1.339   5.768  11.210 -0.1670 -0.1421 -0.9044
 9341TIP3    H249515   1.258   5.763  11.338  1.1420 -0.0563 -0.0509
 9342TIP3   OH249516   2.953   3.689  11.293 -0.1900  0.2517  0.2179
 9342TIP3    H149517   2.960   3.769  11.345  1.0340  1.0462 -1.0955
 9342TIP3    H249518   2.944   3.721  11.203 -0.1022 -1.0895 -0.2775
 9343TIP3   OH249519   4.375   1.562   4.487  0.1021  0.5517  0.7833
 9343TIP3    H149520   4.458   1.559   4.439 -0.6670  1.5706 -0.7062
 9343TIP3    H249521   4.394   1.616   4.563  0.7307  1.1330  0.2350
 9344TIP3   OH249522   4.511   2.430   1.833 -0.4904 -0.4340 -0.2008
 9344TIP3    H149523   4.514   2.422   1.928 -0.2381  1.1729 -0.0512
 9344TIP3    H249524   4.419   2.415   1.811 -0.3239 -2.1091  0.1360
 9345TIP3   OH249525   3.457   4.660   4.283 -0.4058  0.0080 -0.5264
 9345TIP3    H149526   3.460   4.571   4.247 -0.2962 -0.0971 -0.2569
 9345TIP3    H249527   3.537   4.669   4.335  0.7361  1.0540 -2.3579
 9346TIP3   OH249528   3.535   1.262  14.263  0.5539  0.5508 -0.8699
 9346TIP3    H149529   3.541   1.288  14.355 -0.1352 -0.0342 -0.6494
 9346TIP3    H249530   3.476   1.327  14.223 -0.0555  0.1533 -0.6342
 9347TIP3   OH249531   3.812   3.563   0.516  0.3115 -0.1072 -0.5313
 9347TIP3    H149532   3.765   3.501   0.459 -0.8528  1.8592 -1.8567
 9347TIP3    H249533   3.754   3.639   0.520  1.8869  1.0792  0.6391
 9348TIP3   OH249534   3.711   1.970   3.885 -0.0045 -0.1691  0.2584
 9348TIP3    H149535   3.724   1.880   3.915 -0.9936 -1.5795 -3.0855
 9348TIP3    H249536   3.704   2.021   3.966  1.0269 -2.9750  2.2941
 9349TIP3   OH249537   2.063   1.846  14.036 -0.5090  0.3618 -0.3733
 9349TIP3    H149538   2.037   1.872  13.948 -1.1115 -1.1280 -0.6597
 9349TIP3    H249539   2.158   1.854  14.037 -0.6708  3.9557  0.0560
 9350TIP3   OH249540   5.390   2.468   2.272 -0.3185 -0.2013 -0.6728
 9350TIP3    H149541   5.446   2.455   2.348 -1.9412 -0.0127  0.6141
 9350TIP3    H249542   5.450   2.465   2.197  1.7306  2.2083  0.7189
 9351TIP3   OH249543   5.349   6.516  16.976 -0.6714 -0.2903  0.3757
 9351TIP3    H149544   5.443   6.528  16.993 -0.5182 -0.7848 -0.1064
 9351TIP3    H249545   5.333   6.560  16.893 -0.7498 -0.6698  0.1853
 9352TIP3   OH249546   0.865   6.537  11.626 -0.4668 -0.7061 -0.8053
 9352TIP3    H149547   0.913   6.485  11.562  2.3607  0.4852  0.1991
 9352TIP3    H249548   0.841   6.475  11.695  1.0056 -1.1049 -0.6247
 9353TIP3   OH249549   1.059   2.335  16.340  0.3135 -0.4616  0.4962
 9353TIP3    H149550   1.154   2.343  16.326  0.5944 -2.3147  1.1437
 9353TIP3    H249551   1.022   2.338  16.252  1.1098 -1.2465  0.1188
 9354TIP3   OH249552   2.668   1.613   1.998 -0.1500  0.0333  0.6792
 9354TIP3    H149553   2.621   1.620   2.082 -1.1248  0.5177  0.1110
 9354TIP3    H249554   2.605   1.573   1.939  0.4488 -0.0719  0.1040
 9355TIP3   OH249555   4.133   4.695  11.995  0.2732  0.3346  0.6180
 9355TIP3    H149556   4.104   4.635  11.927 -0.3418  1.7151 -0.3939
 9355TIP3    H249557   4.106   4.654  12.077 -2.7640  0.5597 -0.1648
 9356TIP3   OH249558   4.332   3.082   0.395 -0.3604 -0.3817  0.2288
 9356TIP3    H149559   4.342   3.058   0.487  2.3896 -1.5279 -0.2633
 9356TIP3    H249560   4.418   3.066   0.357 -1.1317  1.0529 -2.3503
 9357TIP3   OH249561   6.188   0.804  11.740 -0.6791  0.3077 -0.4296
 9357TIP3    H149562   6.167   0.801  11.833  0.0801 -1.9441 -0.2795
 9357TIP3    H249563   6.212   0.895  11.724  0.3505  0.4987  1.8354
 9358TIP3   OH249564   5.001   3.147   3.501  0.5915  0.1525 -0.6576
 9358TIP3    H149565   4.971   3.162   3.591 -1.9048  1.3729 -1.6049
 9358TIP3    H249566   5.068   3.213   3.487 -0.3280  1.2024 -0.2601
 9359TIP3   OH249567   3.345   2.817  13.400  0.2246  0.1526  0.8026
 9359TIP3    H149568   3.397   2.783  13.473 -2.1760 -1.9276  1.6919
 9359TIP3    H249569   3.384   2.776  13.322  1.3940  0.5823  1.1397
 9360TIP3   OH249570   4.670   0.606   4.436  0.5432 -0.1525 -0.2141
 9360TIP3    H149571   4.662   0.615   4.341 -0.6872  0.4138 -0.0711
 9360TIP3    H249572   4.583   0.627   4.470  1.2997  0.9331  1.1401
 9361TIP3   OH249573   5.526   6.272  16.179  0.0436 -0.0818  0.3973
 9361TIP3    H149574   5.471   6.238  16.249  0.8430 -0.7476  0.7181
 9361TIP3    H249575   5.507   6.216  16.104  0.7102 -0.6958  0.6780
 9362TIP3   OH249576   1.165   2.428  14.429  0.0254  0.6346  0.1910
 9362TIP3    H149577   1.252   2.420  14.469 -0.1417  0.8076  0.5847
 9362TIP3    H249578   1.180   2.407  14.336  0.7247  1.8772 -0.0068
 9363TIP3   OH249579   5.081   3.806  13.310  0.0544  0.5541  0.5985
 9363TIP3    H149580   4.990   3.827  13.288  0.6979  0.9852 -1.9765
 9363TIP3    H249581   5.132   3.877  13.271  1.5791 -0.1745  1.1911
 9364TIP3   OH249582   6.414   5.990  10.932 -0.1760 -0.0109 -0.3904
 9364TIP3    H149583   6.447   5.916  10.881 -0.8409  0.4630 -1.5473
 9364TIP3    H249584   6.468   6.064  10.905  0.7938 -0.1421  1.1079
 9365TIP3   OH249585   3.355   4.771   2.038 -0.1239  0.0465 -0.1994
 9365TIP3    H149586   3.414   4.736   2.105 -0.6912 -0.3399  0.1028
 9365TIP3    H249587   3.391   4.739   1.955 -0.3864 -0.9020  0.0427
 9366TIP3   OH249588   0.764   4.412   2.815  0.2105  0.2712 -0.3943
 9366TIP3    H149589   0.843   4.465   2.827  0.0183  0.9728 -1.9993
 9366TIP3    H249590   0.692   4.472   2.834  0.0207 -0.2267  0.5551
 9367TIP3   OH249591   1.947   4.380  12.020 -0.5394  0.1325  0.5854
 9367TIP3    H149592   1.882   4.450  12.024  1.0543  1.6569  1.3499
 9367TIP3    H249593   1.970   4.364  12.112 -0.5697 -1.1031  0.3855
 9368TIP3   OH249594   1.702   0.658  13.389  0.1499 -0.8275 -0.0480
 9368TIP3    H149595   1.756   0.699  13.457 -0.2797  0.9283 -0.6915
 9368TIP3    H249596   1.655   0.588  13.434 -1.9547  1.7442  2.1375
 9369TIP3   OH249597   4.727   0.428   1.286  0.5333 -0.5755  0.2406
 9369TIP3    H149598   4.808   0.399   1.242  0.2176 -0.9705 -0.0859
 9369TIP3    H249599   4.710   0.515   1.249  0.1230 -1.0169 -0.6379
 9370TIP3   OH249600   4.619   1.713   1.410  0.5695 -0.0125  0.3517
 9370TIP3    H149601   4.614   1.777   1.481  0.0024 -0.3060  0.5843
 9370TIP3    H249602   4.628   1.628   1.454 -2.2362 -0.4806  0.2120
 9371TIP3   OH249603   3.018   2.906   1.462 -0.1461 -0.0919  0.7419
 9371TIP3    H149604   3.101   2.940   1.431  1.2694 -1.3487  2.8951
 9371TIP3    H249605   2.999   2.956   1.542  0.0275 -1.6741  1.8212
 9372TIP3   OH249606   3.465   4.417  11.391 -0.0569 -0.6866 -0.2987
 9372TIP3    H149607   3.426   4.332  11.410 -1.9673  0.4696  1.2256
 9372TIP3    H249608   3.470   4.420  11.295 -1.6805 -1.7742 -0.4468
 9373TIP3   OH249609   5.739   0.195  12.994 -0.3155  0.0431 -0.1340
 9373TIP3    H149610   5.748   0.169  13.086  0.4497 -0.4484 -0.3415
 9373TIP3    H249611   5.694   0.121  12.953  1.3598 -0.7682 -0.6075
 9374TIP3   OH249612   0.710   2.648  13.775  0.1180  0.3613 -0.2125
 9374TIP3    H149613   0.643   2.638  13.707 -0.2148 -0.0284  0.1618
 9374TIP3    H249614   0.679   2.591  13.846 -0.4055  1.9995  0.9263
 9375TIP3   OH249615   0.493   2.473   2.192 -0.1717  0.1635 -0.3385
 9375TIP3    H149616   0.573   2.497   2.145 -0.5881 -0.0132 -1.1678
 9375TIP3    H249617   0.425   2.526   2.152 -0.5988 -0.2491 -0.1739
 9376TIP3   OH249618   3.731   2.991  12.568  0.0737 -0.4981  0.4831
 9376TIP3    H149619   3.781   2.962  12.491  0.2698 -0.7148  0.6896
 9376TIP3    H249620   3.790   2.978  12.642 -0.5906 -1.6318  0.8505
 9377TIP3   OH249621   0.923   6.066  15.220 -0.1962 -0.4265 -0.3407
 9377TIP3    H149622   1.017   6.080  15.229 -0.3775  1.8762 -1.2665
 9377TIP3    H249623   0.884   6.151  15.242 -2.0267 -1.2187 -0.3604
 9378TIP3   OH249624   0.801   4.341   3.883  0.1030 -0.0231  0.4544
 9378TIP3    H149625   0.843   4.412   3.835  0.5232 -1.0213 -0.6914
 9378TIP3    H249626   0.751   4.293   3.817  0.0146 -0.9305  1.1645
 9379TIP3   OH249627   0.212   1.642  13.554 -0.1301  0.4432 -0.0801
 9379TIP3    H149628   0.203   1.547  13.549  0.0455  0.4223 -0.0042
 9379TIP3    H249629   0.145   1.669  13.618  0.2198  0.3083  0.3479
 9380TIP3   OH249630   1.986   4.891  16.380  0.9576 -0.3469 -0.4554
 9380TIP3    H149631   2.034   4.812  16.359 -0.5734 -1.2374 -0.7837
 9380TIP3    H249632   2.031   4.928  16.456  0.1349 -3.0393  1.4923
 9381TIP3   OH249633   4.421   4.376   3.621 -0.1789 -0.0604 -0.3866
 9381TIP3    H149634   4.436   4.407   3.710 -1.8341  0.9884 -0.4349
 9381TIP3    H249635   4.360   4.303   3.630  0.5482 -0.7186 -0.6012
 9382TIP3   OH249636   0.525   2.182  13.739  0.4766  0.7104  0.4455
 9382TIP3    H149637   0.486   2.208  13.823 -0.5567 -0.5441  0.3835
 9382TIP3    H249638   0.602   2.239  13.730  0.3159  1.2252  1.9913
 9383TIP3   OH249639   5.074   6.435  11.752 -0.8417  0.3034  0.5611
 9383TIP3    H149640   5.152   6.485  11.728  0.4269 -0.6907  2.4258
 9383TIP3    H249641   5.039   6.405  11.668  0.7236  0.8570 -0.3330
 9384TIP3   OH249642   0.281   6.695  13.066 -0.3442 -0.4263  0.5935
 9384TIP3    H149643   0.237   6.764  13.117 -1.5385 -0.5622 -0.2135
 9384TIP3    H249644   0.225   6.683  12.989  1.5663 -0.0096 -0.9409
 9385TIP3   OH249645   2.375   6.611  13.896 -0.3066  0.6648  0.0791
 9385TIP3    H149646   2.338   6.524  13.911 -1.9423  1.2881 -0.1261
 9385TIP3    H249647   2.417   6.634  13.978 -4.0875  1.6437  1.9764
 9386TIP3   OH249648   1.432   3.390   3.617 -0.4443  0.4027 -0.6430
 9386TIP3    H149649   1.512   3.441   3.633 -1.0852  1.8742 -1.8240
 9386TIP3    H249650   1.455   3.332   3.545  0.2605 -0.9767  0.6398
 9387TIP3   OH249651   6.585   4.882  11.694 -0.2311 -0.0144 -0.0235
 9387TIP3    H149652   6.574   4.965  11.649 -0.7200 -0.2490 -0.3526
 9387TIP3    H249653   6.591   4.905  11.787 -1.9513  0.3048  0.0567
 9388TIP3   OH249654   5.309   1.668   0.126 -0.1866  0.3639 -0.4561
 9388TIP3    H149655   5.309   1.734   0.056  0.7496  0.2236 -0.6093
 9388TIP3    H249656   5.368   1.600   0.094  1.1559  0.8122  0.9334
 9389TIP3   OH249657   0.290   3.354   2.606  0.1448 -0.1298  0.1352
 9389TIP3    H149658   0.308   3.261   2.588  2.1143 -0.1674  1.8223
 9389TIP3    H249659   0.325   3.400   2.530  2.3566 -0.6299  0.7598
 9390TIP3   OH249660   5.540   3.797   0.239 -0.6477 -0.0954 -0.2612
 9390TIP3    H149661   5.488   3.789   0.319 -1.5279  1.0288 -0.6936
 9390TIP3    H249662   5.476   3.812   0.170  0.2316  1.2548 -0.8316
 9391TIP3   OH249663   3.432   4.977  13.737  0.6868 -0.1879  1.2474
 9391TIP3    H149664   3.499   5.007  13.675  0.7846  0.6105  1.7278
 9391TIP3    H249665   3.480   4.922  13.799  0.6446 -0.7307  0.8066
 9392TIP3   OH249666   1.615   0.920  17.175  0.0363 -0.6027 -0.1599
 9392TIP3    H149667   1.624   0.910  17.080  3.3097 -2.7181  0.1906
 9392TIP3    H249668   1.567   0.842  17.203 -1.3977  0.2848 -0.0783
 9393TIP3   OH249669   2.613   4.399  13.830  0.0634  0.4924 -0.0014
 9393TIP3    H149670   2.578   4.460  13.894  1.8125  0.0282  1.4813
 9393TIP3    H249671   2.699   4.434  13.806 -0.1275  0.1184 -1.3475
 9394TIP3   OH249672   1.251   6.113  13.450 -0.8764 -0.1672  0.0461
 9394TIP3    H149673   1.166   6.076  13.427 -0.3173 -1.3274 -0.2214
 9394TIP3    H249674   1.311   6.078  13.385 -0.0071 -0.1784  0.8329
 9395TIP3   OH249675   0.372   0.943  14.128  0.0493  0.0833 -0.4630
 9395TIP3    H149676   0.387   1.026  14.174  1.1667 -0.1817 -0.3238
 9395TIP3    H249677   0.417   0.954  14.044  0.9375 -0.6804 -0.1036
 9396TIP3   OH249678   0.185   2.249   4.340 -0.1580  0.1436 -0.4206
 9396TIP3    H149679   0.260   2.286   4.294  0.4470  1.4775  1.5254
 9396TIP3    H249680   0.223   2.198   4.412 -1.0723  1.3193  0.9484
 9397TIP3   OH249681   5.453   6.476  11.127 -0.4613  0.8490 -0.1499
 9397TIP3    H149682   5.389   6.432  11.182 -1.1553  2.0827  0.0725
 9397TIP3    H249683   5.433   6.569  11.137 -1.0127  1.1285 -2.9230
 9398TIP3   OH249684   3.504   1.821  14.528 -0.6920 -0.3010 -0.2258
 9398TIP3    H149685   3.443   1.803  14.600 -1.1194 -0.1100 -0.5364
 9398TIP3    H249686   3.591   1.805  14.566 -0.9623 -1.2581  0.0252
 9399TIP3   OH249687   2.202   2.791   3.230 -0.4117 -0.4675  0.3707
 9399TIP3    H149688   2.190   2.820   3.139  0.1298 -2.7692 -0.4972
 9399TIP3    H249689   2.297   2.797   3.244 -0.5637  0.5857  1.0800
 9400TIP3   OH249690   1.445   5.713  13.606 -0.1237  0.4274 -0.7754
 9400TIP3    H149691   1.380   5.703  13.536  1.3017  0.9853 -2.2640
 9400TIP3    H249692   1.444   5.806  13.628 -0.2975  0.3194 -0.3145
 9401TIP3   OH249693   5.382   5.866   0.756  0.0198  0.1780 -0.2256
 9401TIP3    H149694   5.319   5.892   0.689  1.4826  1.5045 -1.1743
 9401TIP3    H249695   5.398   5.945   0.807  1.9051  0.2708 -0.8827
 9402TIP3   OH249696   3.333   5.730  11.267  0.7916  0.4001  0.1837
 9402TIP3    H149697   3.252   5.774  11.296  0.4157  0.2226 -0.5798
 9402TIP3    H249698   3.395   5.747  11.338 -0.0518  0.1370  1.0155
 9403TIP3   OH249699   0.132   1.659  15.734  0.0640  0.2410 -0.4802
 9403TIP3    H149700   0.195   1.640  15.803  1.1146  1.5811 -1.0154
 9403TIP3    H249701   0.141   1.586  15.672  1.3980  0.5863 -0.7300
 9404TIP3   OH249702   1.996   5.483  13.866 -0.0004 -0.3983  0.1074
 9404TIP3    H149703   2.089   5.489  13.886 -0.2882 -0.2378  1.4964
 9404TIP3    H249704   1.956   5.553  13.917 -0.9751 -1.0164  0.2186
 9405TIP3   OH249705   2.780   4.242   1.956  0.2406 -0.2901 -0.2532
 9405TIP3    H149706   2.861   4.209   1.918  0.7991  0.3764  0.3332
 9405TIP3    H249707   2.728   4.269   1.880  0.4794 -0.9112 -0.6428
 9406TIP3   OH249708   1.024   0.225   0.553  0.0826 -0.1933 -0.0732
 9406TIP3    H149709   1.033   0.198   0.645  0.5033 -0.1387 -0.0974
 9406TIP3    H249710   1.094   0.289   0.540 -1.9676  2.3493  0.5076
 9407TIP3   OH249711   1.155   6.816  13.576 -0.0319  0.3707 -0.1859
 9407TIP3    H149712   1.064   6.838  13.597 -0.1150  2.4328 -2.2232
 9407TIP3    H249713   1.204   6.894  13.601  0.6899  0.4800 -1.7937
 9408TIP3   OH249714   2.551   3.863   1.260  0.1206  0.4310 -0.1712
 9408TIP3    H149715   2.469   3.852   1.307 -0.7846  0.2622 -1.7355
 9408TIP3    H249716   2.593   3.777   1.264  1.5281  1.1238  2.8463
 9409TIP3   OH249717   3.482   5.322   6.776  0.2048  0.3185 -0.3565
 9409TIP3    H149718   3.410   5.259   6.772 -0.4912  1.0924 -0.0980
 9409TIP3    H249719   3.559   5.268   6.796 -0.1332 -0.6333 -1.4663
 9410TIP3   OH249720   3.355   6.814   6.221  0.4762  0.2429 -0.1289
 9410TIP3    H149721   3.425   6.794   6.160  0.3797  0.2616 -0.2446
 9410TIP3    H249722   3.297   6.874   6.173 -0.6254 -1.2292 -0.6973
 9411TIP3   OH249723   3.306   3.717  14.236 -0.3118 -0.5046 -0.7650
 9411TIP3    H149724   3.297   3.630  14.274  0.1566  0.1081  0.8685
 9411TIP3    H249725   3.334   3.702  14.146 -1.8388 -2.0589 -1.0351
 9412TIP3   OH249726   4.029   2.224  13.988 -0.2358 -0.0188  0.1022
 9412TIP3    H149727   4.122   2.229  14.011 -0.1924  1.0353 -0.2248
 9412TIP3    H249728   4.023   2.149  13.928  1.0844  1.9047 -2.6818
 9413TIP3   OH249729   3.724   2.538  11.121 -0.0817 -0.3063  0.4262
 9413TIP3    H149730   3.744   2.561  11.031 -2.4203  1.9112  0.3688
 9413TIP3    H249731   3.768   2.605  11.174 -1.7581  0.6863  0.6449
 9414TIP3   OH249732   3.059   2.994   2.279  0.1046 -0.4658  0.3892
 9414TIP3    H149733   2.975   2.955   2.255 -0.3331  0.3456  0.5747
 9414TIP3    H249734   3.123   2.949   2.224 -0.5841 -0.3330 -0.5371
 9415TIP3   OH249735   2.723   5.596  11.576 -0.4750 -0.7779 -0.5634
 9415TIP3    H149736   2.788   5.617  11.643 -0.6497  1.1866 -0.9499
 9415TIP3    H249737   2.773   5.590  11.494 -0.9305  3.5306 -1.3822
 9416TIP3   OH249738   4.088   1.134   1.449 -0.1864  0.5007  0.1035
 9416TIP3    H149739   4.014   1.192   1.432  0.1222  0.7772 -0.3116
 9416TIP3    H249740   4.164   1.181   1.415  0.1071 -0.0175  0.0236
 9417TIP3   OH249741   3.714   4.571   6.549  0.9580  0.2174  0.7184
 9417TIP3    H149742   3.685   4.480   6.546  2.1337 -0.1862  0.9320
 9417TIP3    H249743   3.634   4.623   6.545  0.3279 -0.8027 -0.7755
 9418TIP3   OH249744   5.963   0.016   0.464  0.5625 -0.2621 -0.0698
 9418TIP3    H149745   5.946  -0.076   0.484  0.4549 -0.3394 -0.4966
 9418TIP3    H249746   5.878   0.059   0.475 -0.1470 -0.7542 -2.7982
 9419TIP3   OH249747   0.312   2.329  16.073 -0.5083 -0.2938 -0.3150
 9419TIP3    H149748   0.219   2.312  16.090 -1.1258  2.4087 -0.4784
 9419TIP3    H249749   0.355   2.313  16.157 -1.6048  1.1149  0.5599
 9420TIP3   OH249750   4.436   3.505  11.447 -0.1509 -0.1879 -0.2160
 9420TIP3    H149751   4.460   3.451  11.522 -3.6252 -1.2905  0.2835
 9420TIP3    H249752   4.422   3.442  11.376  3.4817  0.8594 -2.1038
 9421TIP3   OH249753   5.336   0.652  12.861  0.3486  0.6324 -0.6398
 9421TIP3    H149754   5.342   0.739  12.822  0.1089  1.4960  1.1669
 9421TIP3    H249755   5.425   0.631  12.889  0.3799  0.3362 -0.9452
 9422TIP3   OH249756   4.702   4.531   1.724  0.2551 -0.1539  0.2411
 9422TIP3    H149757   4.709   4.540   1.819 -0.8183  0.2541  0.2956
 9422TIP3    H249758   4.631   4.468   1.711 -0.0561  0.2977 -0.2895
 9423TIP3   OH249759   1.878   6.334  16.135 -0.2554 -0.3136  0.0261
 9423TIP3    H149760   1.805   6.343  16.197 -1.0648  2.0510 -1.1598
 9423TIP3    H249761   1.955   6.358  16.185 -0.9796  2.2400  0.0665
 9424TIP3   OH249762   4.026   0.837   2.984 -0.1750 -0.1980 -0.1280
 9424TIP3    H149763   4.034   0.871   3.073  0.3525  2.6927 -1.1844
 9424TIP3    H249764   3.932   0.829   2.969 -0.2699 -0.4918  0.5718
 9425TIP3   OH249765   2.332   2.266  11.974  0.0990  0.1136  0.4233
 9425TIP3    H149766   2.275   2.240  11.901 -0.8593  0.7739  0.9144
 9425TIP3    H249767   2.317   2.199  12.040  1.0121 -0.5172  0.0114
 9426TIP3   OH249768   6.747   5.738   3.115 -0.5381  0.7597  0.3275
 9426TIP3    H149769   6.765   5.780   3.200  0.3622  0.2106  0.4219
 9426TIP3    H249770   6.740   5.811   3.053  1.3783  1.0836  0.4139
 9427TIP3   OH249771   3.646   5.345  11.977  0.3594  0.4714  0.3365
 9427TIP3    H149772   3.578   5.304  11.924  1.4128 -0.9722  0.0342
 9427TIP3    H249773   3.643   5.299  12.061  0.2304  1.1618  0.7152
 9428TIP3   OH249774   2.806   1.789  12.079 -0.1334  0.5757  0.4497
 9428TIP3    H149775   2.838   1.845  12.149  0.0005  0.0043  0.8493
 9428TIP3    H249776   2.715   1.817  12.066  0.1232  1.3198  0.1973
 9429TIP3   OH249777   6.512   1.064   5.697  0.4385 -0.7617 -0.0463
 9429TIP3    H149778   6.428   1.108   5.692  0.0251 -1.5660 -0.3082
 9429TIP3    H249779   6.525   1.047   5.790 -0.0139 -1.2432 -0.0664
 9430TIP3   OH249780   3.907   5.526   5.343 -0.0070  0.9116 -0.2658
 9430TIP3    H149781   3.920   5.431   5.340  2.5234  1.2054 -1.6877
 9430TIP3    H249782   3.908   5.548   5.436 -2.4932 -0.5756  0.2173
 9431TIP3   OH249783   2.424   5.094  13.278 -1.3837 -0.0565  0.2756
 9431TIP3    H149784   2.373   5.025  13.320 -3.7615  1.9715  0.9873
 9431TIP3    H249785   2.464   5.142  13.351 -1.2887  0.4411 -0.1005
 9432TIP3   OH249786   6.699   0.319  16.170  0.2380 -0.2506 -0.6330
 9432TIP3    H149787   6.684   0.245  16.110  1.5352 -1.5268  0.5383
 9432TIP3    H249788   6.612   0.339  16.204 -0.3248 -0.3865 -1.9215
 9433TIP3   OH249789   4.030   6.310  16.683 -0.3102  0.2114 -0.1349
 9433TIP3    H149790   4.075   6.324  16.766  1.8357  0.7543 -1.3288
 9433TIP3    H249791   4.001   6.398  16.658 -2.0514 -0.1167  0.5712
 9434TIP3   OH249792   3.062   6.465   4.985  0.1264  0.5341 -0.1527
 9434TIP3    H149793   3.012   6.463   5.067 -2.7282 -0.6166 -1.7794
 9434TIP3    H249794   3.114   6.384   4.988 -0.3404  0.2427  0.2889
 9435TIP3   OH249795   2.956   3.707  16.602  0.3850  0.0910  0.9698
 9435TIP3    H149796   2.985   3.619  16.626  0.4307  0.1437  1.1075
 9435TIP3    H249797   2.863   3.697  16.584  0.6415 -0.2336 -0.2321
 9436TIP3   OH249798   6.106   3.381   5.178  0.2102 -0.5633  0.0439
 9436TIP3    H149799   6.076   3.313   5.239  0.8088 -0.4615  0.4623
 9436TIP3    H249800   6.146   3.332   5.106  1.6122 -0.6543  0.8546
 9437TIP3   OH249801   3.390   5.095  14.749  0.4501 -0.0820  0.3127
 9437TIP3    H149802   3.422   5.031  14.812 -0.3855 -1.1450 -0.3006
 9437TIP3    H249803   3.468   5.127  14.705  0.8229 -1.3212  0.0462
 9438TIP3   OH249804   1.988   6.411  11.584 -0.1336  0.4481 -0.1758
 9438TIP3    H149805   2.059   6.377  11.638  1.9710  1.5108 -2.1238
 9438TIP3    H249806   2.001   6.506  11.583 -0.5477  0.5298 -1.8922
 9439TIP3   OH249807   0.266   3.815   5.189  0.0025  0.8040 -0.6400
 9439TIP3    H149808   0.318   3.879   5.139 -0.1764  2.4235  1.1489
 9439TIP3    H249809   0.184   3.808   5.141  1.2125 -0.6836 -2.6952
 9440TIP3   OH249810   3.454   1.481   2.775 -0.5039 -0.0526  0.5771
 9440TIP3    H149811   3.472   1.432   2.694 -3.4140  0.0569 -0.2619
 9440TIP3    H249812   3.443   1.571   2.747  0.0651  0.2676  1.3636
 9441TIP3   OH249813   4.108   3.268   3.008  0.1135  0.6013  0.4979
 9441TIP3    H149814   4.058   3.267   2.926 -0.5054  0.4512  0.8707
 9441TIP3    H249815   4.049   3.230   3.072  0.2871  1.4996  1.1986
 9442TIP3   OH249816   0.875   0.005  13.732 -0.2671 -0.3345 -0.4255
 9442TIP3    H149817   0.819  -0.025  13.803 -1.5587  1.5416 -0.5909
 9442TIP3    H249818   0.822   0.068  13.684  1.1566 -0.2988 -2.0650
 9443TIP3   OH249819   4.000   0.505  15.530  0.4790  0.4936  0.4708
 9443TIP3    H149820   3.913   0.469  15.546  0.3757  0.7518  0.4937
 9443TIP3    H249821   4.058   0.429  15.530  0.1365  0.2142 -0.3993
 9444TIP3   OH249822   2.271   0.152   1.142  0.2092  0.0279 -0.5136
 9444TIP3    H149823   2.342   0.186   1.197 -2.0311  0.6009  2.2208
 9444TIP3    H249824   2.300   0.170   1.052  4.4732 -1.7615  0.2582
 9445TIP3   OH249825   1.686   5.932  15.972 -0.2920  0.3344  0.7890
 9445TIP3    H149826   1.749   5.931  15.901 -0.7659  0.3019  0.3626
 9445TIP3    H249827   1.686   6.022  16.004 -0.1838  0.3833  0.6506
 9446TIP3   OH249828   1.307   5.774   6.028 -0.6762  0.9475  0.3427
 9446TIP3    H149829   1.371   5.716   5.987 -1.2196  1.0316 -0.6438
 9446TIP3    H249830   1.360   5.836   6.078  0.0306  1.1174 -0.5991
 9447TIP3   OH249831   1.037   0.252  12.003 -0.3297  0.1614 -0.0129
 9447TIP3    H149832   1.009   0.193  11.934  2.4217  0.6472 -1.6761
 9447TIP3    H249833   1.070   0.194  12.072 -2.3445 -0.2980  0.6308
 9448TIP3   OH249834   3.042   4.439   5.275  0.4526 -0.1947  0.5589
 9448TIP3    H149835   2.947   4.445   5.286  0.2471 -0.5398 -0.7595
 9448TIP3    H249836   3.078   4.513   5.325 -0.3951 -0.8224  2.1563
 9449TIP3   OH249837   5.453   2.274   5.515  0.8625  0.2006  0.2480
 9449TIP3    H149838   5.412   2.357   5.488 -0.2597  0.0457  1.3458
 9449TIP3    H249839   5.478   2.232   5.434 -1.3286  0.2496 -0.5302
 9450TIP3   OH249840   1.927   5.756  17.144  0.9457  0.1239 -0.3109
 9450TIP3    H149841   1.924   5.693  17.216 -1.8300  0.4089 -0.0835
 9450TIP3    H249842   1.906   5.704  17.066  1.1880  0.3097 -0.5003
 9451TIP3   OH249843   2.049   5.276   2.332  1.0210 -0.1130  0.3852
 9451TIP3    H149844   2.055   5.210   2.400 -1.0071  0.8967  1.6243
 9451TIP3    H249845   2.076   5.358   2.375  2.2958  0.1286 -0.7816
 9452TIP3   OH249846   1.694   0.583  15.725  0.1528 -0.1749 -0.2322
 9452TIP3    H149847   1.650   0.668  15.726  0.0792 -0.1748  1.6673
 9452TIP3    H249848   1.782   0.601  15.693 -0.4190  0.2636 -1.6442
 9453TIP3   OH249849   3.973   5.291  12.654  0.1346 -0.0474 -0.3323
 9453TIP3    H149850   3.995   5.383  12.646  0.6439  0.0504  1.6302
 9453TIP3    H249851   4.036   5.245  12.599 -1.0116  0.8051 -2.4773
 9454TIP3   OH249852   4.609   2.668   3.150 -0.1362  0.6411 -0.0968
 9454TIP3    H149853   4.573   2.751   3.120 -1.6364  0.7367  1.7690
 9454TIP3    H249854   4.537   2.625   3.196  0.9719 -1.1203  0.1327
 9455TIP3   OH249855   0.322   0.500  10.684 -0.0199 -0.4222 -0.2077
 9455TIP3    H149856   0.323   0.574  10.623  1.0232 -0.0981  0.1724
 9455TIP3    H249857   0.230   0.492  10.711 -0.0078  1.4169  0.5292
 9456TIP3   OH249858   0.280   0.289  15.731  1.0169  0.2429  0.4017
 9456TIP3    H149859   0.210   0.231  15.702  0.5119  0.3011  1.4896
 9456TIP3    H249860   0.247   0.377  15.712  1.1564  0.2382  0.1320
 9457TIP3   OH249861   3.458   4.232   0.208 -0.2351  0.7125  0.7542
 9457TIP3    H149862   3.414   4.218   0.124  0.1890  0.6095  0.5459
 9457TIP3    H249863   3.419   4.168   0.267 -0.1065  0.3699  0.4741
 9458TIP3   OH249864   4.591   6.413  14.440  0.7301  0.5719  0.6143
 9458TIP3    H149865   4.606   6.325  14.405  0.4312  1.1600 -1.0769
 9458TIP3    H249866   4.613   6.405  14.533  0.0400 -1.4535  0.6737
 9459TIP3   OH249867   3.485   2.673  16.350 -0.3497  0.6812  0.1582
 9459TIP3    H149868   3.557   2.714  16.301  0.0628  0.5286  0.6235
 9459TIP3    H249869   3.406   2.715  16.316  0.0973  2.2644  0.9898
 9460TIP3   OH249870   2.424   0.275   0.028 -0.6612 -0.3005 -0.5769
 9460TIP3    H149871   2.356   0.288  -0.038  0.5389 -0.8329 -1.9670
 9460TIP3    H249872   2.402   0.191   0.068  0.2312 -1.4525 -2.3962
 9461TIP3   OH249873   4.321   0.272   4.932 -0.7392  0.3381  0.2432
 9461TIP3    H149874   4.261   0.332   4.889 -2.0332 -0.6560  0.5813
 9461TIP3    H249875   4.403   0.320   4.939 -1.1138  1.2769 -1.3978
 9462TIP3   OH249876   3.650   6.097   1.052 -0.2157  0.8644  0.0196
 9462TIP3    H149877   3.719   6.138   0.999  0.6949  0.5119  0.9086
 9462TIP3    H249878   3.690   6.084   1.138 -1.5166  0.9865  0.6687
 9463TIP3   OH249879   1.085   6.418  13.012  0.7291  0.4489  0.5808
 9463TIP3    H149880   1.012   6.358  13.026  0.0231  0.9424 -0.8282
 9463TIP3    H249881   1.163   6.365  13.027  0.1179 -0.8054 -0.5129
 9464TIP3   OH249882   0.563   3.689  10.394  0.0040 -0.1911 -0.0271
 9464TIP3    H149883   0.495   3.735  10.442  1.1230  0.2875  1.1534
 9464TIP3    H249884   0.607   3.757  10.343  0.1890 -0.3438 -0.0717
 9465TIP3   OH249885   4.816   2.492  13.245 -0.0557  0.2953  0.0114
 9465TIP3    H149886   4.838   2.534  13.162  0.3482 -1.2120 -0.6892
 9465TIP3    H249887   4.870   2.413  13.246 -1.5320 -0.7503  0.7622
 9466TIP3   OH249888   1.793   2.039   5.403 -0.2541  0.0248  0.6216
 9466TIP3    H149889   1.843   2.119   5.391  0.7827 -0.5278  1.1477
 9466TIP3    H249890   1.702   2.065   5.386  0.3831  0.5948 -2.4455
 9467TIP3   OH249891   3.984   1.398   5.583 -0.5611  0.2475 -0.9385
 9467TIP3    H149892   3.994   1.478   5.635 -0.0242 -1.3811  1.6687
 9467TIP3    H249893   3.893   1.401   5.552 -1.5375  0.4874  1.6951
 9468TIP3   OH249894   2.596   2.087  14.411  0.3288 -0.3947  0.3225
 9468TIP3    H149895   2.505   2.115  14.399  0.8157  0.2261 -2.5203
 9468TIP3    H249896   2.636   2.158  14.461  0.0035  1.0120 -1.3230
 9469TIP3   OH249897   2.517   6.430   5.365  0.0187 -0.1102 -0.6048
 9469TIP3    H149898   2.459   6.469   5.300 -0.1597 -1.0783 -1.0439
 9469TIP3    H249899   2.574   6.502   5.394  1.6194 -0.0990 -3.4557
 9470TIP3   OH249900   1.214   2.327  14.157 -0.1352  0.1281 -0.7282
 9470TIP3    H149901   1.131   2.311  14.113 -0.9407 -0.1015  0.8018
 9470TIP3    H249902   1.280   2.284  14.102 -0.9830  0.5244 -2.0841
 9471TIP3   OH249903   2.907   2.707   1.285  0.1433  0.1242 -0.0509
 9471TIP3    H149904   2.957   2.778   1.326  0.1973  0.3067 -0.4306
 9471TIP3    H249905   2.899   2.733   1.194 -2.4966  1.1605  0.3903
 9472TIP3   OH249906   4.480   5.183   3.042  0.1375  0.0900 -0.0523
 9472TIP3    H149907   4.391   5.164   3.013 -0.2667  1.5620  0.1589
 9472TIP3    H249908   4.470   5.243   3.115  1.2705 -0.9733  1.0355
 9473TIP3   OH249909   5.981   1.309  14.607  0.1807 -0.2144 -0.5017
 9473TIP3    H149910   5.920   1.380  14.585  1.9026  1.6791  0.4508
 9473TIP3    H249911   5.924   1.236  14.633 -1.6775  1.1002 -0.6473
 9474TIP3   OH249912   2.360   3.845   0.432 -0.0540 -0.5922 -0.7710
 9474TIP3    H149913   2.420   3.914   0.405 -0.6377  0.4483  0.4216
 9474TIP3    H249914   2.398   3.810   0.513  0.7673 -2.4234 -1.8890
 9475TIP3   OH249915   4.555   1.137  14.273 -0.7740  0.2969  0.1077
 9475TIP3    H149916   4.543   1.076  14.200 -0.2618 -0.0162  0.2795
 9475TIP3    H249917   4.571   1.081  14.348 -0.4104  0.6472  0.2919
 9476TIP3   OH249918   5.478   6.505  13.575  0.1570 -0.6194  0.1018
 9476TIP3    H149919   5.410   6.515  13.508  0.1478  1.4900  0.3514
 9476TIP3    H249920   5.553   6.552  13.539  0.2756  0.2214  1.3800
 9477TIP3   OH249921   6.666   5.855   4.644  0.1614  0.0773  0.1942
 9477TIP3    H149922   6.580   5.851   4.685 -0.0168  1.9031  0.0946
 9477TIP3    H249923   6.648   5.850   4.550 -0.1874  3.2252 -0.0110
 9478TIP3   OH249924   5.905   2.303  16.069 -0.2207  0.4042  0.8283
 9478TIP3    H149925   5.906   2.382  16.123  0.1600 -0.3145  1.9134
 9478TIP3    H249926   5.817   2.268  16.082 -0.6525  1.0433 -0.2709
 9479TIP3   OH249927   2.749   4.090  13.136  0.4500  0.0648 -0.1372
 9479TIP3    H149928   2.752   4.000  13.169  1.6520 -0.7579 -2.2630
 9479TIP3    H249929   2.803   4.140  13.198  0.9410 -0.9700  0.3054
 9480TIP3   OH249930   4.092   5.539  15.613  0.3505 -0.0243 -0.3339
 9480TIP3    H149931   4.030   5.554  15.685 -0.9793 -0.7976 -1.2874
 9480TIP3    H249932   4.038   5.511  15.540  1.8686 -1.0897 -1.0985
 9481TIP3   OH249933   2.481   6.374  11.885 -0.0015 -0.1117 -0.1420
 9481TIP3    H149934   2.448   6.463  11.868 -0.5076 -0.5491 -1.6585
 9481TIP3    H249935   2.497   6.338  11.798  0.3913 -1.4425  0.4575
 9482TIP3   OH249936   3.237   2.262   1.639  0.1159 -0.2507  0.3280
 9482TIP3    H149937   3.157   2.209   1.641  0.4191 -0.7642 -0.4866
 9482TIP3    H249938   3.238   2.308   1.722 -0.4263 -1.1520  0.8493
 9483TIP3   OH249939   3.127   5.561  14.588  0.8997  0.4990 -0.2059
 9483TIP3    H149940   3.090   5.501  14.653 -0.4895  0.4645 -0.9933
 9483TIP3    H249941   3.087   5.535  14.506  2.8020  0.3926 -1.1712
 9484TIP3   OH249942   2.670   6.220  14.343  0.2698 -0.0461  0.2919
 9484TIP3    H149943   2.638   6.130  14.330  1.1117 -0.2073 -0.7628
 9484TIP3    H249944   2.737   6.212  14.411  0.5120 -0.2494  0.0291
 9485TIP3   OH249945   4.794   5.109  12.843 -0.0691 -0.0619 -0.2688
 9485TIP3    H149946   4.822   5.151  12.924  0.5651 -0.3569 -0.3297
 9485TIP3    H249947   4.754   5.027  12.870 -0.4161  0.1237 -0.2154
 9486TIP3   OH249948   0.122   4.215  10.599 -0.3427 -0.4789  0.4303
 9486TIP3    H149949   0.039   4.168  10.597 -0.9287  0.5192 -0.9287
 9486TIP3    H249950   0.189   4.149  10.584 -0.9177 -1.2350  1.1463
 9487TIP3   OH249951   2.735   1.622   6.099 -0.0910 -0.6187 -0.1334
 9487TIP3    H149952   2.819   1.640   6.140 -1.1668  0.2347  1.8182
 9487TIP3    H249953   2.676   1.600   6.171 -2.2455  1.5628 -1.0320
 9488TIP3   OH249954   0.985   1.188  11.893 -0.1196  0.2789 -0.1601
 9488TIP3    H149955   0.912   1.250  11.886  0.1342  0.7804  1.2452
 9488TIP3    H249956   1.056   1.240  11.932  0.7721 -0.3779 -0.8654
 9489TIP3   OH249957   4.997   1.737  12.164  0.3567  0.3940 -0.4951
 9489TIP3    H149958   4.920   1.680  12.166  1.8137 -1.6643 -0.7030
 9489TIP3    H249959   5.037   1.727  12.250 -0.0963  2.2560 -0.0105
 9490TIP3   OH249960   0.724   6.039   2.672 -0.0538 -0.1367 -0.4276
 9490TIP3    H149961   0.635   6.018   2.700 -0.3496 -0.7475 -1.7232
 9490TIP3    H249962   0.770   5.955   2.673  0.2725  0.0366 -0.5586
 9491TIP3   OH249963   3.594   0.798   6.548  0.6634 -0.0293  0.0016
 9491TIP3    H149964   3.670   0.749   6.581 -0.1317 -0.1642  1.7859
 9491TIP3    H249965   3.609   0.888   6.577  0.2137 -0.0338  0.2629
 9492TIP3   OH249966   4.210   0.416  11.270  0.1543  0.3295 -0.3490
 9492TIP3    H149967   4.146   0.486  11.285 -0.6676 -0.1037 -1.6658
 9492TIP3    H249968   4.158   0.343  11.236  0.4115 -2.2326  4.0809
 9493TIP3   OH249969   2.652   0.531  13.690  0.0402 -0.1798  0.2060
 9493TIP3    H149970   2.677   0.458  13.747  0.3727 -0.3547 -0.1576
 9493TIP3    H249971   2.578   0.497  13.640  0.2793 -0.3145 -0.0573
 9494TIP3   OH249972   0.019   1.677   4.152  0.0341 -0.0515 -0.4065
 9494TIP3    H149973  -0.051   1.693   4.215 -0.8578  0.8133 -1.5737
 9494TIP3    H249974   0.009   1.745   4.086  1.7434 -0.1504 -0.8310
 9495TIP3   OH249975   1.378   0.703   1.203  0.0894  0.0598 -0.4660
 9495TIP3    H149976   1.415   0.772   1.148  2.7829  0.3646  1.5257
 9495TIP3    H249977   1.336   0.750   1.275  2.0381 -0.2591  0.9598
 9496TIP3   OH249978   1.513   6.034  13.229 -0.0785  0.0427 -0.3722
 9496TIP3    H149979   1.572   5.960  13.235 -0.5053 -0.2383  0.4804
 9496TIP3    H249980   1.557   6.104  13.278 -0.0029  0.1410 -0.5768
 9497TIP3   OH249981   4.573   3.176  16.354  0.3818  0.1048 -0.4777
 9497TIP3    H149982   4.485   3.196  16.323 -0.8239 -0.9390  2.0103
 9497TIP3    H249983   4.583   3.082  16.338 -0.2496 -0.4440  2.0507
 9498TIP3   OH249984   4.496   3.185  13.847  0.0197 -0.7164 -0.3059
 9498TIP3    H149985   4.413   3.137  13.842 -0.0986 -0.4602 -0.7701
 9498TIP3    H249986   4.499   3.237  13.767 -0.4878  1.1107  0.8251
 9499TIP3   OH249987   2.179   2.509  11.080  0.1848  0.2390  0.2815
 9499TIP3    H149988   2.122   2.496  11.156  0.2013  0.6800  0.3684
 9499TIP3    H249989   2.181   2.423  11.037  1.2144 -0.3679  1.4861
 9500TIP3   OH249990   2.046   4.668   1.509  0.2458 -0.4198  0.2983
 9500TIP3    H149991   2.066   4.581   1.544 -0.8448 -0.2676  1.3640
 9500TIP3    H249992   1.978   4.652   1.443  0.4869 -0.4385  0.0537
 9501TIP3   OH249993   5.320   0.398   1.651  0.4073  0.4304 -0.0730
 9501TIP3    H149994   5.373   0.380   1.573 -0.0013 -3.4080  0.3709
 9501TIP3    H249995   5.232   0.411   1.617  0.4461  0.0246 -0.3293
 9502TIP3   OH249996   1.571   3.011   2.368  0.0090  0.5116 -0.0675
 9502TIP3    H149997   1.496   3.062   2.400 -0.3423  0.3841 -0.6906
 9502TIP3    H249998   1.585   2.945   2.436 -1.0629 -0.0807 -0.4081
 9503TIP3   OH249999   2.519   5.313   5.240  0.5990 -0.3656  0.1519
 9503TIP3    H150000   2.451   5.262   5.285  0.5205  0.0171  0.4715
 9503TIP3    H250001   2.515   5.283   5.150  1.2639 -1.6839  0.5392
 9504TIP3   OH250002   1.086   0.333  15.814  0.4029 -0.0978 -0.1721
 9504TIP3    H150003   1.155   0.316  15.750  0.9361  1.2936 -0.0091
 9504TIP3    H250004   1.128   0.314  15.899  0.6425  0.8225 -0.0675
 9505TIP3   OH250005   3.649   4.561  14.488 -0.2659  0.3855 -0.1863
 9505TIP3    H150006   3.706   4.496  14.529 -1.0064  0.4488  0.9848
 9505TIP3    H250007   3.566   4.515  14.474 -1.1371  1.3227  1.6089
 9506TIP3   OH250008   4.838   0.295   5.493 -0.1687  0.1041  0.4110
 9506TIP3    H150009   4.832   0.256   5.581  1.2400  0.8061  0.8606
 9506TIP3    H250010   4.750   0.329   5.476 -0.4122  0.1733  1.6666
 9507TIP3   OH250011   0.771   3.633  17.027  0.0115  0.3764  0.3816
 9507TIP3    H150012   0.862   3.606  17.036  0.0591  0.1854 -0.5211
 9507TIP3    H250013   0.725   3.553  16.999 -0.0716  0.8991 -1.0638
 9508TIP3   OH250014   3.502   1.750   2.734  0.4532  0.3870  0.1659
 9508TIP3    H150015   3.551   1.810   2.790  0.6610  0.3467  0.0317
 9508TIP3    H250016   3.492   1.797   2.651 -0.8527  0.8994  0.6037
 9509TIP3   OH250017   6.445   4.284  11.089  0.1343  0.4132 -0.1262
 9509TIP3    H150018   6.538   4.281  11.112  0.1632 -0.7942 -0.3247
 9509TIP3    H250019   6.444   4.312  10.998  0.3898 -0.6392 -0.4688
 9510TIP3   OH250020   0.368   1.165   2.171 -0.4447  0.1010 -0.1788
 9510TIP3    H150021   0.448   1.176   2.119 -2.0205 -0.8934 -3.0822
 9510TIP3    H250022   0.326   1.251   2.167  0.3272  0.5679  1.1786
 9511TIP3   OH250023   6.822   2.211  15.214 -0.3613  0.3859  0.3220
 9511TIP3    H150024   6.797   2.141  15.155  2.2950  0.8804 -1.5677
 9511TIP3    H250025   6.866   2.276  15.158  3.0742  0.5087  2.8106
 9512TIP3   OH250026   2.599   4.291   5.308  0.3495  0.2521  0.1961
 9512TIP3    H150027   2.656   4.220   5.335 -0.5986 -0.3018  0.7935
 9512TIP3    H250028   2.513   4.269   5.345 -0.7053  0.1516 -2.0746
 9513TIP3   OH250029   0.999   3.795  14.131  0.3118  0.1652 -0.2078
 9513TIP3    H150030   1.044   3.777  14.049  1.7289 -0.5769  0.6824
 9513TIP3    H250031   1.052   3.750  14.197 -2.3908 -1.8435  0.7916
 9514TIP3   OH250032   5.567   4.267  14.995  0.4755  0.4504 -0.1118
 9514TIP3    H150033   5.545   4.305  14.909  2.5092 -0.9823 -1.3515
 9514TIP3    H250034   5.636   4.204  14.976  0.3576 -0.5704  2.5046
 9515TIP3   OH250035   2.033   3.931  16.337  0.3653 -0.3305 -0.4136
 9515TIP3    H150036   1.938   3.921  16.329  0.0314  1.2342  1.0567
 9515TIP3    H250037   2.054   3.895  16.423  0.8454  0.7895 -0.0508
 9516TIP3   OH250038   5.745   5.756   4.493  0.7016  0.7032 -0.1192
 9516TIP3    H150039   5.800   5.718   4.561  1.2327  3.1500  0.9091
 9516TIP3    H250040   5.761   5.850   4.498 -2.9003  1.4764 -0.3996
 9517TIP3   OH250041   3.037   1.839  13.841 -0.0133  1.2729 -0.9107
 9517TIP3    H150042   2.998   1.867  13.924  0.5703 -0.2293 -0.0955
 9517TIP3    H250043   3.119   1.888  13.835  0.5921  0.4329  0.0886
 9518TIP3   OH250044   0.455   2.259  14.477  0.3583 -0.1424  0.7215
 9518TIP3    H150045   0.430   2.343  14.516  0.2360 -0.7369  1.9775
 9518TIP3    H250046   0.376   2.206  14.480  0.3152 -0.1662 -0.4910
 9519TIP3   OH250047   3.103   3.659  12.677 -0.2323 -0.2881  0.2121
 9519TIP3    H150048   3.152   3.632  12.754  2.5387  2.5862 -0.3263
 9519TIP3    H250049   3.022   3.696  12.712  1.2388  1.5497  1.9581
 9520TIP3   OH250050   4.860   0.212   0.192  0.0081 -0.6487 -0.3407
 9520TIP3    H150051   4.836   0.213   0.285 -0.6732 -0.7330 -0.5091
 9520TIP3    H250052   4.799   0.150   0.152 -0.3731  0.1423 -1.0163
 9521TIP3   OH250053   6.760   0.185   2.546  0.1212  0.2623 -0.3261
 9521TIP3    H150054   6.783   0.094   2.528 -0.1184 -0.1676  1.3770
 9521TIP3    H250055   6.839   0.235   2.525  0.7505 -0.5256  0.1207
 9522TIP3   OH250056   0.052   6.446  13.882  0.6021  0.6244 -0.0022
 9522TIP3    H150057   0.014   6.513  13.826 -0.0975 -0.3141 -0.6823
 9522TIP3    H250058   0.108   6.494  13.943  1.8775  1.6044 -1.8799
 9523TIP3   OH250059   0.324   4.911   4.950 -0.3421  0.7153 -0.0285
 9523TIP3    H150060   0.319   4.829   5.000  0.6147 -0.5531 -1.8984
 9523TIP3    H250061   0.378   4.889   4.874 -1.0782  2.7745 -1.2142
 9524TIP3   OH250062   5.517   5.071  13.505 -0.1016 -0.4642 -0.6519
 9524TIP3    H150063   5.543   5.061  13.597 -1.6138 -0.2781 -0.1712
 9524TIP3    H250064   5.593   5.040  13.455  1.0216  0.0903  0.6375
 9525TIP3   OH250065   3.829   0.684  13.807 -0.1022 -0.1230  0.1173
 9525TIP3    H150066   3.769   0.683  13.881  0.3691 -0.9891  0.4939
 9525TIP3    H250067   3.900   0.626  13.832  1.4024  1.6127  0.0743
 9526TIP3   OH250068   4.409   3.704  13.605  0.2223  0.4960 -0.2137
 9526TIP3    H150069   4.337   3.643  13.620 -0.5475  1.3261 -0.5079
 9526TIP3    H250070   4.426   3.698  13.511  0.9753 -0.1648 -0.0496
 9527TIP3   OH250071   4.849   0.180  11.392 -0.1286 -0.2310  0.7315
 9527TIP3    H150072   4.894   0.111  11.440 -2.2946 -0.5208  2.5214
 9527TIP3    H250073   4.839   0.146  11.304  1.8456 -0.7097  0.6468
 9528TIP3   OH250074   4.156   2.812  14.995 -0.3296  0.5707  0.1018
 9528TIP3    H150075   4.116   2.807  14.908 -0.9570 -0.8240  0.4463
 9528TIP3    H250076   4.243   2.850  14.979 -0.6604  0.9109 -1.0380
 9529TIP3   OH250077   5.739   2.500   2.669 -0.0080  0.0999  0.5234
 9529TIP3    H150078   5.721   2.438   2.740  0.2392  0.1015  0.5870
 9529TIP3    H250079   5.758   2.582   2.714 -0.4640  0.2561  0.4353
 9530TIP3   OH250080   2.322   4.923  15.094 -0.0401  0.4849 -0.7437
 9530TIP3    H150081   2.303   4.941  15.185 -0.8515  1.9897 -1.1851
 9530TIP3    H250082   2.244   4.952  15.046  0.0531 -0.9865 -1.8536
 9531TIP3   OH250083   0.670   0.624   3.667 -0.4734  0.3435 -0.2729
 9531TIP3    H150084   0.685   0.713   3.634 -0.1684  0.2140 -0.4906
 9531TIP3    H250085   0.614   0.584   3.601 -0.3370  0.2700 -0.3457
 9532TIP3   OH250086   5.051   1.338  11.756  0.7194  0.0177  0.2044
 9532TIP3    H150087   5.063   1.243  11.754  0.0583 -0.0572 -1.1379
 9532TIP3    H250088   4.970   1.353  11.707  0.6678  1.2544  0.6382
 9533TIP3   OH250089   5.513   6.728   1.294 -0.4826  0.0110 -0.2748
 9533TIP3    H150090   5.602   6.727   1.329 -0.1869  0.7176 -0.9888
 9533TIP3    H250091   5.520   6.682   1.210 -1.1074 -1.3053  0.3546
 9534TIP3   OH250092   3.953   3.988   2.639  0.1890  0.1851  0.5474
 9534TIP3    H150093   3.891   4.056   2.616  1.2182  0.9955  0.0645
 9534TIP3    H250094   4.024   4.034   2.685  2.0573 -0.0827 -1.8229
 9535TIP3   OH250095   0.372   6.388   3.859 -0.4403  0.0400 -0.5161
 9535TIP3    H150096   0.332   6.472   3.881 -0.3341  0.2928 -1.2501
 9535TIP3    H250097   0.445   6.379   3.921  0.2482  1.0389 -1.1520
 9536TIP3   OH250098   2.063   1.836   0.450 -0.0242  0.0777 -0.1211
 9536TIP3    H150099   2.109   1.775   0.508 -1.0992 -1.2238 -0.5993
 9536TIP3    H250100   2.008   1.888   0.508 -1.3752 -1.4652  0.0457
 9537TIP3   OH250101   3.480   4.755   1.529 -0.3440 -0.1494  0.5150
 9537TIP3    H150102   3.514   4.703   1.457  1.3430  1.3915  0.1254
 9537TIP3    H250103   3.388   4.771   1.506 -0.0335 -0.3192 -0.9129
 9538TIP3   OH250104   0.587   5.324  16.522  0.1308  0.2185  0.8759
 9538TIP3    H150105   0.605   5.361  16.609 -3.8215  0.4839  1.7851
 9538TIP3    H250106   0.590   5.230  16.535  0.1393  0.2555  1.1540
 9539TIP3   OH250107   5.285   2.414  11.706  0.5758  0.2339 -0.8661
 9539TIP3    H150108   5.218   2.347  11.699 -0.3833  1.1293 -0.4926
 9539TIP3    H250109   5.368   2.366  11.707 -0.0872 -0.9234 -0.5927
 9540TIP3   OH250110   3.903   1.032  14.036  0.1619  0.1819  0.1494
 9540TIP3    H150111   3.932   0.988  13.957 -0.0809  0.6973 -0.2329
 9540TIP3    H250112   3.902   0.964  14.103  1.4376 -0.0142 -0.0217
 9541TIP3   OH250113   0.428   6.671  12.001 -0.9853 -0.3550  0.3574
 9541TIP3    H150114   0.390   6.691  12.086  0.1529 -2.1350  1.3216
 9541TIP3    H250115   0.446   6.757  11.962 -1.3924  0.4799  1.9494
 9542TIP3   OH250116   6.441   2.806   4.441  0.9211  0.0804  0.5782
 9542TIP3    H150117   6.433   2.720   4.482 -0.7297  0.5248  1.3041
 9542TIP3    H250118   6.408   2.794   4.352  3.3798 -0.6186 -0.3195
 9543TIP3   OH250119   0.529   2.663  13.553  0.1188 -0.1811 -0.1108
 9543TIP3    H150120   0.565   2.734  13.499 -1.0691  1.1168  0.7156
 9543TIP3    H250121   0.485   2.605  13.490  0.0827  0.4689 -0.7028
 9544TIP3   OH250122   1.263   1.273  11.410  0.2439 -0.0402  0.5101
 9544TIP3    H150123   1.263   1.244  11.501  0.5566 -0.4292  0.3879
 9544TIP3    H250124   1.286   1.366  11.415 -0.6521  0.1719  0.8923
 9545TIP3   OH250125   3.320   4.930   1.346  0.3250  0.2561  0.0429
 9545TIP3    H150126   3.357   5.009   1.386 -0.6812  0.3354  0.8709
 9545TIP3    H250127   3.231   4.925   1.381  1.0655 -2.5011  1.8888
 9546TIP3   OH250128   2.405   1.755  12.440 -0.4734  0.2039  0.2291
 9546TIP3    H150129   2.312   1.756  12.419 -0.1351 -0.4028 -1.4021
 9546TIP3    H250130   2.424   1.664  12.463 -0.0336  0.0714 -0.6484
 9547TIP3   OH250131   5.129   3.825   5.427 -0.4846 -0.0530 -0.2376
 9547TIP3    H150132   5.127   3.920   5.418 -0.2563 -0.0696 -0.4779
 9547TIP3    H250133   5.190   3.796   5.358 -0.1376 -0.3289  0.1808
 9548TIP3   OH250134   3.321   6.449   1.990  0.1268  0.1348 -0.5465
 9548TIP3    H150135   3.389   6.440   2.057 -1.1799 -2.1621  0.6024
 9548TIP3    H250136   3.366   6.487   1.915  2.4183 -0.3295  0.5066
 9549TIP3   OH250137   1.643   0.143  14.032 -0.2109 -0.1712  0.1095
 9549TIP3    H150138   1.702   0.208  13.994  0.3516 -0.5103  0.3965
 9549TIP3    H250139   1.660   0.063  13.982 -1.5634  0.1180 -0.8697
 9550TIP3   OH250140   1.966   3.674   4.363 -0.1548  0.4622 -0.3755
 9550TIP3    H150141   2.061   3.676   4.376  0.4610 -0.3916 -3.8237
 9550TIP3    H250142   1.934   3.620   4.435  1.9584  0.6924  0.8448
 9551TIP3   OH250143   5.624   0.066   2.842  0.0490 -0.0331 -0.8110
 9551TIP3    H150144   5.566  -0.006   2.865 -0.5439  0.5216 -0.5266
 9551TIP3    H250145   5.605   0.085   2.750 -1.2148  1.0282 -0.3548
 9552TIP3   OH250146   3.602   4.762  12.371  0.0370 -0.7210 -0.4883
 9552TIP3    H150147   3.642   4.746  12.456 -0.6897 -1.2759 -0.2445
 9552TIP3    H250148   3.675   4.763  12.309  0.6137  0.1120  0.1888
 9553TIP3   OH250149   3.685   1.709   1.113  0.4650 -0.1165  0.2982
 9553TIP3    H150150   3.704   1.702   1.019 -3.0126 -2.2734 -0.4019
 9553TIP3    H250151   3.669   1.802   1.127 -0.6497  0.0498 -1.6842
 9554TIP3   OH250152   2.775   2.784  12.159 -0.1058 -0.9396 -1.0338
 9554TIP3    H150153   2.850   2.749  12.112 -1.3039 -1.6477 -2.5120
 9554TIP3    H250154   2.711   2.803  12.091 -0.7327  1.0722  0.0326
 9555TIP3   OH250155   3.867   4.156  14.708  0.0393 -0.8870 -0.0595
 9555TIP3    H150156   3.933   4.157  14.778 -0.0571 -0.4339  0.0255
 9555TIP3    H250157   3.894   4.084  14.651  0.6582 -0.6544 -0.0690
 9556TIP3   OH250158   4.519   5.658  11.578 -0.9317 -0.2178 -0.1375
 9556TIP3    H150159   4.571   5.582  11.551 -1.5858 -1.1355  1.0874
 9556TIP3    H250160   4.445   5.621  11.626 -1.3848  1.1886  0.3083
 9557TIP3   OH250161   6.269   2.349  12.994 -0.0732  0.2823 -0.2890
 9557TIP3    H150162   6.277   2.445  12.999  0.0099  0.4742 -2.8446
 9557TIP3    H250163   6.344   2.316  13.043  1.7384  1.6277 -2.0235
 9558TIP3   OH250164   0.933   1.519   2.099 -0.0610 -0.1138  0.0915
 9558TIP3    H150165   1.012   1.549   2.143  0.7338  0.8286 -1.8579
 9558TIP3    H250166   0.883   1.474   2.167  0.8227  1.7137  2.0596
 9559TIP3   OH250167   4.957   6.780   1.611 -0.0389  0.1194  0.5494
 9559TIP3    H150168   5.044   6.813   1.592  0.5663 -0.9970  1.2555
 9559TIP3    H250169   4.951   6.697   1.563 -1.2386  0.8249 -0.5958
 9560TIP3   OH250170   2.506   4.082  15.321  0.4246  0.1501 -0.1595
 9560TIP3    H150171   2.567   4.097  15.248  1.3714  1.7034  0.8909
 9560TIP3    H250172   2.485   3.989  15.316  3.7614 -0.7482  0.0390
 9561TIP3   OH250173   4.053   5.151  13.805  0.4291 -0.1622 -0.2483
 9561TIP3    H150174   4.080   5.070  13.849 -0.6641 -2.2262 -3.0658
 9561TIP3    H250175   3.962   5.164  13.832  0.8324  0.6097  0.7948
 9562TIP3   OH250176   1.145   4.651  15.640 -0.0393  0.1731  0.6367
 9562TIP3    H150177   1.075   4.705  15.679  0.3690 -0.5575  2.4992
 9562TIP3    H250178   1.135   4.664  15.546 -0.3441  3.0023  0.9616
 9563TIP3   OH250179   4.397   5.253   4.571  0.3800  0.0512  0.1206
 9563TIP3    H150180   4.453   5.195   4.622  2.6258  2.6521  0.8179
 9563TIP3    H250181   4.342   5.193   4.519  1.5838 -2.6467  1.7232
 9564TIP3   OH250182   1.250   0.445  12.419 -0.0282  0.3333  0.2009
 9564TIP3    H150183   1.208   0.441  12.505 -1.7352  2.0046 -0.4758
 9564TIP3    H250184   1.318   0.511  12.429 -1.4793  1.9625 -0.1449
 9565TIP3   OH250185   1.986   1.369  14.438  0.1278  0.1226  0.6284
 9565TIP3    H150186   2.029   1.352  14.354  0.2820 -0.0840  0.7481
 9565TIP3    H250187   1.946   1.455  14.427  0.0084  0.0267  0.2867
 9566TIP3   OH250188   2.441   4.657   3.235  0.1899 -0.6700  0.0067
 9566TIP3    H150189   2.453   4.599   3.311  0.9877 -0.3273  0.1503
 9566TIP3    H250190   2.347   4.658   3.221  0.1588 -2.2066 -0.1445
 9567TIP3   OH250191   3.578   0.815  12.305  0.1795  0.7910  0.1601
 9567TIP3    H150192   3.534   0.791  12.386  0.2413 -0.5755 -0.1961
 9567TIP3    H250193   3.570   0.911  12.302 -2.7015  0.6542  0.1443
 9568TIP3   OH250194   2.678   5.211  13.920 -0.1399 -0.0955  0.9184
 9568TIP3    H150195   2.654   5.298  13.953 -2.1134 -0.7950  1.4687
 9568TIP3    H250196   2.748   5.182  13.978 -1.3620  0.0310  2.5332
 9569TIP3   OH250197   1.863   1.471   0.522  0.3366  0.1144 -0.3623
 9569TIP3    H150198   1.835   1.397   0.575  1.0967 -0.6515 -0.9760
 9569TIP3    H250199   1.784   1.523   0.508  0.6207  2.2312  4.2432
 9570TIP3   OH250200   2.810   6.287   0.350 -0.0404  0.3652 -0.3550
 9570TIP3    H150201   2.864   6.329   0.417 -0.1642 -2.5990  1.7832
 9570TIP3    H250202   2.733   6.344   0.343  0.9305  1.8522  0.4494
 9571TIP3   OH250203   0.281   6.371   6.202 -0.4648 -0.1498  0.0565
 9571TIP3    H150204   0.302   6.341   6.291  0.9248 -1.0243 -0.5399
 9571TIP3    H250205   0.186   6.362   6.196 -0.6524  0.4100  1.6109
 9572TIP3   OH250206   5.674   4.566  12.616 -0.0190 -0.3719  0.3980
 9572TIP3    H150207   5.594   4.549  12.667 -0.4378  0.6815  0.1198
 9572TIP3    H250208   5.742   4.578  12.682  0.0737 -1.9718  0.6228
 9573TIP3   OH250209   6.151   1.674  15.257 -0.3129 -0.6934 -0.2050
 9573TIP3    H150210   6.116   1.587  15.279 -1.3289  0.0247  1.2130
 9573TIP3    H250211   6.241   1.673  15.290 -1.1116 -0.4026  2.1508
 9574TIP3   OH250212   3.779   2.657   4.599 -0.3299 -0.3607  0.6946
 9574TIP3    H150213   3.720   2.727   4.570  1.4843  1.7170  1.7286
 9574TIP3    H250214   3.779   2.595   4.526 -2.9566  0.0255  0.2420
 9575TIP3   OH250215   3.071   0.255  16.657 -0.8212  0.1191  0.1782
 9575TIP3    H150216   2.988   0.221  16.689 -0.4488  0.8915  2.1413
 9575TIP3    H250217   3.137   0.206  16.706 -0.1899  0.7701  0.0017
 9576TIP3   OH250218   1.678   3.367  12.361  0.1647  0.3482  0.1279
 9576TIP3    H150219   1.644   3.454  12.341  1.0618  0.7205  0.1529
 9576TIP3    H250220   1.718   3.337  12.279  0.8010  0.4223  0.3986
 9577TIP3   OH250221   4.792   3.111  10.446 -0.8319 -0.3280 -0.3183
 9577TIP3    H150222   4.789   3.181  10.510  0.3907  0.0205 -0.6047
 9577TIP3    H250223   4.728   3.137  10.379  0.4442  1.1659 -1.0298
 9578TIP3   OH250224   2.470   4.431   0.451  0.0770 -0.1932 -0.1330
 9578TIP3    H150225   2.559   4.466   0.446  0.8066 -1.9835 -0.7970
 9578TIP3    H250226   2.456   4.391   0.365 -1.2281 -0.2700  0.0969
 9579TIP3   OH250227   0.055   5.771   3.556 -0.0585 -0.4074  0.4293
 9579TIP3    H150228   0.040   5.805   3.468 -1.7432 -0.7380  0.5556
 9579TIP3    H250229   0.120   5.829   3.594  1.5797 -0.9576 -1.4202
 9580TIP3   OH250230   5.592   2.913  12.958  0.0679  0.3312 -0.0802
 9580TIP3    H150231   5.628   2.961  13.032 -0.1673  0.7272 -0.2174
 9580TIP3    H250232   5.499   2.900  12.980  0.3696 -1.0782  0.4770
 9581TIP3   OH250233   3.475   6.158   4.945  0.2184 -0.5376 -0.2659
 9581TIP3    H150234   3.523   6.150   5.027  1.7316 -0.3093 -1.0795
 9581TIP3    H250235   3.428   6.075   4.936  0.7993 -0.9457  0.3658
 9582TIP3   OH250236   5.695   1.062   1.320  0.3753 -0.4269  0.0964
 9582TIP3    H150237   5.625   1.112   1.279 -0.3620 -0.6827  1.0230
 9582TIP3    H250238   5.656   1.026   1.400  1.0084 -2.0774 -0.2890
 9583TIP3   OH250239   3.709   2.548   2.351  0.3546  0.0924  0.0617
 9583TIP3    H150240   3.704   2.459   2.385  0.7769  0.1989  0.4094
 9583TIP3    H250241   3.799   2.558   2.321  0.7480  0.9048  1.4330
 9584TIP3   OH250242   2.111   4.381   0.920  0.1718 -0.2926 -0.3036
 9584TIP3    H150243   2.085   4.290   0.932 -1.3921  0.1256 -0.2442
 9584TIP3    H250244   2.131   4.389   0.827  1.2205 -0.8877 -0.1470
 9585TIP3   OH250245   2.869   1.411   2.543  0.1542 -0.7175  0.5339
 9585TIP3    H150246   2.865   1.387   2.636 -2.5041  0.5298  0.8557
 9585TIP3    H250247   2.777   1.417   2.516  0.5985  3.3931 -0.9171
 9586TIP3   OH250248   0.649   0.861  11.373 -0.4996 -0.2988 -0.2755
 9586TIP3    H150249   0.669   0.926  11.306  1.6237 -1.0494 -0.4418
 9586TIP3    H250250   0.600   0.909  11.440 -0.5916  1.0157 -1.2576
 9587TIP3   OH250251   5.534   0.693   5.418 -0.1699 -0.2132  0.6478
 9587TIP3    H150252   5.607   0.647   5.457 -0.7843  0.4554  2.7212
 9587TIP3    H250253   5.544   0.784   5.447 -0.8579  0.2639 -0.5068
 9588TIP3   OH250254   3.944   0.250   4.807  0.4519 -0.6276  0.2155
 9588TIP3    H150255   4.002   0.188   4.763 -0.9102 -1.1404 -0.9407
 9588TIP3    H250256   3.878   0.196   4.850 -0.6461 -0.0390 -0.6553
 9589TIP3   OH250257   0.852   2.995   4.555 -0.1485 -0.1404 -0.2800
 9589TIP3    H150258   0.806   3.011   4.473 -3.7183  1.6433  1.8178
 9589TIP3    H250259   0.897   3.077   4.575  1.4699 -0.8577 -0.7865
 9590TIP3   OH250260   5.110   5.325   1.077  0.7854  0.1511 -0.2462
 9590TIP3    H150261   5.171   5.339   1.004  1.6671  1.5623  0.6956
 9590TIP3    H250262   5.160   5.273   1.140 -0.5608 -2.6084 -1.3027
 9591TIP3   OH250263   0.247   0.666   3.729  0.3864  0.2619  0.0425
 9591TIP3    H150264   0.211   0.726   3.794 -1.2596  0.3103 -0.8548
 9591TIP3    H250265   0.336   0.646   3.760  0.5661  2.2710  0.9317
 9592TIP3   OH250266   6.127   0.123  13.788 -0.1506  0.4185 -0.1315
 9592TIP3    H150267   6.060   0.152  13.850 -0.9018  3.2434 -2.1003
 9592TIP3    H250268   6.208   0.120  13.840 -1.1601  0.3208  1.5016
 9593TIP3   OH250269   3.779   5.071   1.061  0.4683  0.0241  0.7940
 9593TIP3    H150270   3.727   5.022   1.124  1.0347  0.1793  1.3962
 9593TIP3    H250271   3.827   5.135   1.114 -0.2666  1.2605  0.0297
 9594TIP3   OH250272   2.827   5.485   5.764 -0.0938 -0.3579  0.2111
 9594TIP3    H150273   2.911   5.450   5.735 -0.0302 -0.3283  0.3573
 9594TIP3    H250274   2.776   5.409   5.791  0.2487 -0.3010  1.0644
 9595TIP3   OH250275   1.631   6.214  14.894  0.0659 -0.2653 -0.2422
 9595TIP3    H150276   1.674   6.291  14.930 -0.6512  0.2900 -0.5376
 9595TIP3    H250277   1.537   6.234  14.901 -0.1222  0.0291 -2.6521
 9596TIP3   OH250278   6.555   2.796   0.185 -0.2645  0.6658  0.2316
 9596TIP3    H150279   6.555   2.890   0.168 -2.0176  0.4600 -1.2742
 9596TIP3    H250280   6.462   2.772   0.183  0.1557 -1.1078  0.5452
 9597TIP3   OH250281   3.563   4.389   4.627  0.5986 -0.6028  0.3364
 9597TIP3    H150282   3.618   4.407   4.704 -1.1785  0.9459  1.3338
 9597TIP3    H250283   3.598   4.446   4.558 -1.0168  2.2122  1.6342
 9598TIP3   OH250284   5.574   4.810   5.351 -0.0529  0.3054 -0.5767
 9598TIP3    H150285   5.634   4.830   5.422  1.3886 -0.7613 -1.4363
 9598TIP3    H250286   5.563   4.892   5.304 -0.0761  0.7392  0.1848
 9599TIP3   OH250287   3.292   3.092   1.021 -1.0553 -0.3256 -0.2311
 9599TIP3    H150288   3.331   3.014   0.981 -0.1679 -0.2889  0.5183
 9599TIP3    H250289   3.244   3.134   0.950 -0.9301 -1.1621 -0.8260
 9600TIP3   OH250290   2.246   6.173  13.385  0.1778  0.0719 -0.1144
 9600TIP3    H150291   2.336   6.141  13.379  0.9411  2.2684 -2.2995
 9600TIP3    H250292   2.192   6.097  13.363  1.5688 -0.9231 -0.2435
 9601TIP3   OH250293   5.460   4.662   2.807 -0.1947 -0.1593  0.0611
 9601TIP3    H150294   5.391   4.623   2.861 -0.2926  1.4059  1.1603
 9601TIP3    H250295   5.435   4.755   2.803  0.6456  0.0179 -1.4287
 9602TIP3   OH250296   5.684   0.564   0.846  0.2626  0.3076 -0.0102
 9602TIP3    H150297   5.625   0.632   0.881 -0.1476  0.8977 -1.7632
 9602TIP3    H250298   5.626   0.491   0.825  0.4911  0.0103  0.3768
 9603TIP3   OH250299   6.203   2.185  15.402 -0.6880  0.4868 -0.0268
 9603TIP3    H150300   6.227   2.252  15.466 -1.3206  1.9908 -1.2907
 9603TIP3    H250301   6.112   2.163  15.423 -0.3968 -0.2045  0.5553
 9604TIP3   OH250302   5.727   5.370  10.751  0.3636  0.0737  0.2317
 9604TIP3    H150303   5.736   5.370  10.846  1.4677  0.8831  0.1437
 9604TIP3    H250304   5.774   5.292  10.722 -1.7504 -1.3675  0.4546
 9605TIP3   OH250305   2.465   1.152   0.968 -0.1615  0.1994  0.6233
 9605TIP3    H150306   2.550   1.137   0.927 -0.5945 -0.7809  0.0530
 9605TIP3    H250307   2.408   1.179   0.896 -0.7607 -0.8699  0.6762
 9606TIP3   OH250308   2.345   4.162  12.868 -0.0632 -0.0478 -0.0270
 9606TIP3    H150309   2.307   4.099  12.929  0.2388 -2.7855 -2.4024
 9606TIP3    H250310   2.277   4.175  12.802  0.1803  1.5704  0.0016
 9607TIP3   OH250311   6.659   3.059   0.477  0.8611  0.3412 -0.1212
 9607TIP3    H150312   6.631   3.061   0.385 -2.8344  0.9654  0.8711
 9607TIP3    H250313   6.643   3.148   0.508  2.0115  0.1213  1.1856
 9608TIP3   OH250314   4.745   3.553  12.447 -0.0036  0.6445 -0.5010
 9608TIP3    H150315   4.785   3.610  12.513 -0.2255  0.0344  0.1800
 9608TIP3    H250316   4.756   3.464  12.483 -0.8684  0.3761 -0.8887
 9609TIP3   OH250317   2.675   0.427   0.721  0.3821  0.2414  0.4948
 9609TIP3    H150318   2.689   0.431   0.815  0.0452  1.5464  0.5068
 9609TIP3    H250319   2.756   0.460   0.682  0.6334 -0.5719  0.3082
 9610TIP3   OH250320   4.423   6.219   6.273  0.0439  0.3996  0.5954
 9610TIP3    H150321   4.343   6.269   6.288  0.4915  1.5599 -0.6897
 9610TIP3    H250322   4.473   6.230   6.354 -0.1169  1.5783  0.5564
 9611TIP3   OH250323   0.304   2.819  11.932  0.4319  0.1921 -0.9321
 9611TIP3    H150324   0.273   2.801  12.021 -2.2514 -0.7270 -1.9589
 9611TIP3    H250325   0.309   2.733  11.891  0.8017  0.6775 -1.9235
 9612TIP3   OH250326   4.663   1.676   3.528 -0.4524 -0.3771 -0.0593
 9612TIP3    H150327   4.660   1.585   3.498  0.9212 -0.8258  1.0975
 9612TIP3    H250328   4.754   1.701   3.518 -0.4665  0.2776  1.3435
 9613TIP3   OH250329   0.731   4.741  12.334 -0.2880  0.4764 -0.4150
 9613TIP3    H150330   0.792   4.683  12.289  0.1693 -0.5591  1.4742
 9613TIP3    H250331   0.659   4.685  12.362 -0.6863  1.1527 -0.0446
 9614TIP3   OH250332   5.014   5.203  15.367  0.1519  0.1129  1.0041
 9614TIP3    H150333   4.961   5.258  15.310  1.3600  0.4556  0.1610
 9614TIP3    H250334   4.971   5.207  15.452 -0.2813  1.6532  0.7409
 9615TIP3   OH250335   4.140   2.429  16.315 -0.2606 -0.7287 -0.8493
 9615TIP3    H150336   4.091   2.407  16.394  0.6914  0.7163  0.1929
 9615TIP3    H250337   4.091   2.501  16.275  0.7268  0.4386 -0.0268
 9616TIP3   OH250338   2.081   3.306   4.342 -0.2826 -0.6955  0.1187
 9616TIP3    H150339   2.112   3.217   4.326  0.7006 -0.5638  1.1943
 9616TIP3    H250340   1.987   3.296   4.358 -0.1487 -1.5652  0.4079
 9617TIP3   OH250341   0.835   2.233  12.433  0.4739  0.6340 -0.0230
 9617TIP3    H150342   0.922   2.264  12.459 -0.1263  1.9286  0.5520
 9617TIP3    H250343   0.842   2.138  12.432  1.3770  0.6517  1.8790
 9618TIP3   OH250344   5.119   2.808   6.145  0.6587 -0.0855  0.2317
 9618TIP3    H150345   5.205   2.799   6.186  1.6836 -1.5366 -2.0277
 9618TIP3    H250346   5.098   2.720   6.114 -1.5261  0.3082  0.4487
 9619TIP3   OH250347   6.042   5.013  16.416 -0.3746  0.0050 -0.6144
 9619TIP3    H150348   6.136   5.033  16.421 -0.6637  1.2455  0.5560
 9619TIP3    H250349   6.035   4.947  16.348  1.5600 -1.3151  0.3708
 9620TIP3   OH250350   5.081   6.732  14.758 -0.1349 -0.0830  0.5217
 9620TIP3    H150351   5.143   6.776  14.700 -0.9363  1.7563  1.0079
 9620TIP3    H250352   5.106   6.639  14.753  1.4389  0.3606 -0.7368
 9621TIP3   OH250353   6.017   2.365   6.955  0.8331  0.0928 -0.5356
 9621TIP3    H150354   6.003   2.333   6.866  0.0232 -0.4792 -0.2066
 9621TIP3    H250355   5.954   2.435   6.966 -0.8719 -1.4953  0.4261
 9622TIP3   OH250356   2.138   4.291   3.950 -0.6318  0.2752  0.5794
 9622TIP3    H150357   2.162   4.221   3.889 -1.1823 -2.1499  2.9583
 9622TIP3    H250358   2.222   4.322   3.983 -0.4085 -0.1775  0.4558
 9623TIP3   OH250359   1.823   4.571   4.255  0.3651  0.4774 -0.2054
 9623TIP3    H150360   1.887   4.500   4.247 -0.4253 -0.4826  1.4714
 9623TIP3    H250361   1.754   4.548   4.194 -0.2462 -0.6417  0.8691
 9624TIP3   OH250362   6.535   1.778  11.324 -0.3503  0.3520  0.3248
 9624TIP3    H150363   6.613   1.834  11.326  0.0965 -0.2794  1.3507
 9624TIP3    H250364   6.470   1.825  11.377 -0.5858  0.7374 -0.2901
 9625TIP3   OH250365   0.573   2.555   4.785  0.2495 -0.6415  0.3144
 9625TIP3    H150366   0.602   2.624   4.725 -3.1802  0.6542 -0.0899
 9625TIP3    H250367   0.549   2.482   4.729 -2.6044  0.4364 -0.0168
 9626TIP3   OH250368   0.344   1.454  11.774 -0.0961 -0.5120  0.0568
 9626TIP3    H150369   0.411   1.520  11.754  0.0634 -0.7640 -0.2430
 9626TIP3    H250370   0.332   1.461  11.869  0.0295 -0.1554  0.0499
 9627TIP3   OH250371   4.594   1.877   3.303  0.0572  0.3474  0.3729
 9627TIP3    H150372   4.642   1.942   3.355  1.8383 -0.0014 -0.7382
 9627TIP3    H250373   4.577   1.806   3.364  1.6515  0.1699  0.6449
 9628TIP3   OH250374   5.539   2.809  13.689 -0.6592  0.1604 -0.4033
 9628TIP3    H150375   5.448   2.784  13.675 -0.3267 -1.5037  0.2124
 9628TIP3    H250376   5.545   2.825  13.784 -0.6071  1.5882 -0.6329
 9629TIP3   OH250377   1.948   6.391   5.063  0.0064 -0.2084 -0.2529
 9629TIP3    H150378   2.034   6.388   5.105 -0.1128  0.7040  0.0517
 9629TIP3    H250379   1.887   6.418   5.131 -0.5867 -1.1430 -0.3895
 9630TIP3   OH250380   3.217   3.595   3.671 -0.2536  0.2501 -0.5998
 9630TIP3    H150381   3.291   3.579   3.729 -0.0452  0.4051 -0.8159
 9630TIP3    H250382   3.179   3.509   3.654 -0.6881  0.2674  0.2471
 9631TIP3   OH250383   1.785   2.956   3.049 -0.0599 -0.0342  0.2518
 9631TIP3    H150384   1.840   2.959   3.127  0.0148 -0.9979  0.2435
 9631TIP3    H250385   1.707   3.006   3.072  0.9492  1.6669  0.1450
 9632TIP3   OH250386   4.879   4.566   0.519 -0.3917 -0.1904  0.3345
 9632TIP3    H150387   4.824   4.624   0.572  0.9658  0.6462  0.8854
 9632TIP3    H250388   4.895   4.614   0.438 -0.6692 -0.5492  0.0587
 9633TIP3   OH250389   5.894   5.044  16.137  0.3118 -0.0321 -0.1516
 9633TIP3    H150390   5.935   5.005  16.059  0.3125 -0.2017 -0.0671
 9633TIP3    H250391   5.842   4.972  16.174 -0.4453  0.3091 -0.5203
 9634TIP3   OH250392   6.629   6.444  14.738  0.1563 -0.4493  0.2651
 9634TIP3    H150393   6.654   6.380  14.672  1.5660  0.5858 -0.2382
 9634TIP3    H250394   6.599   6.520  14.688  0.8618  0.2018  0.8055
 9635TIP3   OH250395   5.920   6.204  16.760 -0.7434 -0.7272 -0.4049
 9635TIP3    H150396   5.862   6.209  16.684 -0.6167 -1.0298 -0.5248
 9635TIP3    H250397   5.895   6.278  16.815 -0.6945 -0.3777 -0.8478
 9636TIP3   OH250398   3.264   3.600  10.995 -0.1672  0.2528  0.5777
 9636TIP3    H150399   3.346   3.572  10.954  0.1583  0.2992  1.1813
 9636TIP3    H250400   3.205   3.618  10.921  0.4384  0.4396  0.1286
 9637TIP3   OH250401   4.805   1.085   0.099  0.0598  0.0499 -0.8831
 9637TIP3    H150402   4.858   1.036   0.036  0.6763  0.8285 -0.9864
 9637TIP3    H250403   4.859   1.160   0.122  1.1341 -1.6580  2.8564
 9638TIP3   OH250404   5.734   2.143  12.296  0.2586 -0.2570  0.6389
 9638TIP3    H150405   5.659   2.092  12.266  0.3305  0.9686 -1.9113
 9638TIP3    H250406   5.696   2.212  12.350 -0.3001 -0.4580  0.5097
 9639TIP3   OH250407   6.085   0.026  16.083  0.7131  0.4800  0.2532
 9639TIP3    H150408   6.105  -0.033  16.010 -1.7877 -0.5477  0.2760
 9639TIP3    H250409   6.168   0.067  16.105  2.1382 -1.4484 -1.1867
 9640TIP3   OH250410   0.103   0.658  12.635  0.0082  0.2339 -0.1488
 9640TIP3    H150411   0.024   0.707  12.612  0.1118  0.2588 -0.4543
 9640TIP3    H250412   0.148   0.645  12.551 -0.6733 -1.5210 -0.2951
 9641TIP3   OH250413   6.802   0.387  12.273  0.0364 -0.1324 -0.3377
 9641TIP3    H150414   6.751   0.429  12.343 -1.3323  0.3496 -1.5654
 9641TIP3    H250415   6.865   0.455  12.246 -0.9664  0.5321 -1.0916
 9642TIP3   OH250416   1.467   0.662   1.781 -0.0500 -0.0048  0.1313
 9642TIP3    H150417   1.477   0.732   1.846  1.3642  0.1618 -0.2300
 9642TIP3    H250418   1.415   0.702   1.711 -1.7720 -0.2512  1.2069
 9643TIP3   OH250419   1.896   1.938   1.359  0.0994  0.0568 -0.6266
 9643TIP3    H150420   1.856   2.020   1.388  1.1780  0.9473 -1.5574
 9643TIP3    H250421   1.974   1.929   1.414  0.0853 -0.2571 -0.6537
 9644TIP3   OH250422   1.773   2.435   5.160  0.0402  0.1889 -0.6926
 9644TIP3    H150423   1.777   2.420   5.254 -0.5673 -0.6902 -0.8011
 9644TIP3    H250424   1.863   2.458   5.135  0.4480 -0.7397 -0.1006
 9645TIP3   OH250425   6.089   1.403   4.933  0.0997  0.2927  0.2155
 9645TIP3    H150426   6.051   1.458   5.001 -0.4521  0.4360 -0.1956
 9645TIP3    H250427   6.015   1.355   4.896  0.1312  1.2977 -1.2571
 9646TIP3   OH250428   6.050   4.250   2.105 -0.7245  0.2662  0.1707
 9646TIP3    H150429   6.046   4.158   2.130 -0.4235 -0.2953 -1.7267
 9646TIP3    H250430   6.059   4.297   2.188 -3.5475 -1.1909  1.4427
 9647TIP3   OH250431   6.810   2.665  15.209  0.1919  0.3644  0.5085
 9647TIP3    H150432   6.771   2.646  15.294  0.1920 -0.0414  0.4197
 9647TIP3    H250433   6.774   2.751  15.184 -0.6694 -0.0169  0.4134
 9648TIP3   OH250434   2.002   6.221   2.604  0.3653  0.3911 -0.2586
 9648TIP3    H150435   2.077   6.202   2.660 -0.4021  0.5665  0.8548
 9648TIP3    H250436   1.931   6.242   2.664 -0.5086  0.5268 -1.2962
 9649TIP3   OH250437   2.236   5.311   0.113 -0.1219  1.0232 -0.3552
 9649TIP3    H150438   2.173   5.365   0.064 -0.1700 -0.1970 -1.7136
 9649TIP3    H250439   2.274   5.371   0.177 -1.3681  2.2413 -0.6940
 9650TIP3   OH250440   6.814   3.179   2.281 -0.1098  0.2086 -0.5230
 9650TIP3    H150441   6.722   3.201   2.271 -0.2451 -0.3354 -0.5468
 9650TIP3    H250442   6.832   3.121   2.206 -0.0933 -0.7375  0.1994
 9651TIP3   OH250443   0.051   6.656  11.650  0.3882  0.1975 -0.1613
 9651TIP3    H150444   0.050   6.593  11.578  1.2544  0.0149 -0.0144
 9651TIP3    H250445   0.039   6.603  11.729  1.4518  0.1639 -0.0084
 9652TIP3   OH250446   0.794   4.287  12.758  0.3336  0.3657 -0.4241
 9652TIP3    H150447   0.820   4.370  12.719  0.5205  1.4852  1.9494
 9652TIP3    H250448   0.760   4.310  12.844 -0.2676 -1.9645  0.0364
 9653TIP3   OH250449   0.599   4.896   1.353  0.2651  0.6245  0.2577
 9653TIP3    H150450   0.557   4.918   1.436 -1.1612 -0.2351 -0.1817
 9653TIP3    H250451   0.642   4.812   1.369  0.0074  0.4688  0.1471
 9654TIP3   OH250452   1.520   3.472   3.342  0.5651 -0.2919 -0.6874
 9654TIP3    H150453   1.605   3.480   3.387  0.5899 -0.3310 -0.7272
 9654TIP3    H250454   1.536   3.508   3.255  0.4853 -0.1057 -0.6258
 9655TIP3   OH250455   1.963   0.648  16.571  0.1892  0.1486 -0.4884
 9655TIP3    H150456   1.968   0.700  16.491 -1.6986  1.0385 -0.0781
 9655TIP3    H250457   1.912   0.702  16.632 -0.9878 -1.7561  0.3002
 9656TIP3   OH250458   3.158   5.764  14.275  0.3135  0.0082  0.2818
 9656TIP3    H150459   3.200   5.831  14.329  0.0009 -0.7902  1.5502
 9656TIP3    H250460   3.168   5.797  14.185 -1.0866  2.4774  0.9338
 9657TIP3   OH250461   0.394   4.131   0.500 -0.2282 -0.0759 -0.4093
 9657TIP3    H150462   0.430   4.173   0.578 -0.2499 -1.2938  0.2765
 9657TIP3    H250463   0.468   4.128   0.439 -0.0844  0.4538 -0.2651
 9658TIP3   OH250464   3.641   6.257  13.106 -0.4658 -0.4492  0.1288
 9658TIP3    H150465   3.593   6.256  13.023  0.3659 -0.6317 -0.3533
 9658TIP3    H250466   3.665   6.348  13.119 -0.2650 -0.4810 -0.0215
 9659TIP3   OH250467   4.985   5.475   4.597  0.0583 -0.4562 -0.2794
 9659TIP3    H150468   5.072   5.515   4.589  0.0541 -0.1918  0.8300
 9659TIP3    H250469   4.938   5.532   4.658 -0.0588 -1.9384  1.0712
 9660TIP3   OH250470   0.385   3.425  12.610  0.0391  0.4828 -0.2286
 9660TIP3    H150471   0.377   3.487  12.682  0.9294  2.0629 -1.4240
 9660TIP3    H250472   0.385   3.339  12.652 -1.0485  1.2722  1.5002
 9661TIP3   OH250473   6.552   3.681  15.685 -0.1719 -0.7665 -0.0148
 9661TIP3    H150474   6.612   3.608  15.700 -1.6293 -1.8810  0.6275
 9661TIP3    H250475   6.506   3.657  15.604  0.1232  0.0206 -0.4320
 9662TIP3   OH250476   4.066   6.680   4.947 -0.2241  0.2810  0.1502
 9662TIP3    H150477   4.005   6.681   5.020  0.7023  1.8408  0.9755
 9662TIP3    H250478   4.142   6.632   4.980  0.1041  0.7897  0.1551
 9663TIP3   OH250479   5.971   0.479   1.342  0.3478 -0.2780  0.5235
 9663TIP3    H150480   5.981   0.420   1.417 -0.2204 -0.3061  0.5803
 9663TIP3    H250481   5.931   0.558   1.379 -0.7954 -0.6437  0.1042
 9664TIP3   OH250482   2.056   0.746   3.502 -0.2373  0.6746  0.0806
 9664TIP3    H150483   2.078   0.821   3.447  0.3816  0.1842 -0.3659
 9664TIP3    H250484   2.124   0.681   3.482 -2.7074 -1.4370 -2.3149
 9665TIP3   OH250485   5.973   3.282  15.713 -0.2759 -0.4186 -0.2882
 9665TIP3    H150486   5.987   3.191  15.737  1.3680 -0.5016 -1.4009
 9665TIP3    H250487   6.037   3.331  15.763 -2.6445  0.4943  2.0884
 9666TIP3   OH250488   1.898   2.542  11.022 -0.1573 -0.2533 -0.1100
 9666TIP3    H150489   1.915   2.636  11.033 -1.7178  0.2177 -1.2792
 9666TIP3    H250490   1.887   2.510  11.111 -2.6239  1.3492  0.2729
 9667TIP3   OH250491   4.438   4.757  16.446 -0.1814  0.1215 -0.2211
 9667TIP3    H150492   4.483   4.675  16.464  1.0741  1.0187  0.9235
 9667TIP3    H250493   4.348   4.742  16.475 -0.1413 -1.0478 -0.6590
 9668TIP3   OH250494   4.915   3.790  16.136  0.6015 -0.1190 -0.1331
 9668TIP3    H150495   4.950   3.875  16.164  0.8000  0.0642 -0.9022
 9668TIP3    H250496   4.920   3.793  16.041  3.3070 -2.0802 -0.1931
 9669TIP3   OH250497   4.193   0.149   1.672 -0.6202  0.1078 -0.2617
 9669TIP3    H150498   4.138   0.205   1.617  1.1442  2.5507  0.3285
 9669TIP3    H250499   4.149   0.150   1.757 -0.3136  1.0856 -0.1049
 9670TIP3   OH250500   0.768   2.015   2.816 -0.2321 -0.0793  0.0001
 9670TIP3    H150501   0.778   2.015   2.720  2.1460  1.8059  0.1355
 9670TIP3    H250502   0.843   1.964   2.847 -0.6238 -0.1256  0.8852
 9671TIP3   OH250503   2.226   3.956  15.119  0.1595  0.2414 -0.0899
 9671TIP3    H150504   2.305   3.905  15.136  0.1724  0.0903 -0.6095
 9671TIP3    H250505   2.229   4.027  15.184  1.2370  0.8137 -0.7382
 9672TIP3   OH250506   1.777   4.915   1.866 -0.0786 -0.0629 -0.0238
 9672TIP3    H150507   1.846   4.897   1.802 -1.6375  0.3213 -1.9105
 9672TIP3    H250508   1.821   4.964   1.935  1.4101  0.8576 -1.5390
 9673TIP3   OH250509   5.014   3.534   5.607  0.1519  0.4760  0.5761
 9673TIP3    H150510   4.972   3.477   5.542  1.2670 -0.7131  0.8634
 9673TIP3    H250511   5.098   3.557   5.568  1.4401 -1.3698  2.1035
 9674TIP3   OH250512   1.786   2.766  12.151  0.1291  0.2621  0.0774
 9674TIP3    H150513   1.737   2.783  12.071  0.3839  0.2394 -0.0858
 9674TIP3    H250514   1.811   2.674  12.146 -2.8401 -0.7835  1.8372
 9675TIP3   OH250515   1.546   5.981  14.083 -0.4234  0.1319  0.0224
 9675TIP3    H150516   1.531   6.013  13.994 -2.0750 -0.1787  0.1592
 9675TIP3    H250517   1.630   5.935  14.078 -0.8233 -0.5061 -1.5515
 9676TIP3   OH250518   4.298   2.123  11.603  0.4646  0.0248  0.0269
 9676TIP3    H150519   4.348   2.202  11.623  1.0508 -0.4566  0.5354
 9676TIP3    H250520   4.288   2.124  11.508 -0.1253  1.0499  0.0874
 9677TIP3   OH250521   4.850   5.754  11.349 -0.4325 -0.0317 -0.2265
 9677TIP3    H150522   4.940   5.782  11.330 -1.2605  1.6676 -2.0781
 9677TIP3    H250523   4.832   5.790  11.436  0.9823 -1.3445  0.6705
 9678TIP3   OH250524   6.009   5.154  11.757 -0.1065 -0.0085  0.0916
 9678TIP3    H150525   5.947   5.136  11.828 -0.1223  1.3504  0.4357
 9678TIP3    H250526   6.095   5.136  11.795 -0.0808  1.1814  0.6229
 9679TIP3   OH250527   6.239   1.268   3.612 -0.5837  0.2172  0.2167
 9679TIP3    H150528   6.314   1.238   3.561 -1.8586 -0.7747 -1.2010
 9679TIP3    H250529   6.195   1.188   3.639 -1.0355  0.7749  1.1748
 9680TIP3   OH250530   6.046   2.206  13.863 -0.3707  0.1377  0.6472
 9680TIP3    H150531   6.008   2.212  13.775  1.8259 -0.0201 -0.3712
 9680TIP3    H250532   6.009   2.125  13.898  0.3010 -0.9245 -0.9666
 9681TIP3   OH250533   2.886   0.701   2.939 -0.7793  0.6840  0.0351
 9681TIP3    H150534   2.981   0.718   2.942 -0.3549 -1.6140  1.8746
 9681TIP3    H250535   2.875   0.640   2.866 -0.3427 -1.3740  1.6106
 9682TIP3   OH250536   3.060   1.369   2.334  0.7512  0.3306  0.0187
 9682TIP3    H150537   3.009   1.366   2.415  1.7893  0.6443  0.7034
 9682TIP3    H250538   2.995   1.383   2.265 -0.4960 -2.7383  0.4306
 9683TIP3   OH250539   1.865   0.980  11.390  0.6517  0.5143 -0.0676
 9683TIP3    H150540   1.780   1.022  11.380  0.4930  0.0389 -0.7476
 9683TIP3    H250541   1.928   1.047  11.362  0.3557  0.0607 -1.9644
 9684TIP3   OH250542   0.305   1.522   0.363  0.0920 -0.1158  0.3836
 9684TIP3    H150543   0.227   1.562   0.403 -1.3611 -1.7915 -0.6454
 9684TIP3    H250544   0.349   1.478   0.436  0.5801  1.5323  1.1347
 9685TIP3   OH250545   4.222   0.784  15.035 -0.3528 -0.3872  0.1139
 9685TIP3    H150546   4.155   0.827  15.088 -1.0294  0.0416 -1.0539
 9685TIP3    H250547   4.219   0.693  15.063  0.9740  0.2120  2.4961
 9686TIP3   OH250548   3.421   6.263  13.856  0.6017  0.1143 -0.3944
 9686TIP3    H150549   3.487   6.199  13.830  0.7625  0.7692 -1.6769
 9686TIP3    H250550   3.367   6.217  13.920  1.5063 -0.8599 -0.3071
 9687TIP3   OH250551   6.078   4.364   2.344 -0.0254  0.0932 -0.0655
 9687TIP3    H150552   6.108   4.284   2.388  1.4785  0.8026  0.2911
 9687TIP3    H250553   6.062   4.426   2.415  0.3173  0.5753 -0.3987
 9688TIP3   OH250554   3.688   0.353  14.905 -0.7874  0.1288 -0.1986
 9688TIP3    H150555   3.645   0.363  14.990 -0.9794 -2.6386  0.1281
 9688TIP3    H250556   3.767   0.303  14.923  0.0533  0.9215 -1.4744
 9689TIP3   OH250557   3.201   5.251  14.869  0.5561 -0.8064  0.4732
 9689TIP3    H150558   3.269   5.194  14.833  1.4069 -1.2516  2.6391
 9689TIP3    H250559   3.248   5.312  14.926 -0.7568 -0.5209  1.2942
 9690TIP3   OH250560   2.827   2.092  14.246  0.2248  0.3676  0.0459
 9690TIP3    H150561   2.753   2.088  14.305  0.1854  2.6768  0.2407
 9690TIP3    H250562   2.796   2.142  14.171  1.6051  1.6594  0.2648
 9691TIP3   OH250563   6.637   3.462   4.419 -0.2957 -0.4247  0.1861
 9691TIP3    H150564   6.595   3.380   4.394 -0.3132 -0.2732 -0.2837
 9691TIP3    H250565   6.565   3.519   4.448 -0.3920 -0.2422 -0.4063
 9692TIP3   OH250566   6.176   3.205   4.674  0.1221  0.4371 -0.1280
 9692TIP3    H150567   6.229   3.145   4.621  0.5423 -0.3807  1.1557
 9692TIP3    H250568   6.113   3.242   4.612 -1.1770 -2.4885 -0.7673
 9693TIP3   OH250569   3.862   4.354   4.672  0.2323  0.4217  0.2185
 9693TIP3    H150570   3.913   4.411   4.730  1.9194 -0.3668 -0.4027
 9693TIP3    H250571   3.892   4.378   4.584 -0.8083  0.2152 -0.2015
 9694TIP3   OH250572   4.406   2.887   4.369 -0.4842 -0.2708 -0.1173
 9694TIP3    H150573   4.331   2.904   4.424  0.1680  1.0905  0.3839
 9694TIP3    H250574   4.369   2.871   4.282 -1.2805  2.8215 -0.4582
 9695TIP3   OH250575   4.730   4.514   1.988 -0.4925 -0.1361 -0.3474
 9695TIP3    H150576   4.770   4.569   2.056  0.5793 -1.3956  0.0843
 9695TIP3    H250577   4.660   4.468   2.033 -0.8972  0.2981 -0.5258
 9696TIP3   OH250578   2.262   4.089  13.399  0.4628 -0.2587 -0.3194
 9696TIP3    H150579   2.319   4.073  13.324 -0.6753 -1.5670 -0.9450
 9696TIP3    H250580   2.269   4.009  13.451 -0.8282 -0.4671 -0.4359
 9697TIP3   OH250581   6.627   2.562   1.086 -0.1857  0.4730 -0.1944
 9697TIP3    H150582   6.679   2.498   1.038 -1.9597  0.0938 -1.7207
 9697TIP3    H250583   6.581   2.611   1.018 -1.6407  0.9438  1.0724
 9698TIP3   OH250584   0.215   4.319   3.798 -0.2048 -0.4335 -0.2555
 9698TIP3    H150585   0.279   4.374   3.753 -0.1089  1.1761  1.6781
 9698TIP3    H250586   0.268   4.265   3.858 -0.4353 -1.4340 -0.9378
 9699TIP3   OH250587   5.817   6.459   3.137  0.2510 -0.1602  0.1293
 9699TIP3    H150588   5.772   6.540   3.162  1.8848  0.6727  0.5183
 9699TIP3    H250589   5.782   6.393   3.197 -1.3203  0.1643 -0.3851
 9700TIP3   OH250590   3.369   5.284  12.552 -0.3677  0.3132  0.7535
 9700TIP3    H150591   3.440   5.232  12.589 -0.4688  0.5973  1.3630
 9700TIP3    H250592   3.401   5.374  12.555  0.3174  0.2005 -1.4651
 9701TIP3   OH250593   3.513   0.646   3.503  1.0044 -0.2793  0.2962
 9701TIP3    H150594   3.581   0.672   3.565  1.8970 -0.7776 -0.4401
 9701TIP3    H250595   3.470   0.728   3.479  0.7692 -0.0586  1.4124
 9702TIP3   OH250596   5.841   4.855   1.979  0.4222  0.7259 -0.3897
 9702TIP3    H150597   5.924   4.901   1.969  0.1930  1.1389 -0.4197
 9702TIP3    H250598   5.864   4.762   1.974  1.0485  0.7932  0.7864
 9703TIP3   OH250599   4.143   3.262   5.063 -0.4565  0.1453 -0.2964
 9703TIP3    H150600   4.168   3.227   5.149  2.2604 -0.7602 -1.3360
 9703TIP3    H250601   4.139   3.184   5.007 -0.5342  0.8804 -1.3260
 9704TIP3   OH250602   2.014   2.071  16.703 -0.3854 -0.1191  0.1041
 9704TIP3    H150603   2.058   2.116  16.631  0.2889 -0.8788  0.0359
 9704TIP3    H250604   1.931   2.118  16.712 -0.4456  0.0491 -1.1123
 9705TIP3   OH250605   0.446   4.509  14.194  0.8400 -0.3314 -0.5605
 9705TIP3    H150606   0.483   4.439  14.249 -0.3699  0.3107  1.1464
 9705TIP3    H250607   0.501   4.586  14.214  0.4299 -0.1091 -0.2799
 9706TIP3   OH250608   3.894   1.770  11.589  0.5288  0.0186 -1.0582
 9706TIP3    H150609   3.923   1.680  11.573 -1.0802 -0.8213  0.4189
 9706TIP3    H250610   3.975   1.821  11.590  1.7130 -1.7752  0.2636
 9707TIP3   OH250611   1.214   0.020   3.340  0.5521 -0.1565  0.3290
 9707TIP3    H150612   1.159   0.057   3.410  2.3767  1.5490  0.9434
 9707TIP3    H250613   1.291  -0.014   3.386  1.5680  0.5627 -0.7888
 9708TIP3   OH250614   6.516   1.031  12.507 -0.4801 -0.2972 -0.0310
 9708TIP3    H150615   6.535   1.124  12.512 -1.3759 -0.1589  1.2785
 9708TIP3    H250616   6.542   1.005  12.418 -1.0443  1.3739 -0.7129
 9709TIP3   OH250617   5.099   6.026  13.803 -0.0446  0.1829 -0.1335
 9709TIP3    H150618   5.191   6.000  13.800 -0.6094 -1.9384 -2.7525
 9709TIP3    H250619   5.075   6.022  13.895  1.6969 -2.3538  0.2903
 9710TIP3   OH250620   2.175   2.372  14.565 -0.4032 -0.4462 -0.2092
 9710TIP3    H150621   2.108   2.306  14.582 -2.3523  1.0690 -1.5490
 9710TIP3    H250622   2.126   2.455  14.561  1.7562  0.9073  0.0663
 9711TIP3   OH250623   3.932   4.552  14.972 -0.4402 -0.2255  0.2248
 9711TIP3    H150624   3.939   4.544  15.067  0.7818  0.0615  0.1739
 9711TIP3    H250625   4.012   4.513  14.939  0.4221  2.0343 -0.5474
 9712TIP3   OH250626   5.492   4.115   4.143  0.1289 -1.1633  0.4456
 9712TIP3    H150627   5.523   4.183   4.083 -1.3215 -0.1712  0.7590
 9712TIP3    H250628   5.456   4.047   4.086 -1.8167  0.0556  0.1324
 9713TIP3   OH250629   1.306   6.619   1.596  0.3390 -1.1385  0.3918
 9713TIP3    H150630   1.378   6.567   1.562  1.9256  1.4958 -0.5622
 9713TIP3    H250631   1.329   6.634   1.688  1.0083 -0.3672  0.1096
 9714TIP3   OH250632   2.553   3.990   4.971 -0.4350 -0.1067  0.6663
 9714TIP3    H150633   2.565   3.931   4.896  2.5605  1.4067 -0.2140
 9714TIP3    H250634   2.627   4.050   4.966 -2.2213  2.4930  2.6928
 9715TIP3   OH250635   2.603   6.455   1.224  0.1051  0.0890 -0.4759
 9715TIP3    H150636   2.665   6.428   1.157  0.9294 -0.4416  0.4745
 9715TIP3    H250637   2.612   6.550   1.228 -0.0770  0.1427 -1.2291
 9716TIP3   OH250638   4.103   2.110  16.529  0.2769  0.0573  0.2774
 9716TIP3    H150639   4.011   2.086  16.540  0.4782  0.1397  2.5961
 9716TIP3    H250640   4.139   2.111  16.618  3.0015 -1.8136 -0.6544
 9717TIP3   OH250641   3.596   4.242  10.834  0.2261 -0.2131  0.4228
 9717TIP3    H150642   3.541   4.163  10.837  0.1278 -0.1986 -0.5840
 9717TIP3    H250643   3.536   4.314  10.853  0.1158 -0.3031  0.4162
 9718TIP3   OH250644   4.485   2.146   3.870 -0.3012  0.2136  0.0846
 9718TIP3    H150645   4.481   2.181   3.959 -1.0011  0.4778 -0.0490
 9718TIP3    H250646   4.534   2.064   3.879  0.9192  0.9560  0.4813
 9719TIP3   OH250647   3.360   5.793  15.462  0.0015  0.2122  0.0493
 9719TIP3    H150648   3.453   5.800  15.483 -0.3134  1.3342  1.1304
 9719TIP3    H250649   3.316   5.847  15.527 -1.3884  0.0050 -0.6817
 9720TIP3   OH250650   1.313   4.305  16.180  0.1213 -0.2594  0.2481
 9720TIP3    H150651   1.338   4.307  16.272  0.5432  0.2228  0.1258
 9720TIP3    H250652   1.308   4.397  16.154  2.6380 -0.3726 -0.9153
 9721TIP3   OH250653   3.558   4.651   3.371 -0.2116  0.6660  0.3058
 9721TIP3    H150654   3.643   4.693   3.382  0.3943  0.0170 -1.5929
 9721TIP3    H250655   3.515   4.663   3.456  1.2590  2.1019  0.9093
 9722TIP3   OH250656   3.163   0.839   0.590 -0.0610  0.6093 -0.2715
 9722TIP3    H150657   3.073   0.826   0.561 -0.4773 -0.7041  1.5056
 9722TIP3    H250658   3.166   0.930   0.619 -1.6005 -0.0303  2.1495
 9723TIP3   OH250659   4.026   6.715  12.354 -0.2740  0.1875  0.2035
 9723TIP3    H150660   3.937   6.692  12.381 -0.5017 -1.6394 -1.7851
 9723TIP3    H250661   4.018   6.731  12.260  1.7299 -1.6468 -0.3508
 9724TIP3   OH250662   2.731   5.110   5.456  0.2230  0.1918  0.3546
 9724TIP3    H150663   2.651   5.071   5.491 -0.0212  1.0395  0.7769
 9724TIP3    H250664   2.737   5.077   5.366 -0.1680 -0.5036  0.5742
 9725TIP3   OH250665   3.184   6.031  16.460 -0.2068 -0.1421  0.1775
 9725TIP3    H150666   3.271   6.061  16.488 -0.5825  0.6800  0.4658
 9725TIP3    H250667   3.171   5.950  16.509 -0.9317  1.3528  2.6071
 9726TIP3   OH250668   0.832   2.865   5.784 -0.3269 -0.0491  0.2523
 9726TIP3    H150669   0.772   2.826   5.848  0.5252 -1.0501  0.4550
 9726TIP3    H250670   0.887   2.924   5.836 -1.6979  1.6076 -0.0728
 9727TIP3   OH250671   0.677   3.148   4.345 -0.3299  0.3969 -0.5543
 9727TIP3    H150672   0.604   3.155   4.284  0.0722  1.0216 -0.9838
 9727TIP3    H250673   0.722   3.233   4.337  1.1782 -0.4257 -1.2539
 9728TIP3   OH250674   2.627   1.445   5.916 -0.1137  0.3247  0.0489
 9728TIP3    H150675   2.678   1.497   5.978 -0.2109 -0.9701  1.2904
 9728TIP3    H250676   2.693   1.398   5.864  0.0376 -1.1148  1.4495
 9729TIP3   OH250677   0.988   4.468  14.966 -0.4986  0.4638 -0.6292
 9729TIP3    H150678   1.025   4.396  14.914  1.4636  1.4288 -0.6768
 9729TIP3    H250679   0.942   4.522  14.902 -1.8611 -0.6273 -0.6179
 9730TIP3   OH250680   3.440   6.077  11.667 -0.2536 -0.2980  0.3227
 9730TIP3    H150681   3.508   6.015  11.693 -0.3610  0.0734  1.5429
 9730TIP3    H250682   3.416   6.121  11.748 -1.1973  0.3286 -0.2847
 9731TIP3   OH250683   2.340   4.213  15.116  0.6106  0.1808 -0.0756
 9731TIP3    H150684   2.299   4.140  15.070 -0.2263  0.4639  0.2110
 9731TIP3    H250685   2.406   4.246  15.055  1.4633 -1.2283  0.0507
 9732TIP3   OH250686   2.601   0.052   3.022 -0.2065  0.0401 -0.7053
 9732TIP3    H150687   2.678   0.038   3.078 -0.4479  0.7902 -0.1677
 9732TIP3    H250688   2.576  -0.036   2.993  0.4409 -0.2760 -0.3261
 9733TIP3   OH250689   0.576   0.756   2.478 -0.2543  0.1368  0.2963
 9733TIP3    H150690   0.617   0.831   2.522 -0.3805  0.9639 -0.9264
 9733TIP3    H250691   0.638   0.733   2.409 -0.6237 -0.3267  0.1179
 9734TIP3   OH250692   1.244   4.659  12.288 -0.5621  0.1260  0.2082
 9734TIP3    H150693   1.264   4.567  12.270 -0.4150  0.3802 -1.0450
 9734TIP3    H250694   1.329   4.703  12.289 -0.7536  0.6632 -1.8702
 9735TIP3   OH250695   5.459   5.690  13.367  0.6283  0.4873 -0.0030
 9735TIP3    H150696   5.381   5.746  13.374  0.1277 -0.2280  0.3402
 9735TIP3    H250697   5.523   5.732  13.424  0.5521  1.1723 -0.4094
 9736TIP3   OH250698   0.559   3.256   4.600  0.3329 -0.1161  0.4885
 9736TIP3    H150699   0.640   3.299   4.627  1.8529 -2.2508 -0.3905
 9736TIP3    H250700   0.582   3.212   4.518 -1.0069 -2.7239  1.4112
 9737TIP3   OH250701   1.253   5.416   4.787 -0.0418  0.0897 -0.2043
 9737TIP3    H150702   1.336   5.371   4.773 -0.9198 -1.8188  0.4419
 9737TIP3    H250703   1.236   5.461   4.704  0.1656 -2.0121 -1.4608
 9738TIP3   OH250704   3.666   3.541  14.297  0.6798  0.5556  0.0519
 9738TIP3    H150705   3.688   3.494  14.378  0.1249 -0.0547 -0.1416
 9738TIP3    H250706   3.725   3.617  14.297  1.7266 -0.2251  0.2851
 9739TIP3   OH250707   1.382   4.127   6.243 -0.0087 -0.0579 -0.1042
 9739TIP3    H150708   1.297   4.152   6.282  0.1726  0.8250 -0.2505
 9739TIP3    H250709   1.404   4.200   6.185 -0.0606 -1.1477 -1.5541
 9740TIP3   OH250710   1.947   0.358   2.341 -0.7043  0.2664  0.4289
 9740TIP3    H150711   1.885   0.343   2.412  1.1195  1.5006  2.3882
 9740TIP3    H250712   2.013   0.417   2.378  0.2807  1.0700 -2.3342
 9741TIP3   OH250713   0.490   3.686   4.966  0.1011 -0.4696 -0.2200
 9741TIP3    H150714   0.502   3.594   4.990  0.9001 -0.0619  1.0471
 9741TIP3    H250715   0.579   3.722   4.960 -0.2098  0.3335 -0.1981
 9742TIP3   OH250716   5.215   4.506   4.247  0.0970  0.5204  0.7822
 9742TIP3    H150717   5.307   4.509   4.273  0.6035 -0.8810 -0.6774
 9742TIP3    H250718   5.211   4.560   4.168 -0.6860  1.7987  1.6449
 9743TIP3   OH250719   1.345   3.370  13.042 -0.1954 -0.1947  0.3123
 9743TIP3    H150720   1.342   3.334  13.131  1.7255  0.7578  0.8230
 9743TIP3    H250721   1.333   3.465  13.054 -1.1394 -0.1722 -0.5994
 9744TIP3   OH250722   0.397   0.223  13.599  0.6723  0.2296  0.3060
 9744TIP3    H150723   0.305   0.198  13.584  0.8977 -0.6607  0.3359
 9744TIP3    H250724   0.415   0.193  13.688  1.1638 -0.1253  0.0871
 9745TIP3   OH250725   1.181   2.799  13.722  0.1892 -0.2208 -0.0202
 9745TIP3    H150726   1.144   2.716  13.693  1.5682 -0.3259 -1.6791
 9745TIP3    H250727   1.260   2.775  13.770  1.1308  0.0924 -1.3371
 9746TIP3   OH250728   4.130   3.774   2.529  0.0421 -0.4268 -0.2142
 9746TIP3    H150729   4.070   3.842   2.561 -0.5286 -1.1500  0.2702
 9746TIP3    H250730   4.083   3.732   2.458  0.8686  0.4428 -1.3143
 9747TIP3   OH250731   5.372   3.341  16.621 -0.5103  0.0930  0.4557
 9747TIP3    H150732   5.288   3.352  16.577  0.6180 -0.5721 -2.0595
 9747TIP3    H250733   5.393   3.427  16.657 -1.7983  0.4903  0.2858
 9748TIP3   OH250734   5.189   6.727   4.516  0.0605  0.6811 -0.5575
 9748TIP3    H150735   5.106   6.765   4.545 -0.0817 -0.4671  0.6895
 9748TIP3    H250736   5.168   6.679   4.437 -0.4121  0.6481 -0.4136
 9749TIP3   OH250737   2.230   5.633   3.113 -0.1169  0.3433 -0.0602
 9749TIP3    H150738   2.154   5.664   3.162  0.8142  1.5574  0.6746
 9749TIP3    H250739   2.286   5.593   3.179 -0.4178 -1.2291 -0.7120
 9750TIP3   OH250740   0.576   1.952   4.574 -0.3952 -0.0798 -0.4166
 9750TIP3    H150741   0.602   2.010   4.645  2.6153  0.6293 -1.9487
 9750TIP3    H250742   0.626   1.871   4.590  0.7053  0.2602 -1.8920
 9751TIP3   OH250743   0.197   2.197  16.852 -0.5687 -0.2572 -0.2825
 9751TIP3    H150744   0.161   2.281  16.822 -0.2658 -0.7187 -2.0143
 9751TIP3    H250745   0.276   2.220  16.901 -0.1220  0.4292 -1.3159
 9752TIP3   OH250746   1.597   2.462  17.261 -0.3096 -0.4623  0.2546
 9752TIP3    H150747   1.692   2.467  17.276 -0.2827 -0.5305  0.1048
 9752TIP3    H250748   1.571   2.380  17.302 -0.6142  0.4273  1.9708
 9753TIP3   OH250749   6.799   4.634  16.496 -0.3999 -0.2606  0.4259
 9753TIP3    H150750   6.734   4.584  16.545 -1.3266 -0.3875 -0.8777
 9753TIP3    H250751   6.752   4.664  16.418  1.2846 -0.9350 -0.9155
 9754TIP3   OH250752   5.002   2.853   2.205 -0.2940 -0.5410  0.8765
 9754TIP3    H150753   4.967   2.798   2.134 -2.0242 -0.3373  1.5251
 9754TIP3    H250754   4.928   2.909   2.230  1.2264  1.6846  0.6673
 9755TIP3   OH250755   0.882   3.353   1.381  0.4040 -0.6134 -0.6840
 9755TIP3    H150756   0.963   3.341   1.432  0.6983  3.3913  0.0668
 9755TIP3    H250757   0.913   3.371   1.292  0.3099  0.1376 -0.5672
 9756TIP3   OH250758   2.678   0.012   4.177 -0.0757 -0.0484  0.7697
 9756TIP3    H150759   2.665   0.105   4.193 -0.4726 -0.0301  0.3575
 9756TIP3    H250760   2.737   0.008   4.102  1.1213 -0.1377  1.6675
 9757TIP3   OH250761   3.930   1.155   0.852 -0.0859 -0.6083 -0.2292
 9757TIP3    H150762   4.009   1.174   0.801  0.2305 -1.5707 -0.1220
 9757TIP3    H250763   3.891   1.080   0.808  0.0731 -1.3212  0.8081
 9758TIP3   OH250764   4.846   6.453  12.547  0.0872 -0.4673  0.2712
 9758TIP3    H150765   4.765   6.504  12.535 -0.2891 -1.1573 -0.1755
 9758TIP3    H250766   4.866   6.463  12.640 -1.8717 -2.2319  0.9821
 9759TIP3   OH250767   5.309   4.473   4.564  0.3662  0.0566 -0.6245
 9759TIP3    H150768   5.377   4.428   4.614 -0.0418 -1.9460 -1.7443
 9759TIP3    H250769   5.231   4.467   4.618  0.4663  0.0237 -0.4831
 9760TIP3   OH250770   6.103   2.807   1.256  0.5032 -0.2190  0.2985
 9760TIP3    H150771   6.173   2.866   1.230  1.4935 -1.5168 -0.0933
 9760TIP3    H250772   6.148   2.731   1.294 -0.6458 -1.2946 -0.3988
 9761TIP3   OH250773   6.567   3.537   5.187 -0.4262 -0.0003  0.5174
 9761TIP3    H150774   6.528   3.489   5.260 -1.6189  1.7074  1.0572
 9761TIP3    H250775   6.641   3.482   5.160 -1.9478 -2.3238  0.7878
 9762TIP3   OH250776   3.385   1.202  11.679  1.0786  0.1140  0.0574
 9762TIP3    H150777   3.311   1.180  11.622 -0.5178  1.0360  1.6748
 9762TIP3    H250778   3.461   1.203  11.620 -0.0680 -1.4223 -1.5589
 9763TIP3   OH250779   4.001   3.460  13.860  0.6405  0.3440  0.2893
 9763TIP3    H150780   3.993   3.492  13.950 -0.5692 -1.7757  1.0204
 9763TIP3    H250781   4.082   3.409  13.860 -0.4885 -1.5550  0.8953
 9764TIP3   OH250782   3.187   0.379   5.163  0.2335 -0.0519  0.0342
 9764TIP3    H150783   3.218   0.459   5.120 -1.0964  1.7760  2.2334
 9764TIP3    H250784   3.112   0.350   5.110 -0.1124  0.9545 -0.0472
 9765TIP3   OH250785   1.218   0.609   5.676  0.3480 -0.0345  0.3898
 9765TIP3    H150786   1.297   0.605   5.730 -0.5781 -1.0293  1.7446
 9765TIP3    H250787   1.173   0.689   5.704  0.2396 -0.1480  0.5378
 9766TIP3   OH250788   1.412   2.454  11.226  0.1908 -0.2591  0.0243
 9766TIP3    H150789   1.319   2.443  11.208  0.0533  1.1587 -0.2089
 9766TIP3    H250790   1.450   2.481  11.143  0.6906 -0.1370  0.2843
 9767TIP3   OH250791   4.386   2.615   4.785  0.6540 -0.2841 -0.6583
 9767TIP3    H150792   4.460   2.670   4.761  2.3755 -0.4058  3.4992
 9767TIP3    H250793   4.319   2.677   4.815  1.2489 -0.2791  0.7263
 9768TIP3   OH250794   5.449   3.209   0.228 -0.2260  0.0203 -0.3009
 9768TIP3    H150795   5.390   3.148   0.271 -0.8766  1.8172  1.5627
 9768TIP3    H250796   5.397   3.288   0.215  1.5198  1.4458  0.8111
 9769TIP3   OH250797   1.968   0.655   0.513  0.2978  0.5146 -0.4646
 9769TIP3    H150798   1.929   0.696   0.435  1.2580  0.7246 -0.8477
 9769TIP3    H250799   2.045   0.608   0.479 -1.3478 -2.6007 -0.2540
 9770TIP3   OH250800   5.399   1.612  14.458 -0.2013 -0.0606 -0.3767
 9770TIP3    H150801   5.453   1.536  14.437 -0.8161 -1.1980  1.8289
 9770TIP3    H250802   5.314   1.593  14.419  0.5741  1.1846 -2.8323
 9771TIP3   OH250803   2.722   0.495  15.568  0.2249  0.5246 -0.2743
 9771TIP3    H150804   2.678   0.410  15.568  2.2956 -0.6373 -0.1904
 9771TIP3    H250805   2.718   0.525  15.659  1.4380 -0.6413  0.2063
 9772TIP3   OH250806   0.873   6.646   2.813 -0.1746  0.1619  0.0539
 9772TIP3    H150807   0.968   6.641   2.820 -0.2662 -0.8445  0.7817
 9772TIP3    H250808   0.857   6.712   2.745  0.9710  2.6123  2.0377
 9773TIP3   OH250809   2.171   2.469   2.130 -0.2220 -0.0099  0.4518
 9773TIP3    H150810   2.105   2.534   2.104  0.3085  0.4711  0.2728
 9773TIP3    H250811   2.253   2.519   2.133 -0.0756 -0.2924  1.9913
 9774TIP3   OH250812   1.891   5.349  15.167  0.8279  0.0968 -0.4263
 9774TIP3    H150813   1.848   5.302  15.239 -0.6465  0.9169 -0.7168
 9774TIP3    H250814   1.837   5.330  15.091  1.6745  0.2150 -1.0679
 9775TIP3   OH250815   5.336   2.932   0.025  0.5030  0.0849 -0.4040
 9775TIP3    H150816   5.373   3.002  -0.028  0.8535  1.2219  1.2800
 9775TIP3    H250817   5.292   2.976   0.097  0.1826 -1.4094  0.3567
 9776TIP3   OH250818   3.092   6.478  15.387 -0.7044 -0.0637 -0.5288
 9776TIP3    H150819   3.103   6.560  15.436 -3.4026  0.3935 -0.5163
 9776TIP3    H250820   3.061   6.415  15.452 -1.0769 -0.3912 -1.0150
 9777TIP3   OH250821   4.565   4.649   3.606  0.8168 -0.3026  0.1910
 9777TIP3    H150822   4.652   4.687   3.615 -0.5560  2.8298  1.6574
 9777TIP3    H250823   4.527   4.653   3.694 -1.2098 -0.4635 -0.6055
 9778TIP3   OH250824   4.242   1.256  10.575  0.0908 -0.3493  0.0640
 9778TIP3    H150825   4.306   1.201  10.620  0.1779  0.2192  0.6434
 9778TIP3    H250826   4.178   1.194  10.540 -0.5776 -0.7425  1.9121
 9779TIP3   OH250827   2.228   3.065   5.612  0.5389 -0.1090  0.1611
 9779TIP3    H150828   2.287   3.011   5.558  2.0036  2.3434 -0.8467
 9779TIP3    H250829   2.157   3.089   5.552  0.4955  0.0297  0.2696
 9780TIP3   OH250830   0.085   2.219   1.226 -1.0527  0.6878  0.5437
 9780TIP3    H150831   0.054   2.278   1.158 -1.6568 -2.6805 -2.3626
 9780TIP3    H250832   0.005   2.189   1.270 -0.7498  1.8834  2.0115
 9781TIP3   OH250833   5.104   6.325   2.009 -0.3036 -0.2596 -0.2762
 9781TIP3    H150834   5.024   6.297   2.053  0.7766 -2.7573  0.2581
 9781TIP3    H250835   5.109   6.419   2.026 -1.2817 -0.6600  2.7585
 9782TIP3   OH250836   2.620   6.372   6.840  0.2845  0.1816  0.6245
 9782TIP3    H150837   2.612   6.406   6.930 -1.6605 -0.4737  0.7612
 9782TIP3    H250838   2.588   6.281   6.847  0.0266  0.1558 -0.7384
 9783TIP3   OH250839   3.930   0.624  11.749 -0.0950 -0.0132  0.4717
 9783TIP3    H150840   3.939   0.551  11.688 -1.1580  0.6816 -0.5615
 9783TIP3    H250841   3.900   0.583  11.830  1.3887 -0.9510  0.5843
 9784TIP3   OH250842   3.920   6.554  16.936  0.0396  0.2247 -0.0714
 9784TIP3    H150843   3.970   6.504  17.000 -0.6484 -0.4258 -0.0177
 9784TIP3    H250844   3.837   6.507  16.929 -0.4279  1.0735 -0.4155
 9785TIP3   OH250845   1.785   4.292   2.079 -0.5771 -0.1541 -0.0998
 9785TIP3    H150846   1.836   4.213   2.095  1.7630  1.0061 -1.3235
 9785TIP3    H250847   1.698   4.259   2.056 -0.1697 -2.2708  1.0925
 9786TIP3   OH250848   6.788   3.725  16.592 -0.3659  0.0083 -0.3143
 9786TIP3    H150849   6.878   3.746  16.565 -1.0084  1.7546 -1.2557
 9786TIP3    H250850   6.788   3.740  16.686 -0.2174  2.3964 -0.6230
 9787TIP3   OH250851   5.901   0.731  12.247 -0.2665 -1.0173 -0.4390
 9787TIP3    H150852   5.905   0.659  12.185 -2.4887 -3.3220  1.8797
 9787TIP3    H250853   5.808   0.754  12.252  0.0778  0.2679  0.7541
 9788TIP3   OH250854   5.665   6.347   4.500  0.0540 -0.1052  0.5459
 9788TIP3    H150855   5.664   6.355   4.595  0.9772 -0.4217  0.5927
 9788TIP3    H250856   5.709   6.264   4.483 -1.9089 -1.0812 -0.1318
 9789TIP3   OH250857   4.906   3.928   0.129 -0.2275  0.0760  0.7630
 9789TIP3    H150858   4.945   4.009   0.097  0.6184 -0.4265  0.4935
 9789TIP3    H250859   4.875   3.884   0.050  2.1803 -1.3356  0.4954
 9790TIP3   OH250860   0.632   6.564   1.692 -0.0245 -0.3785  0.5428
 9790TIP3    H150861   0.707   6.560   1.632  0.1727  0.3593  0.7241
 9790TIP3    H250862   0.596   6.652   1.679 -2.1275 -1.3934 -1.0334
 9791TIP3   OH250863   0.612   2.210   4.170  0.7872  0.2781 -0.1469
 9791TIP3    H150864   0.523   2.245   4.169  1.0335  1.0186  1.3312
 9791TIP3    H250865   0.602   2.120   4.202  0.3535 -0.4588 -2.2024
 9792TIP3   OH250866   6.533   4.512   5.722 -0.4711  0.3095  0.0080
 9792TIP3    H150867   6.570   4.424   5.715 -2.6094 -0.6445 -0.0329
 9792TIP3    H250868   6.487   4.525   5.640  1.2641  2.2546 -0.7571
 9793TIP3   OH250869   3.090   4.948   3.047  0.3362  0.1742 -0.4392
 9793TIP3    H150870   3.020   5.003   3.012  0.2473  0.2017 -0.2163
 9793TIP3    H250871   3.045   4.872   3.085  0.2795  1.0888  1.4003
 9794TIP3   OH250872   6.365   5.775   0.667 -0.1072 -0.3835 -0.1637
 9794TIP3    H150873   6.418   5.817   0.735  1.1800 -0.6734 -0.9566
 9794TIP3    H250874   6.422   5.773   0.590 -2.0281  1.2594 -1.7226
 9795TIP3   OH250875   3.984   1.111   3.090  0.4089  0.7407  0.1621
 9795TIP3    H150876   3.896   1.135   3.119 -0.0107  0.4869 -0.8579
 9795TIP3    H250877   4.012   1.044   3.152  0.2264  1.4147  0.9897
 9796TIP3   OH250878   6.504   1.989  15.654  0.5186  0.6895 -0.1636
 9796TIP3    H150879   6.582   1.962  15.606  0.1141  2.1526 -1.7398
 9796TIP3    H250880   6.497   2.083  15.638 -0.3487  1.0123  1.8012
 9797TIP3   OH250881   3.136   3.149  16.699 -0.2195 -0.0508  0.0286
 9797TIP3    H150882   3.068   3.169  16.764 -1.4505  1.2321 -1.5823
 9797TIP3    H250883   3.151   3.055  16.708 -1.8257 -0.2597  0.7942
 9798TIP3   OH250884   2.559   1.001   4.649 -0.1309 -0.1896  0.0343
 9798TIP3    H150885   2.600   1.043   4.724 -0.0263  0.9527 -0.6365
 9798TIP3    H250886   2.468   0.986   4.677  0.2609 -1.0865  0.8784
 9799TIP3   OH250887   4.078   4.524  12.212 -0.5108  0.6269 -0.0377
 9799TIP3    H150888   3.987   4.515  12.184 -0.0416 -0.8011 -1.2455
 9799TIP3    H250889   4.123   4.448  12.173  1.4672  2.0088 -0.6019
 9800TIP3   OH250890   4.805   4.550   3.230 -0.5927 -0.2406  0.3369
 9800TIP3    H150891   4.800   4.505   3.146 -2.0820  0.0115  0.2621
 9800TIP3    H250892   4.747   4.501   3.288  1.5881 -1.3311  1.7090
 9801TIP3   OH250893   3.194   6.759   2.349 -0.3660  0.1958  0.0712
 9801TIP3    H150894   3.193   6.805   2.265 -0.3692 -0.5248 -0.3243
 9801TIP3    H250895   3.206   6.667   2.326  0.0945  0.0466  0.8810
 9802TIP3   OH250896   6.791   3.620   4.039 -0.2787  0.0404  0.3525
 9802TIP3    H150897   6.814   3.681   3.969  1.6481 -1.1937 -0.1658
 9802TIP3    H250898   6.873   3.577   4.062 -1.2693 -1.1809  1.8561
 9803TIP3   OH250899   1.458   3.128   5.813 -0.1288  0.2856  0.2378
 9803TIP3    H150900   1.367   3.132   5.785 -0.8212 -1.1367  2.0557
 9803TIP3    H250901   1.462   3.188   5.888  0.5597  0.6618 -0.0878
 9804TIP3   OH250902   4.218   0.137   6.148 -0.0580  0.3358  0.5847
 9804TIP3    H150903   4.303   0.147   6.191  0.8244  1.0771 -1.2383
 9804TIP3    H250904   4.184   0.226   6.138  1.0344  0.5196 -2.5820
 9805TIP3   OH250905   4.516   5.823  10.673 -0.0196  0.0140 -0.8907
 9805TIP3    H150906   4.447   5.756  10.668  0.7812 -0.8847 -0.3547
 9805TIP3    H250907   4.482   5.887  10.735 -0.2180 -0.6276 -0.3181
 9806TIP3   OH250908   0.673   4.022   5.209  0.1988  0.9199  0.1263
 9806TIP3    H150909   0.647   4.073   5.132  1.1435  1.1209 -0.0697
 9806TIP3    H250910   0.738   3.960   5.176 -0.1176  0.3359  0.5800
 9807TIP3   OH250911   1.292   4.773  15.855 -0.1974  0.1092  0.1890
 9807TIP3    H150912   1.374   4.725  15.854  0.9843  1.9844  1.5086
 9807TIP3    H250913   1.245   4.743  15.777  2.0213 -0.5218 -0.9620
 9808TIP3   OH250914   4.121   5.856   4.025 -0.2027 -0.4547 -0.1415
 9808TIP3    H150915   4.032   5.890   4.020  0.3703  0.9988 -1.1890
 9808TIP3    H250916   4.171   5.926   4.068  0.5169 -1.0760  0.0588
 9809TIP3   OH250917   6.342   4.161  16.873  0.0011  0.2030 -0.6647
 9809TIP3    H150918   6.294   4.206  16.804 -0.1281  1.7685  0.3893
 9809TIP3    H250919   6.432   4.155  16.840 -0.5672 -1.4881 -2.0526
 9810TIP3   OH250920   4.726   3.946   4.167  0.1263  0.3646  0.0566
 9810TIP3    H150921   4.806   3.895   4.179  1.2552  2.4011  1.8011
 9810TIP3    H250922   4.734   3.984   4.079 -0.9394 -2.5820 -1.4719
 9811TIP3   OH250923   2.536   4.280  14.552 -0.5428 -0.4834 -0.2633
 9811TIP3    H150924   2.455   4.302  14.598 -0.4317  0.5240 -0.5156
 9811TIP3    H250925   2.527   4.323  14.467  0.5229  0.1936 -0.0516
 9812TIP3   OH250926   1.319   4.229  12.982 -0.0809 -0.4602 -0.9403
 9812TIP3    H150927   1.335   4.315  13.021  1.0818 -1.2206  0.3509
 9812TIP3    H250928   1.336   4.242  12.888 -0.2900  0.7934 -0.8176
 9813TIP3   OH250929   5.673   6.333   1.289  0.2727 -0.1462  0.6162
 9813TIP3    H150930   5.696   6.348   1.198  0.5687  0.7269  0.8197
 9813TIP3    H250931   5.713   6.406   1.336  0.8940 -1.0653  1.5632
 9814TIP3   OH250932   2.134   6.390  16.032  0.3228 -0.3567  0.5165
 9814TIP3    H150933   2.218   6.405  16.076  0.7083  0.5566 -0.4668
 9814TIP3    H250934   2.153   6.405  15.939 -1.0312  0.2955  0.3177
 9815TIP3   OH250935   1.629   0.169   4.016 -0.1767  0.4569 -0.4702
 9815TIP3    H150936   1.697   0.115   4.055  1.1275  1.1415 -1.7121
 9815TIP3    H250937   1.598   0.118   3.941 -0.8375  0.2833 -0.0889
 9816TIP3   OH250938   5.209   3.724   5.052  0.1866  0.2949 -0.5240
 9816TIP3    H150939   5.297   3.707   5.086 -0.5358  0.3114  1.4570
 9816TIP3    H250940   5.218   3.712   4.958  1.8529 -1.7555 -0.1807
 9817TIP3   OH250941   0.895   5.989  13.637 -0.1938 -0.5206  0.0270
 9817TIP3    H150942   0.886   5.998  13.731 -0.2370 -1.1146  0.0856
 9817TIP3    H250943   0.813   5.948  13.609 -1.1804  1.7179 -0.5864
 9818TIP3   OH250944   4.609   5.728  11.199  0.0762  0.6625  0.2753
 9818TIP3    H150945   4.696   5.744  11.235 -0.3677  0.5312  1.4532
 9818TIP3    H250946   4.620   5.650  11.144  0.5067  0.0364  1.2119
 9819TIP3   OH250947   1.010   6.787  16.092  0.2218  0.1515  0.4016
 9819TIP3    H150948   0.969   6.732  16.026 -1.9150  1.1270  0.8228
 9819TIP3    H250949   1.076   6.838  16.045 -0.8283  0.3766 -0.8733
 9820TIP3   OH250950   5.042   4.670   3.223  0.5153 -0.0245 -0.4253
 9820TIP3    H150951   4.961   4.619   3.227  0.3648  0.1009 -1.7093
 9820TIP3    H250952   5.028   4.733   3.153  1.3823  0.6083 -0.0489
 9821TIP3   OH250953   1.047   2.425  12.694  0.6637 -0.5782  0.2473
 9821TIP3    H150954   1.024   2.458  12.607  2.4324  1.2592  0.4189
 9821TIP3    H250955   1.142   2.418  12.693  0.5946 -2.3590  1.4632
 9822TIP3   OH250956   6.381   3.919   5.644 -0.2595  0.8862  0.1678
 9822TIP3    H150957   6.420   3.902   5.730  0.5022 -1.2455 -0.5356
 9822TIP3    H250958   6.287   3.905   5.657 -0.0863  0.0171  0.5475
 9823TIP3   OH250959   3.986   4.765   0.776 -0.1518  0.5141 -0.2486
 9823TIP3    H150960   4.071   4.791   0.739  0.9086 -1.4356  0.6402
 9823TIP3    H250961   3.965   4.682   0.732 -0.1473 -0.4895  1.5304
 9824TIP3   OH250962   1.121   0.602  11.865 -0.0455 -0.3609  0.0851
 9824TIP3    H150963   1.155   0.557  11.943 -0.8553  0.3557  0.8712
 9824TIP3    H250964   1.057   0.541  11.828  0.3927 -0.7336 -0.0685
 9825TIP3   OH250965   1.287   1.957   0.570 -0.1505  0.6571  0.7400
 9825TIP3    H150966   1.293   1.913   0.654  3.1163  0.8399  0.7397
 9825TIP3    H250967   1.346   1.908   0.513 -1.4739  1.1729 -1.1653
 9826TIP3   OH250968   4.869   5.520   4.358  0.3275  0.2878  0.2267
 9826TIP3    H150969   4.775   5.517   4.373  0.2393 -1.5971 -0.4601
 9826TIP3    H250970   4.908   5.496   4.442  0.1074 -0.9969 -0.0171
 9827TIP3   OH250971   2.160   1.165   2.854  0.0367  0.3246  0.0279
 9827TIP3    H150972   2.241   1.205   2.821 -0.7731  1.6830 -0.3835
 9827TIP3    H250973   2.113   1.138   2.775  0.4022 -1.1524  0.2893
 9828TIP3   OH250974   5.311   2.992   4.227 -0.8186  1.0357  0.2124
 9828TIP3    H150975   5.341   2.902   4.217  0.7540  1.5853 -0.3677
 9828TIP3    H250976   5.215   2.987   4.224 -0.7304 -0.4749 -0.9752
 9829TIP3   OH250977   3.403   6.677   6.508  0.2386 -0.2612 -0.0551
 9829TIP3    H150978   3.459   6.612   6.466 -0.6028  0.4641 -2.4147
 9829TIP3    H250979   3.439   6.762   6.481  0.2378  0.2823  1.5197
 9830TIP3   OH250980   3.884   5.181  11.912  0.2687 -0.2288  0.1818
 9830TIP3    H150981   3.870   5.151  11.822  0.9194  1.2562 -0.4456
 9830TIP3    H250982   3.807   5.235  11.931  1.5424  2.0429 -0.6781
 9831TIP3   OH250983   4.668   3.938   5.110 -0.3890  1.1613  0.0253
 9831TIP3    H150984   4.747   3.950   5.162  0.3880  1.2955 -1.1606
 9831TIP3    H250985   4.656   3.843   5.106  1.9863  0.8360 -3.0084
 9832TIP3   OH250986   5.790   1.781  16.179  0.5481 -0.4511  0.0660
 9832TIP3    H150987   5.825   1.858  16.134 -0.1479 -1.0555 -1.5649
 9832TIP3    H250988   5.718   1.815  16.232  1.8667  0.3888  1.4187
 9833TIP3   OH250989   5.308   5.229  12.730 -0.0151 -0.8688 -0.0571
 9833TIP3    H150990   5.247   5.218  12.803 -1.2822  2.2918 -0.4533
 9833TIP3    H250991   5.252   5.236  12.653  1.0799 -1.1002 -0.8925
 9834TIP3   OH250992   0.173   2.009   4.905 -0.2236 -0.3947  0.1241
 9834TIP3    H150993   0.189   2.103   4.911  0.0910 -0.3409 -1.2213
 9834TIP3    H250994   0.078   2.000   4.914 -0.1694 -0.0330  1.0955
 9835TIP3   OH250995   5.158   3.394   1.032  0.2133 -0.0974  0.0412
 9835TIP3    H150996   5.103   3.411   0.956  0.3604  0.1105 -0.0186
 9835TIP3    H250997   5.108   3.331   1.084 -0.3498  0.5293  0.2764
 9836TIP3   OH250998   5.559   0.583   2.088 -0.1817  0.2777  0.0704
 9836TIP3    H150999   5.552   0.605   1.996 -0.9564  1.2757  0.3530
 9836TIP3    H251000   5.488   0.522   2.104 -0.1082  0.1812  0.0274
 9837TIP3   OH251001   2.926   2.312  12.013  0.7964 -0.1618  0.7362
 9837TIP3    H151002   2.995   2.302  12.078  0.3437 -1.2530  1.0642
 9837TIP3    H251003   2.845   2.289  12.059  0.3715 -0.1674  0.0133
 9838TIP3   OH251004   6.693   4.761  11.310 -0.4934 -0.3336  0.9124
 9838TIP3    H151005   6.616   4.705  11.317 -0.0781 -0.9588  0.5282
 9838TIP3    H251006   6.748   4.737  11.385 -1.3661  1.2142  2.0967
 9839TIP3   OH251007   3.072   3.245   0.323  0.0179 -0.6311  0.2748
 9839TIP3    H151008   3.048   3.262   0.232 -0.3909 -0.4143  0.4207
 9839TIP3    H251009   3.165   3.220   0.319  0.7067  1.7195  0.0388
 9840TIP3   OH251010   4.525   0.592   4.772  0.4639 -0.4165  0.8373
 9840TIP3    H151011   4.489   0.529   4.710  0.7930  0.3090 -0.1183
 9840TIP3    H251012   4.508   0.677   4.732  0.8628  0.0523  1.6495
 9841TIP3   OH251013   3.590   4.747   0.233  0.1032 -0.3790  0.1868
 9841TIP3    H151014   3.615   4.783   0.148 -1.8806 -0.0127 -0.2908
 9841TIP3    H251015   3.578   4.653   0.217 -1.5832 -0.1061 -0.3049
 9842TIP3   OH251016   5.295   2.527   5.181  0.0637  0.3298 -0.5578
 9842TIP3    H151017   5.220   2.580   5.154 -0.2541 -0.8074 -2.0225
 9842TIP3    H251018   5.301   2.458   5.115  0.2630 -1.6712  1.4068
 9843TIP3   OH251019   1.239   3.386   3.806  0.4082  0.7623  0.1319
 9843TIP3    H151020   1.313   3.358   3.753  0.3587 -1.0579  0.9338
 9843TIP3    H251021   1.166   3.392   3.745  0.4095 -1.0620 -0.1184
 9844TIP3   OH251022   6.159   5.210  13.762  0.0653  0.0982 -0.2275
 9844TIP3    H151023   6.245   5.238  13.729 -0.6641  2.0386 -0.6222
 9844TIP3    H251024   6.104   5.288  13.753 -2.0473 -1.4010 -0.9963
 9845TIP3   OH251025   1.102   3.623   0.181  0.3263 -0.3664  0.2917
 9845TIP3    H151026   1.032   3.564   0.210  1.2615 -0.6327  2.1975
 9845TIP3    H251027   1.096   3.698   0.239  1.9323 -0.6396  0.8703
 9846TIP3   OH251028   5.025   6.804  11.431 -0.0895 -0.0847  0.0885
 9846TIP3    H151029   5.089   6.835  11.367 -0.8632  1.4286  0.0005
 9846TIP3    H251030   5.044   6.711  11.442  1.0895 -0.0050 -1.1202
 9847TIP3   OH251031   0.331   1.601   3.733  0.7597 -0.6348 -0.2711
 9847TIP3    H151032   0.382   1.676   3.764  0.8040 -0.9324  0.3875
 9847TIP3    H251033   0.353   1.531   3.793  2.0078 -1.6615 -1.8461
 9848TIP3   OH251034   0.249   0.229  16.028 -0.0044 -0.2652 -0.2358
 9848TIP3    H151035   0.253   0.248  15.934  0.1659 -0.8981 -0.3602
 9848TIP3    H251036   0.300   0.298  16.069  0.8804 -0.6286 -0.7085
 9849TIP3   OH251037   5.426   4.461   3.140  0.1780  0.0857 -0.1228
 9849TIP3    H151038   5.371   4.465   3.062  0.5776  0.4815 -0.3887
 9849TIP3    H251039   5.390   4.529   3.197  0.7312  0.7184 -0.5232
 9850TIP3   OH251040   4.414   4.174   5.879 -0.2324  0.1646 -0.3527
 9850TIP3    H151041   4.461   4.091   5.884  0.7312  0.7176 -0.0719
 9850TIP3    H251042   4.377   4.187   5.966  2.6115  1.7193  0.7608
 9851TIP3   OH251043   6.608   1.010   0.441  0.1278 -0.6957  0.4456
 9851TIP3    H151044   6.554   1.042   0.513  0.5004  0.1528  0.3529
 9851TIP3    H251045   6.551   1.014   0.364  0.5149  0.8516  0.2179
 9852TIP3   OH251046   1.146   2.909  10.844 -0.5035 -0.1823  0.3282
 9852TIP3    H151047   1.129   3.001  10.824 -0.3063  0.0539  1.2284
 9852TIP3    H251048   1.164   2.869  10.758  3.1488  1.3839  0.1827
 9853TIP3   OH251049   4.033   3.253  15.467  0.8829 -0.1818 -0.2287
 9853TIP3    H151050   4.017   3.334  15.420  3.0558 -0.3434 -1.3799
 9853TIP3    H251051   4.087   3.278  15.542  1.4655 -0.5258 -0.5233
 9854TIP3   OH251052   3.273   5.216   3.514 -0.1145 -0.1465 -0.1339
 9854TIP3    H151053   3.212   5.289   3.524  0.2774  0.1094  0.4037
 9854TIP3    H251054   3.339   5.230   3.581 -0.3997 -1.3628  0.4316
 9855TIP3   OH251055   1.455   5.538   2.349  0.0919  0.1814  0.0722
 9855TIP3    H151056   1.430   5.586   2.270 -0.1009  0.6571  0.4142
 9855TIP3    H251057   1.394   5.464   2.352 -0.5771  0.7205  0.3023
 9856TIP3   OH251058   0.167   1.377   5.527 -0.0362  0.0377  0.2888
 9856TIP3    H151059   0.236   1.437   5.556  0.1646 -0.8206  1.6513
 9856TIP3    H251060   0.181   1.369   5.432  0.3917  1.5454  0.1982
 9857TIP3   OH251061   4.570   0.228  13.759  0.3460  0.2120  0.3208
 9857TIP3    H151062   4.573   0.305  13.702  1.3536  0.4342  0.6422
 9857TIP3    H251063   4.619   0.254  13.837 -0.6893 -0.2152  1.1317
 9858TIP3   OH251064   5.894   3.219   2.884 -0.1002  0.2450  0.1360
 9858TIP3    H151065   5.883   3.262   2.968  0.3796  1.4172 -0.3728
 9858TIP3    H251066   5.958   3.149   2.900 -0.1506  0.3462  0.7761
 9859TIP3   OH251067   1.436   5.678   5.008  0.0088 -0.2977  0.4449
 9859TIP3    H151068   1.507   5.639   4.956 -0.6761 -0.4031 -0.4375
 9859TIP3    H251069   1.478   5.704   5.090  1.2614  0.4605 -0.4032
 9860TIP3   OH251070   3.106   1.034  13.028  0.4993 -0.6960  0.3381
 9860TIP3    H151071   3.111   0.964  13.092 -0.1312 -1.3986 -0.3601
 9860TIP3    H251072   3.126   0.991  12.944 -2.7333 -0.7097 -0.5386
 9861TIP3   OH251073   2.612   1.103   1.537  0.6015  0.4207  0.1638
 9861TIP3    H151074   2.542   1.043   1.561 -0.8849  2.6647  1.8184
 9861TIP3    H251075   2.665   1.111   1.616  1.4681  0.4291 -0.3997
 9862TIP3   OH251076   4.879   4.018   4.938  0.1550 -0.2246 -0.2416
 9862TIP3    H151077   4.861   4.005   4.845  0.4721 -2.0056 -0.0829
 9862TIP3    H251078   4.801   3.984   4.983  1.4017 -2.6135  0.2360
 9863TIP3   OH251079   6.259   6.273   5.099 -0.1549  0.0752  0.3775
 9863TIP3    H151080   6.223   6.237   5.018  0.8511  0.3014 -0.1806
 9863TIP3    H251081   6.342   6.228   5.111  0.8259  1.7138  0.0145
 9864TIP3   OH251082   3.727   3.704  15.027 -0.1671  0.0943 -0.3163
 9864TIP3    H151083   3.792   3.774  15.023  0.3935 -0.4669 -2.5217
 9864TIP3    H251084   3.771   3.628  14.989 -1.5959 -0.7318 -0.3956
 9865TIP3   OH251085   4.643   6.746   0.459 -0.0476  0.6535 -0.5541
 9865TIP3    H151086   4.551   6.746   0.486 -0.1430 -1.5770 -0.7321
 9865TIP3    H251087   4.689   6.702   0.531  0.5550 -0.0793 -1.3648
 9866TIP3   OH251088   6.121   4.687  12.079  0.0733  0.2577  0.2624
 9866TIP3    H151089   6.180   4.741  12.028  0.2034  0.7455  0.9143
 9866TIP3    H251090   6.176   4.646  12.146  0.0500 -1.0058 -0.4651
 9867TIP3   OH251091   6.414   3.195  12.513 -0.7772 -0.4996 -0.4478
 9867TIP3    H151092   6.454   3.205  12.427 -0.2194 -0.3718 -0.1835
 9867TIP3    H251093   6.484   3.221  12.574 -0.9434 -1.2347  0.0624
 9868TIP3   OH251094   3.424   2.806  10.926  0.4157 -0.2157 -0.0665
 9868TIP3    H151095   3.394   2.833  10.839 -1.2782  0.2648  0.6263
 9868TIP3    H251096   3.406   2.882  10.981  1.8267 -0.3793  0.6464
 9869TIP3   OH251097   4.471   5.529  16.864  0.5091  0.2750  0.1404
 9869TIP3    H151098   4.446   5.577  16.785  1.9918 -0.6105 -0.9172
 9869TIP3    H251099   4.521   5.592  16.916 -1.1853  1.1221  0.8373
 9870TIP3   OH251100   2.819   1.589   4.108 -0.5287 -0.1627  0.1382
 9870TIP3    H151101   2.743   1.565   4.160 -1.1489  1.1814 -0.1237
 9870TIP3    H251102   2.857   1.505   4.082 -1.2869 -0.8523  1.1612
 9871TIP3   OH251103   1.806   1.736  13.783  0.1554  0.1485  0.0401
 9871TIP3    H151104   1.762   1.703  13.705 -1.4787  1.3153  0.4318
 9871TIP3    H251105   1.827   1.658  13.834  0.3563 -0.5534 -1.0761
 9872TIP3   OH251106   4.202   0.116   2.703  0.0766  0.3895  0.0317
 9872TIP3    H151107   4.284   0.068   2.708 -0.1158 -0.0474 -0.7668
 9872TIP3    H251108   4.227   0.208   2.701  0.6788  0.2308 -2.0042
 9873TIP3   OH251109   5.162   2.210  11.313  0.1516 -0.3276  0.1774
 9873TIP3    H151110   5.141   2.148  11.243  2.0027  0.2040 -0.9258
 9873TIP3    H251111   5.080   2.257  11.329 -0.8329 -1.8402 -0.1783
 9874TIP3   OH251112   0.239   2.383  11.814  0.0464 -0.1365 -0.5973
 9874TIP3    H151113   0.264   2.337  11.734  1.5192 -0.3328 -0.0544
 9874TIP3    H251114   0.261   2.474  11.798 -0.0294 -0.1129 -0.5670
 9875TIP3   OH251115   4.346   0.941  12.458  0.8419  0.1422 -0.3401
 9875TIP3    H151116   4.386   0.915  12.541 -0.2178 -0.0502  0.1182
 9875TIP3    H251117   4.302   0.862  12.426 -0.5150  0.7653 -0.0457
 9876TIP3   OH251118   2.651   4.535  15.171 -0.0794 -0.2889  0.2848
 9876TIP3    H151119   2.562   4.518  15.200 -1.1932  0.1894 -2.5872
 9876TIP3    H251120   2.655   4.630  15.159  1.5099 -0.0273  2.2189
 9877TIP3   OH251121   3.620   6.525  13.309 -0.0597 -0.2180 -0.0935
 9877TIP3    H151122   3.704   6.511  13.355  0.3820  2.0281 -0.0851
 9877TIP3    H251123   3.644   6.575  13.231 -1.4211  1.0424  0.2451
 9878TIP3   OH251124   3.500   1.615  16.328 -0.0153  0.0734  0.6101
 9878TIP3    H151125   3.476   1.560  16.403 -0.0636 -0.4900  0.1874
 9878TIP3    H251126   3.575   1.572  16.288 -1.7719 -1.3218 -1.4177
 9879TIP3   OH251127   5.333   4.137   0.269  0.3070  0.2281 -0.4969
 9879TIP3    H151128   5.426   4.154   0.255  0.1745  1.5626  0.0723
 9879TIP3    H251129   5.325   4.128   0.364 -0.1445  0.1488 -0.5431
 9880TIP3   OH251130   2.944   3.121  15.388  0.1675 -0.2703  0.1874
 9880TIP3    H151131   2.915   3.094  15.475 -0.5748 -0.5255 -0.1284
 9880TIP3    H251132   2.871   3.170  15.352  0.1139 -0.9249 -0.6311
 9881TIP3   OH251133   0.785   3.401   4.296  0.4549 -0.1335  0.4066
 9881TIP3    H151134   0.881   3.404   4.300  0.6526 -1.3603 -1.8315
 9881TIP3    H251135   0.765   3.421   4.205 -1.5186  0.9319  1.0124
 9882TIP3   OH251136   5.437   5.696   5.965 -0.6818 -0.1908 -1.2320
 9882TIP3    H151137   5.447   5.791   5.956 -1.0648  0.1246  1.1288
 9882TIP3    H251138   5.427   5.681   6.059  1.9120 -2.8418 -1.2323
 9883TIP3   OH251139   0.284   0.848   2.400 -1.0091  0.3220 -0.1202
 9883TIP3    H151140   0.274   0.847   2.305 -1.0402  0.6521 -0.1231
 9883TIP3    H251141   0.371   0.812   2.416  0.6965  3.7891 -0.5217
 9884TIP3   OH251142   1.645   0.140   3.600 -0.3457  0.6973 -0.0925
 9884TIP3    H151143   1.611   0.070   3.657  0.2101  1.2200  0.9160
 9884TIP3    H251144   1.701   0.095   3.537 -1.3391  0.0484 -0.5376
 9885TIP3   OH251145   4.526   6.459   1.051  0.5664 -0.3981  0.4502
 9885TIP3    H151146   4.582   6.411   1.111  0.5685  0.2228  0.9600
 9885TIP3    H251147   4.496   6.535   1.101 -0.3754 -0.4816  0.0512
 9886TIP3   OH251148   0.616   2.067  14.062  0.0313 -0.2522  1.2183
 9886TIP3    H151149   0.575   2.019  13.989  0.6127 -0.1346  0.8100
 9886TIP3    H251150   0.665   2.000  14.110  0.3215 -0.1831  1.0196
 9887TIP3   OH251151   3.154   0.555  16.183 -0.6747 -0.2780  0.2325
 9887TIP3    H151152   3.098   0.591  16.114 -0.1799 -1.3209 -0.7468
 9887TIP3    H251153   3.114   0.585  16.265 -1.5076  0.6457 -0.4865
 9888TIP3   OH251154   3.975   4.033  12.196  0.3982  0.2402 -0.1268
 9888TIP3    H151155   3.926   4.110  12.224 -0.0293 -0.6467  1.7321
 9888TIP3    H251156   3.939   3.961  12.249  1.6015 -1.0126 -0.9387
 9889TIP3   OH251157   4.106   0.407  14.368  0.3360  0.2357  0.1165
 9889TIP3    H151158   4.132   0.491  14.331  2.5357 -0.6591 -0.5267
 9889TIP3    H251159   4.161   0.397  14.446 -0.5489 -0.2329  0.7003
 9890TIP3   OH251160   3.641   2.171   5.642 -0.1967 -0.4054  0.2680
 9890TIP3    H151161   3.584   2.096   5.625  0.2080 -0.7573  0.4518
 9890TIP3    H251162   3.706   2.168   5.572  0.9932 -1.3863  1.3852
 9891TIP3   OH251163   3.758   4.961  11.098 -0.2723  0.0559 -0.1815
 9891TIP3    H151164   3.784   4.940  11.008 -1.8403  1.4763 -0.9999
 9891TIP3    H251165   3.664   4.976  11.094 -0.4809 -0.3745  1.8214
 9892TIP3   OH251166   6.613   4.898   4.133  0.2721  0.1395  0.0673
 9892TIP3    H151167   6.691   4.906   4.187 -0.5488  1.0572  1.1882
 9892TIP3    H251168   6.557   4.972   4.161 -0.3716  0.3928 -1.7285
 9893TIP3   OH251169   1.375   3.414   4.764 -0.2896  0.1579 -0.1876
 9893TIP3    H151170   1.370   3.463   4.846 -1.9924  1.1855 -0.8595
 9893TIP3    H251171   1.394   3.324   4.792  1.0563  0.8198  1.1798
 9894TIP3   OH251172   4.885   3.078  14.584 -0.5879  0.2363  0.0512
 9894TIP3    H151173   4.936   3.153  14.555 -3.8402  2.4972 -0.3376
 9894TIP3    H251174   4.927   3.003  14.542  0.8875  2.2201 -2.2759
 9895TIP3   OH251175   2.924   2.128  14.628  0.4359  0.2943  0.9122
 9895TIP3    H151176   2.844   2.159  14.586 -0.1077 -0.3201  1.4805
 9895TIP3    H251177   2.897   2.053  14.681  1.7344 -1.2037 -0.4439
 9896TIP3   OH251178   1.034   6.184  14.059  0.4326  0.3427  0.3274
 9896TIP3    H151179   1.067   6.126  14.128  0.3712  0.0519  0.1170
 9896TIP3    H251180   0.993   6.125  13.996  1.2329  0.5144 -0.3861
 9897TIP3   OH251181   2.799   1.648  16.430 -0.0892  0.1828  0.8337
 9897TIP3    H151182   2.831   1.589  16.362 -0.3069  0.6758  0.2977
 9897TIP3    H251183   2.797   1.594  16.509  0.2862 -0.3607  0.4812
 9898TIP3   OH251184   4.415   0.991   1.482  0.2479 -0.6750 -0.1502
 9898TIP3    H151185   4.331   1.015   1.443 -0.9731 -2.5967  1.1640
 9898TIP3    H251186   4.400   0.995   1.576  1.6247 -1.1152  0.1044
 9899TIP3   OH251187   1.802   4.807  17.050 -0.0685  0.3420 -0.2990
 9899TIP3    H151188   1.776   4.727  17.097  3.5321 -0.5568  0.4910
 9899TIP3    H251189   1.784   4.878  17.112  1.5202 -0.4846  1.1967
 9900TIP3   OH251190   1.637   0.937   0.530 -0.2360  0.2851 -0.0252
 9900TIP3    H151191   1.643   0.860   0.587 -1.2409 -1.0554 -1.6393
 9900TIP3    H251192   1.722   0.980   0.538 -0.1074 -0.2522  1.8912
 9901TIP3   OH251193   4.762   4.300  11.382  0.5876  0.3997  0.7485
 9901TIP3    H151194   4.736   4.242  11.453 -0.2497  2.6234  2.3916
 9901TIP3    H251195   4.837   4.257  11.341  0.0979 -1.7045  1.9396
 9902TIP3   OH251196   2.703   1.833  14.414 -0.0120 -0.1804  0.1851
 9902TIP3    H151197   2.612   1.805  14.427 -0.1984 -0.7084 -1.8528
 9902TIP3    H251198   2.699   1.929  14.415 -0.6016 -0.1998  0.1074
 9903TIP3   OH251199   2.669   2.365  13.654  0.1535 -0.3341 -0.6876
 9903TIP3    H151200   2.750   2.411  13.631  1.2842 -2.1949 -0.6126
 9903TIP3    H251201   2.698   2.278  13.683 -1.8281 -0.7912  0.0590
 9904TIP3   OH251202   3.230   4.034   2.306  0.0385  0.0830 -0.2443
 9904TIP3    H151203   3.292   3.964   2.287  1.3108  1.0555  0.1686
 9904TIP3    H251204   3.149   4.006   2.265  0.0613 -2.3278  1.1596
 9905TIP3   OH251205   5.543   6.655  11.679  0.2073  0.0228  0.4852
 9905TIP3    H151206   5.527   6.601  11.756  0.6766  0.7508  1.1057
 9905TIP3    H251207   5.636   6.673  11.682  0.2885 -0.1963 -0.4374
 9906TIP3   OH251208   3.228   1.368   1.050  0.0406  0.3953  0.5782
 9906TIP3    H151209   3.169   1.437   1.021 -1.1636 -1.2788 -1.1651
 9906TIP3    H251210   3.313   1.391   1.012 -0.0075  1.5829  1.1478
 9907TIP3   OH251211   3.906   2.887   4.749 -0.0339 -0.1358 -0.1429
 9907TIP3    H151212   3.858   2.820   4.702  0.4361 -0.1924 -0.5549
 9907TIP3    H251213   3.858   2.968   4.732 -1.6544 -0.5842  1.8150
 9908TIP3   OH251214   3.479   1.228  13.952  0.3780 -0.3331  0.3136
 9908TIP3    H151215   3.508   1.313  13.985  1.6927 -0.4155 -0.5566
 9908TIP3    H251216   3.402   1.207  14.005 -0.2655  1.6030  0.2364
 9909TIP3   OH251217   4.247   6.548   1.743 -0.1302 -0.4004 -0.6174
 9909TIP3    H151218   4.158   6.558   1.777  0.5720  0.1134  1.1940
 9909TIP3    H251219   4.296   6.620   1.782  1.3779 -1.4177 -0.5507
 9910TIP3   OH251220   3.812   2.331  13.090  0.2773 -0.5574  0.4541
 9910TIP3    H151221   3.776   2.361  13.006 -1.0097 -1.6040  0.5921
 9910TIP3    H251222   3.754   2.258  13.115  1.4935 -1.1666  1.5593
 9911TIP3   OH251223   4.288   3.705  15.802  0.4190 -0.1051  0.0611
 9911TIP3    H151224   4.282   3.645  15.875 -0.4958  0.9292  0.8733
 9911TIP3    H251225   4.327   3.785  15.839  0.6487  0.1697 -0.7434
 9912TIP3   OH251226   5.122   6.310  13.802  0.2882 -0.5996 -0.0041
 9912TIP3    H151227   5.052   6.245  13.814  0.1269 -0.0581  2.3769
 9912TIP3    H251228   5.192   6.281  13.860  1.2227  0.0556 -0.7624
 9913TIP3   OH251229   2.403   4.906  16.550  0.7631  0.0105  0.7853
 9913TIP3    H151230   2.319   4.871  16.521  1.2087 -1.0820  0.7785
 9913TIP3    H251231   2.399   4.903  16.645  0.4496  0.8209  0.8047
 9914TIP3   OH251232   1.026   5.352  13.029  0.6927 -0.1022 -0.2595
 9914TIP3    H151233   1.043   5.294  12.955  0.0701  1.1570 -1.4330
 9914TIP3    H251234   1.034   5.440  12.993  0.2096  0.5384  1.1363
 9915TIP3   OH251235   2.274   2.765   2.622 -0.2944  0.1643  0.4773
 9915TIP3    H151236   2.334   2.811   2.680 -0.4096 -1.5727  2.0345
 9915TIP3    H251237   2.318   2.765   2.537  0.8064  0.9761  1.0257
 9916TIP3   OH251238   1.376   2.552  14.241 -0.7181 -0.4111  0.2141
 9916TIP3    H151239   1.451   2.537  14.184 -0.7436  0.7013 -0.1241
 9916TIP3    H251240   1.313   2.484  14.216 -0.9056  0.3032 -1.4017
 9917TIP3   OH251241   3.706   1.925   6.544 -0.1503  0.1439  0.0261
 9917TIP3    H151242   3.705   1.855   6.609 -1.6762  1.1436  1.1703
 9917TIP3    H251243   3.684   2.004   6.594 -1.5179  0.9406 -1.7157
 9918TIP3   OH251244   6.754   4.258   3.395 -0.3027 -0.1762 -0.1636
 9918TIP3    H151245   6.699   4.334   3.417  1.2367  0.6349  1.0467
 9918TIP3    H251246   6.778   4.272   3.304  0.1665  0.9326  0.1192
 9919TIP3   OH251247   5.527   2.407   3.994 -0.0002  0.6381 -0.0553
 9919TIP3    H151248   5.527   2.412   4.090 -0.3990  0.9253 -0.0644
 9919TIP3    H251249   5.601   2.461   3.968 -0.3676  1.2182  0.0730
 9920TIP3   OH251250   0.761   0.676  13.876  0.3627 -0.4094 -0.4221
 9920TIP3    H151251   0.725   0.760  13.903  1.6588  0.0136  0.0863
 9920TIP3    H251252   0.851   0.677  13.909  0.8539 -1.4037 -1.6643
 9921TIP3   OH251253   6.015   5.403  12.969 -0.5228 -0.0098 -0.5311
 9921TIP3    H151254   5.930   5.363  12.953 -0.8274  0.5544 -0.3165
 9921TIP3    H251255   5.997   5.476  13.028  0.0338  0.4448 -0.9159
 9922TIP3   OH251256   3.252   2.258  13.872 -0.1835  0.6074 -0.0526
 9922TIP3    H151257   3.237   2.289  13.961  0.0604  0.0687  0.1817
 9922TIP3    H251258   3.311   2.183  13.882 -1.5268 -0.5446 -0.5013
 9923TIP3   OH251259   6.492   3.342  16.377 -0.4096  0.8712 -0.5296
 9923TIP3    H151260   6.399   3.323  16.389 -0.2214  1.0525  1.6648
 9923TIP3    H251261   6.504   3.428  16.416  0.4051  1.5847 -2.2761
 9924TIP3   OH251262   1.010   0.592  13.987 -0.0023 -0.4786  0.5304
 9924TIP3    H151263   0.942   0.632  14.042 -1.8093 -0.4040 -1.5978
 9924TIP3    H251264   1.035   0.512  14.033 -0.1208  0.4631  2.3013
 9925TIP3   OH251265   6.804   5.172   5.182  0.5983  0.2460 -0.0872
 9925TIP3    H151266   6.777   5.098   5.128  0.3230 -0.5064  1.0308
 9925TIP3    H251267   6.892   5.149   5.212 -0.0165 -0.3593  1.4110
 9926TIP3   OH251268   4.532   3.989   1.332  0.3427 -0.6893  0.3580
 9926TIP3    H151269   4.516   4.070   1.282 -1.1325 -0.4744  1.1011
 9926TIP3    H251270   4.582   4.018   1.409  0.8885 -0.6894  0.0037
 9927TIP3   OH251271   5.236   0.139   5.695  0.8555 -0.4764 -0.3888
 9927TIP3    H151272   5.179   0.178   5.629 -0.6877 -2.0916 -0.0682
 9927TIP3    H251273   5.320   0.126   5.650 -0.1558 -1.5253 -2.0546
 9928TIP3   OH251274   5.239   0.112  13.636  0.0157 -0.0035  0.0774
 9928TIP3    H151275   5.328   0.084  13.659  0.1444 -0.2682 -0.7035
 9928TIP3    H251276   5.252   0.182  13.572 -0.3279  0.9235  0.9884
 9929TIP3   OH251277   1.422   5.895   4.854 -0.2023  0.4577  0.4989
 9929TIP3    H151278   1.389   5.824   4.909  1.4469  1.3322  2.7366
 9929TIP3    H251279   1.370   5.971   4.879  0.1370  0.7350  0.3621
 9930TIP3   OH251280   1.251   0.041  10.680  0.4236  0.0701 -0.1830
 9930TIP3    H151281   1.205   0.083  10.752 -1.7113 -1.4799 -0.5195
 9930TIP3    H251282   1.277   0.113  10.623 -1.8473  1.0961 -0.0572
 9931TIP3   OH251283   2.796   4.822  13.096 -0.2396  0.6876  0.6883
 9931TIP3    H151284   2.881   4.779  13.089  0.4032  2.1319 -1.6054
 9931TIP3    H251285   2.734   4.758  13.061 -0.0787 -0.2132  1.9806
 9932TIP3   OH251286   3.043   4.164   1.506  0.1053  0.2368  0.1773
 9932TIP3    H151287   3.097   4.205   1.439  0.8938 -1.4099 -0.2643
 9932TIP3    H251288   3.092   4.177   1.588 -1.1748  2.8182  0.6231
 9933TIP3   OH251289   5.595   3.487   4.022  0.3455 -0.4383 -0.9220
 9933TIP3    H151290   5.532   3.467   4.092  0.6485 -0.0330 -0.5260
 9933TIP3    H251291   5.540   3.506   3.946  0.0197 -1.2851 -0.9107
 9934TIP3   OH251292   5.140   4.385   5.220 -0.3319  0.0684 -0.4130
 9934TIP3    H151293   5.123   4.307   5.166  1.6913 -1.5222  1.0938
 9934TIP3    H251294   5.125   4.355   5.310 -0.5779  1.7634  0.1474
 9935TIP3   OH251295   1.220   5.940  12.887 -0.3962 -0.3556 -0.2339
 9935TIP3    H151296   1.159   5.886  12.838 -0.0314 -1.0531  0.0650
 9935TIP3    H251297   1.302   5.890  12.886  0.2983  0.7547 -0.9863
 9936TIP3   OH251298   4.808   2.694  16.365  0.4103 -0.0761  0.5212
 9936TIP3    H151299   4.900   2.673  16.376  0.8893  1.5852 -0.0407
 9936TIP3    H251300   4.776   2.708  16.455  0.6544 -0.7947  0.7271
 9937TIP3   OH251301   5.698   0.752   4.894  0.6966 -0.1606 -0.1112
 9937TIP3    H151302   5.745   0.710   4.822  1.2214 -0.4942  0.4062
 9937TIP3    H251303   5.767   0.781   4.954  0.2620 -0.2998  0.4756
 9938TIP3   OH251304   3.155   4.444  17.060  0.8728  0.1911 -0.2313
 9938TIP3    H151305   3.114   4.359  17.046  0.7255 -0.0496  1.4288
 9938TIP3    H251306   3.247   4.431  17.035  1.2975 -1.0294  1.7236
 9939TIP3   OH251307   6.312   3.033   0.177  0.6331 -0.0566 -0.0197
 9939TIP3    H151308   6.394   3.083   0.169 -0.8647  2.3393 -1.7876
 9939TIP3    H251309   6.283   3.022   0.086 -1.3869 -0.1434  0.5986
 9940TIP3   OH251310   0.541   6.646   1.305  0.3700 -0.0573 -0.1417
 9940TIP3    H151311   0.574   6.556   1.311 -1.2978 -0.6113  1.4568
 9940TIP3    H251312   0.452   6.636   1.271 -0.8315  0.6924  2.5546
 9941TIP3   OH251313   1.815   1.385  14.649  0.4539  0.3802  0.4237
 9941TIP3    H151314   1.879   1.366  14.581  2.1259 -1.3179  2.3387
 9941TIP3    H251315   1.847   1.466  14.689  0.2882  0.5975  0.1170
 9942TIP3   OH251316   0.851   1.811  11.227 -0.7444 -0.2721 -0.2836
 9942TIP3    H151317   0.864   1.847  11.315 -0.9522  0.8430 -0.6908
 9942TIP3    H251318   0.937   1.775  11.203 -0.4311  0.2674  0.0106
 9943TIP3   OH251319   5.136   2.275   5.253  0.4356 -0.3712  0.0515
 9943TIP3    H151320   5.092   2.254   5.170  0.3625  0.8609 -0.2286
 9943TIP3    H251321   5.089   2.350   5.287 -0.1061 -1.4032  1.6891
 9944TIP3   OH251322   0.647   1.553  14.558  0.2379  0.2938 -0.3976
 9944TIP3    H151323   0.642   1.633  14.611 -0.1188 -0.0775  0.1452
 9944TIP3    H251324   0.733   1.516  14.579 -1.0629 -1.4793  2.3846
 9945TIP3   OH251325   0.685   2.874   5.308  0.3362  0.3941  0.3423
 9945TIP3    H151326   0.666   2.831   5.225  0.6919  2.3123 -0.8082
 9945TIP3    H251327   0.775   2.905   5.299  0.3534  0.6957  1.4023
 9946TIP3   OH251328   6.689   6.622  13.737 -0.1324  0.8163  0.4099
 9946TIP3    H151329   6.740   6.700  13.761 -1.4058  0.9981  2.7832
 9946TIP3    H251330   6.676   6.631  13.642  0.3956  3.1028  0.4963
 9947TIP3   OH251331   1.801   6.396   4.022 -0.4247  0.0300  0.7369
 9947TIP3    H151332   1.747   6.387   4.101 -1.1471 -1.0466  0.1260
 9947TIP3    H251333   1.740   6.424   3.954 -0.0293 -0.2673  0.2605
 9948TIP3   OH251334   1.877   2.516   0.133 -0.2171  0.6649 -0.1371
 9948TIP3    H151335   1.949   2.466   0.172 -0.3074  0.6634  0.0285
 9948TIP3    H251336   1.907   2.536   0.045  0.1168  0.9387  0.0364
 9949TIP3   OH251337   3.435   3.310  13.248 -0.2513 -0.0572 -0.2093
 9949TIP3    H151338   3.345   3.332  13.226 -0.2881 -1.6866 -2.0210
 9949TIP3    H251339   3.488   3.358  13.184 -0.0563 -1.2773 -1.0030
 9950TIP3   OH251340   5.086   4.045   3.467 -0.1537 -0.0205 -0.4059
 9950TIP3    H151341   5.171   4.077   3.499  0.0034 -2.2264  1.7276
 9950TIP3    H251342   5.027   4.059   3.541 -1.0950 -0.5457 -1.0469
 9951TIP3   OH251343   2.061   1.370  15.050 -0.5368  0.8955  0.2471
 9951TIP3    H151344   2.052   1.303  15.118  0.8346  1.4107  0.9927
 9951TIP3    H251345   1.976   1.413  15.046 -0.6887  0.7526  1.5624
 9952TIP3   OH251346   6.233   1.677  17.152 -0.0907 -0.1167  0.0108
 9952TIP3    H151347   6.238   1.772  17.162 -1.5870  0.4595 -3.2541
 9952TIP3    H251348   6.143   1.655  17.178 -0.7357 -0.0788 -1.9927
 9953TIP3   OH251349   5.528   5.664  14.703  0.2966 -0.4341  0.1915
 9953TIP3    H151350   5.568   5.708  14.628 -0.9101  1.2772  0.5167
 9953TIP3    H251351   5.439   5.699  14.708  0.4237 -0.2621  2.5889
 9954TIP3   OH251352   1.454   0.856  14.349  0.5784 -0.6715  0.0966
 9954TIP3    H151353   1.457   0.781  14.409 -0.3247  1.1391  2.5468
 9954TIP3    H251354   1.546   0.876  14.332  0.8936 -0.8134  1.4883
 9955TIP3   OH251355   2.551   0.784  11.771  0.3547 -0.0301  0.3987
 9955TIP3    H151356   2.571   0.808  11.861 -0.9055 -0.0039  0.6876
 9955TIP3    H251357   2.570   0.863  11.720 -0.9376  0.6604  0.9442
 9956TIP3   OH251358   3.529   5.025  15.013 -0.5179 -0.0877  0.1411
 9956TIP3    H151359   3.499   5.019  15.104  0.7418  0.5365  0.6180
 9956TIP3    H251360   3.622   5.006  15.017 -0.6209 -0.9739 -1.1716
 9957TIP3   OH251361   6.709   5.684  15.173 -0.0511 -0.3106 -0.4955
 9957TIP3    H151362   6.673   5.616  15.116  2.1037 -0.3471 -1.9242
 9957TIP3    H251363   6.725   5.758  15.114  0.0476  0.5110  0.5371
 9958TIP3   OH251364   6.114   6.503   4.098  0.3975 -0.1673 -0.2614
 9958TIP3    H151365   6.120   6.597   4.085  2.0937 -0.2094 -0.0034
 9958TIP3    H251366   6.041   6.492   4.159  0.1773  0.9779 -0.2993
 9959TIP3   OH251367   2.677   4.125  12.863  0.1818 -0.8239 -0.7524
 9959TIP3    H151368   2.625   4.201  12.889  0.6769 -0.5737 -0.4769
 9959TIP3    H251369   2.684   4.072  12.943  0.6791 -0.6638 -0.6915
 9960TIP3   OH251370   4.699   5.510   0.027 -0.0125  0.4027  0.0237
 9960TIP3    H151371   4.616   5.508   0.075  0.1183  1.1160  0.2960
 9960TIP3    H251372   4.756   5.449   0.075 -1.5077 -3.2195 -2.4000
 9961TIP3   OH251373   0.373   6.164  14.201  0.2496 -0.0550 -0.0366
 9961TIP3    H151374   0.458   6.159  14.245  0.2708  1.6690  0.2160
 9961TIP3    H251375   0.325   6.231  14.250 -0.2219  0.9785 -1.8081
 9962TIP3   OH251376   6.522   5.048   3.312 -0.1835 -0.0403 -0.1564
 9962TIP3    H151377   6.533   5.099   3.393 -2.3978 -0.1999  0.3192
 9962TIP3    H251378   6.522   4.957   3.341  0.2396 -0.1622 -0.5259
 9963TIP3   OH251379   0.698   6.656   3.388 -0.3902  0.3563 -0.1998
 9963TIP3    H151380   0.784   6.678   3.352  0.1056  0.9816  1.2981
 9963TIP3    H251381   0.713   6.577   3.440 -0.7151  0.5054  0.1238
 9964TIP3   OH251382   2.852   0.113   3.932  0.1589  0.1034  0.2112
 9964TIP3    H151383   2.908   0.067   3.869 -0.9944  0.5823 -1.2148
 9964TIP3    H251384   2.791   0.163   3.878 -0.5243  0.9772  1.7265
 9965TIP3   OH251385   5.168   2.984   3.833  0.2439  0.4258  0.1079
 9965TIP3    H151386   5.181   2.933   3.753  0.6982  0.4443  0.1679
 9965TIP3    H251387   5.094   3.041   3.814 -0.2680 -0.2415  0.0278
 9966TIP3   OH251388   5.932   4.741  11.720 -0.3651  0.0013 -0.3346
 9966TIP3    H151389   5.862   4.717  11.658  0.5161  0.6791 -1.6465
 9966TIP3    H251390   6.001   4.776  11.664  0.2107  1.2556  1.1181
 9967TIP3   OH251391   0.643   2.692   0.270 -0.1913 -0.7278  0.2266
 9967TIP3    H151392   0.596   2.708   0.352 -0.2014  1.7631 -0.2113
 9967TIP3    H251393   0.582   2.718   0.201  0.6600 -0.5344 -0.4733
 9968TIP3   OH251394   1.270   5.468   1.094 -0.4835 -0.2784  0.4064
 9968TIP3    H151395   1.293   5.503   1.180  0.6106 -1.0994  0.4694
 9968TIP3    H251396   1.280   5.543   1.035 -1.1103  0.2565  0.9554
 9969TIP3   OH251397   5.040   2.675   0.061  0.7491 -0.8124 -0.1733
 9969TIP3    H151398   5.122   2.723   0.072  0.8212 -1.3018  1.7866
 9969TIP3    H251399   5.053   2.593   0.108 -1.5502 -0.0303  2.0797
 9970TIP3   OH251400   5.348   6.727  16.563 -0.2692 -0.1891  0.8339
 9970TIP3    H151401   5.378   6.727  16.472 -0.6591 -0.1249  0.7071
 9970TIP3    H251402   5.390   6.804  16.602 -1.0153  0.4337  0.4129
 9971TIP3   OH251403   1.415   5.684  15.061 -0.2098 -0.2910  0.5795
 9971TIP3    H151404   1.462   5.687  15.145  0.8502  1.5712 -0.0111
 9971TIP3    H251405   1.378   5.772  15.052  0.8522 -0.0090 -1.5299
 9972TIP3   OH251406   1.318   6.175   3.543  0.2113 -0.1724 -0.1520
 9972TIP3    H151407   1.327   6.176   3.638  0.2827  0.7009 -0.1635
 9972TIP3    H251408   1.257   6.103   3.526  2.0557 -1.9815  0.3713
 9973TIP3   OH251409   1.494   4.701   1.314 -0.7758 -0.1032  0.1424
 9973TIP3    H151410   1.497   4.615   1.355 -2.0383 -0.2454 -0.0163
 9973TIP3    H251411   1.561   4.753   1.360  0.0514 -1.1717  0.1831
 9974TIP3   OH251412   3.974   3.523   6.366 -0.0171 -0.6148  0.7495
 9974TIP3    H151413   4.038   3.457   6.339  0.1942  0.6181 -2.0537
 9974TIP3    H251414   3.893   3.496   6.323 -0.2333  0.2624  0.5909
 9975TIP3   OH251415   0.593   3.052   1.053  0.0027 -0.8070 -0.1386
 9975TIP3    H151416   0.685   3.067   1.074  0.2251 -2.4025  0.1335
 9975TIP3    H251417   0.574   3.114   0.983  0.7739  0.7713  0.9750
 9976TIP3   OH251418   0.069   0.113   0.593 -0.1172  0.2799 -0.3828
 9976TIP3    H151419  -0.021   0.082   0.586  0.3826 -1.4255  0.1659
 9976TIP3    H251420   0.064   0.190   0.649 -1.5778  2.0811 -2.7856
 9977TIP3   OH251421   3.820   4.398   1.630  0.0907 -0.2114 -0.5997
 9977TIP3    H151422   3.822   4.310   1.668 -0.1502 -0.5407 -1.3303
 9977TIP3    H251423   3.771   4.450   1.693  0.4731 -0.5302 -0.0244
 9978TIP3   OH251424   4.829   2.720   0.870  0.1371 -0.5155  0.7828
 9978TIP3    H151425   4.742   2.691   0.897  0.0513  0.2008  1.2997
 9978TIP3    H251426   4.823   2.816   0.867  0.9711 -0.4444  1.0502
 9979TIP3   OH251427   5.670   3.118  15.769  0.3546  0.0398  0.5720
 9979TIP3    H151428   5.617   3.190  15.801 -0.3042 -0.3428  0.3554
 9979TIP3    H251429   5.635   3.040  15.813  0.9724 -0.1706  0.7100
 9980TIP3   OH251430   6.314   5.133  14.002  0.0539  0.4151  0.4891
 9980TIP3    H151431   6.261   5.152  13.925 -0.7900 -1.2133  0.6350
 9980TIP3    H251432   6.352   5.047  13.986  0.8843  0.5964  1.3585
 9981TIP3   OH251433   3.064   3.934  16.082 -0.1008 -0.1337  0.3578
 9981TIP3    H151434   3.097   3.891  16.161 -0.0761 -2.2037 -0.7356
 9981TIP3    H251435   3.131   4.000  16.062  0.2353 -0.0492  1.6572
 9982TIP3   OH251436   5.695   2.333   1.169 -0.2330  0.3120 -0.0476
 9982TIP3    H151437   5.788   2.334   1.148  0.0838  0.3344  1.2910
 9982TIP3    H251438   5.651   2.326   1.083  0.9304  1.6964 -0.7953
 9983TIP3   OH251439   5.095   5.983   5.883 -0.1364 -0.3365  0.2757
 9983TIP3    H151440   5.021   5.951   5.934  0.3993  0.1351  1.3865
 9983TIP3    H251441   5.142   6.041   5.943  1.6581 -1.3564 -0.1000
 9984TIP3   OH251442   5.317   3.251  13.048  0.3426 -0.0087 -0.0066
 9984TIP3    H151443   5.239   3.282  13.003 -1.2995 -2.6201  0.8251
 9984TIP3    H251444   5.309   3.285  13.137 -0.2728 -0.8842  0.2835
 9985TIP3   OH251445   0.126   0.285   1.644  0.1784 -0.9292  0.6945
 9985TIP3    H151446   0.069   0.244   1.579 -0.0729  0.9203 -0.3342
 9985TIP3    H251447   0.211   0.292   1.601 -0.0131  0.3938  0.4933
 9986TIP3   OH251448   1.698   3.269  11.862 -0.5088 -0.4876  0.6744
 9986TIP3    H151449   1.603   3.269  11.865 -0.6041  2.2300 -0.0962
 9986TIP3    H251450   1.721   3.345  11.809  2.0974 -1.6729 -0.0725
 9987TIP3   OH251451   0.409   3.804   2.282 -0.9988  0.5830 -0.1266
 9987TIP3    H151452   0.342   3.833   2.220 -0.5681 -0.4193 -1.1031
 9987TIP3    H251453   0.486   3.855   2.261 -0.7718  0.0485 -0.6214
 9988TIP3   OH251454   3.818   4.516  12.097  0.1528 -0.1625  0.3833
 9988TIP3    H151455   3.860   4.501  12.013 -0.2292  0.6122  0.0401
 9988TIP3    H251456   3.772   4.434  12.117 -0.1223 -0.2048 -0.3813
 9989TIP3   OH251457   0.020   0.842   1.384  0.1192 -0.0840 -0.2211
 9989TIP3    H151458   0.114   0.844   1.403  0.3856 -1.2779 -1.2769
 9989TIP3    H251459  -0.009   0.757   1.418 -0.4950  0.1084 -0.2618
 9990TIP3   OH251460   0.100   1.399  15.260  0.1584 -0.3519 -0.3408
 9990TIP3    H151461   0.170   1.463  15.270  0.1749 -0.2742 -0.9505
 9990TIP3    H251462   0.023   1.451  15.238  0.0917 -0.5134 -0.4885
 9991TIP3   OH251463   6.340   1.760   1.796  0.0264 -0.3237  0.0029
 9991TIP3    H151464   6.275   1.693   1.815 -0.3374  0.7636  3.0951
 9991TIP3    H251465   6.294   1.843   1.810  1.3442  0.5178 -0.4473
 9992TIP3   OH251466   2.584   2.452   3.711 -0.3653 -0.3710  0.2097
 9992TIP3    H151467   2.510   2.476   3.765  0.5369  0.3354  1.1795
 9992TIP3    H251468   2.570   2.360   3.689 -2.0718  0.0449 -0.5818
 9993TIP3   OH251469   4.297   6.714   6.312 -0.2477 -0.0332 -0.9506
 9993TIP3    H151470   4.235   6.721   6.385  0.9121 -0.5136  0.1276
 9993TIP3    H251471   4.329   6.803   6.299  0.8515 -0.2002  0.3585
 9994TIP3   OH251472   5.193   1.989  10.747 -0.0170  0.3039 -0.5088
 9994TIP3    H151473   5.136   2.065  10.756 -0.9568 -0.2550 -1.5593
 9994TIP3    H251474   5.265   2.019  10.691  0.7929  1.0258  0.8669
 9995TIP3   OH251475   2.317   2.351  12.659 -0.8197  0.2770 -0.2080
 9995TIP3    H151476   2.392   2.389  12.613 -1.3560  0.1619 -1.2050
 9995TIP3    H251477   2.273   2.426  12.699 -0.0770  0.3233  0.5417
 9996TIP3   OH251478   2.498   1.544  14.155 -0.4815 -0.2453  0.5022
 9996TIP3    H151479   2.556   1.576  14.224 -0.7514  1.5684 -0.0523
 9996TIP3    H251480   2.423   1.603  14.157 -0.6988 -0.4137 -1.0496
 9997TIP3   OH251481   0.154   0.715  11.151 -0.6941 -0.0727 -0.3338
 9997TIP3    H151482   0.143   0.804  11.186  0.4833 -0.2680  0.6265
 9997TIP3    H251483   0.074   0.698  11.102 -0.4408  1.9795 -1.5569
 9998TIP3   OH251484   0.322   3.712   4.752 -0.2584  0.1456  0.7696
 9998TIP3    H151485   0.399   3.712   4.810  0.6267  0.0217 -0.3582
 9998TIP3    H251486   0.249   3.685   4.808  0.6436 -0.4154  1.7150
 9999TIP3   OH251487   2.749   6.613   6.636  0.0588  0.6262 -0.3187
 9999TIP3    H151488   2.739   6.522   6.667  0.4473  0.3219 -1.0560
 9999TIP3    H251489   2.682   6.662   6.683  1.0176  0.3123  1.4671
10000TIP3   OH251490   5.536   3.170   5.681  0.0139  0.1403  0.1941
10000TIP3    H151491   5.454   3.201   5.642  0.0902 -0.3345 -0.3637
10000TIP3    H251492   5.572   3.109   5.615  0.1528 -0.6695  1.0019
10001TIP3   OH251493   6.264   3.105  16.987 -0.0181  0.1868 -0.1572
10001TIP3    H151494   6.270   3.057  17.070  0.3394 -1.0375 -0.8673
10001TIP3    H251495   6.260   3.037  16.920  1.3926  1.1396 -1.2762
10002TIP3   OH251496   4.528   2.337   0.094 -0.3759  0.1975  0.1245
10002TIP3    H151497   4.604   2.326   0.150 -0.7064  1.9992  0.9935
10002TIP3    H251498   4.481   2.254   0.101  2.6586 -1.9475 -2.3982
10003TIP3   OH251499   0.663   5.651   2.907  0.1554  0.6673 -0.0827
10003TIP3    H151500   0.722   5.686   2.840 -0.9989  0.7368 -1.1209
10003TIP3    H251501   0.679   5.704   2.985  4.3581 -1.8594  1.0862
10004TIP3   OH251502   3.750   6.617  15.930  0.2913  0.1842  0.1397
10004TIP3    H151503   3.757   6.676  16.004  0.2990 -2.0566  2.0375
10004TIP3    H251504   3.763   6.530  15.967  0.2432 -1.0541 -2.4964
10005TIP3   OH251505   1.611   0.031   6.188 -0.3666 -0.2127 -0.1037
10005TIP3    H151506   1.646   0.003   6.273 -1.2003 -3.1853 -0.6056
10005TIP3    H251507   1.538   0.089   6.210 -0.4623 -0.7899  1.2390
10006TIP3   OH251508   0.541   2.083  16.827  0.2076  0.4061  0.2701
10006TIP3    H151509   0.456   2.048  16.798  0.1780  0.5385  0.1960
10006TIP3    H251510   0.524   2.176  16.845 -0.0104  0.1281  1.6469
10007TIP3   OH251511   2.937   4.016   1.113  0.1794 -0.3815 -0.2636
10007TIP3    H151512   2.946   3.997   1.207  0.1728 -0.7656 -0.3387
10007TIP3    H251513   2.925   3.930   1.072 -2.3110 -0.0889 -0.3308
10008TIP3   OH251514   6.036   3.853   1.102 -0.0939  0.2515  0.1767
10008TIP3    H151515   6.027   3.913   1.175  0.3537 -0.1654  0.5846
10008TIP3    H251516   5.947   3.843   1.068 -0.2014  0.9679  0.2373
10009TIP3   OH251517   4.484   3.681  12.173 -0.1245  0.2886  0.3672
10009TIP3    H151518   4.477   3.586  12.170  0.1913  0.2734  0.0829
10009TIP3    H251519   4.563   3.701  12.123 -0.6998  0.7565 -0.3832
10010TIP3   OH251520   3.593   0.962  13.256  0.5187 -0.2972 -0.1345
10010TIP3    H151521   3.608   0.930  13.167  0.5362 -1.3125  0.2177
10010TIP3    H251522   3.498   0.958  13.268  0.4931  0.0954 -0.1960
10011TIP3   OH251523   3.119   0.153   2.483  0.0105 -0.1358 -0.0160
10011TIP3    H151524   3.136   0.076   2.429 -0.5931 -0.7304  0.6194
10011TIP3    H251525   3.201   0.202   2.481  0.7492 -1.3078  0.3827
10012TIP3   OH251526   0.356   3.956   3.347 -0.7174  0.1273 -0.2137
10012TIP3    H151527   0.416   3.894   3.305 -0.9955 -1.0418  1.0315
10012TIP3    H251528   0.285   3.967   3.284  0.0530  0.3463 -1.0695
10013TIP3   OH251529   4.158   5.036  16.474  0.0215  0.1878  0.0965
10013TIP3    H151530   4.126   4.954  16.510 -0.7982  1.0341  1.3724
10013TIP3    H251531   4.244   5.048  16.514  0.9524 -0.9040 -1.4836
10014TIP3   OH251532   5.249   3.581   1.207 -0.2776  0.3579  0.1453
10014TIP3    H151533   5.178   3.583   1.272 -1.4356  1.3185 -1.0853
10014TIP3    H251534   5.227   3.507   1.151 -0.8614  1.2082 -0.7865
10015TIP3   OH251535   5.515   3.283  16.935  0.6939  0.7073  0.1155
10015TIP3    H151536   5.528   3.378  16.934  0.1825  0.7854  0.4319
10015TIP3    H251537   5.597   3.247  16.901  2.1004  1.1133  2.8019
10016TIP3   OH251538   3.443   3.212  12.911  0.4673 -0.1748 -0.1042
10016TIP3    H151539   3.487   3.219  12.996 -0.2118  1.9242  0.1537
10016TIP3    H251540   3.483   3.281  12.858 -2.3104  1.8222  0.1351
10017TIP3   OH251541   2.312   1.521  14.509  0.1809 -0.4192 -0.0218
10017TIP3    H151542   2.248   1.532  14.580 -0.9934  0.8854 -1.2029
10017TIP3    H251543   2.351   1.435  14.525 -1.5081 -1.0521  1.0484
10018TIP3   OH251544   3.984   2.373   6.512  0.2553 -0.0960  0.2907
10018TIP3    H151545   4.073   2.376   6.476 -0.1018  0.1995 -0.5827
10018TIP3    H251546   3.929   2.344   6.440 -0.8110  2.7009 -0.1254
10019TIP3   OH251547   6.616   3.664  13.977 -0.2068 -0.2509 -0.5609
10019TIP3    H151548   6.610   3.605  13.902  0.4866 -1.5663  0.3633
10019TIP3    H251549   6.545   3.636  14.035 -0.6488  0.6545 -0.6626
10020TIP3   OH251550   3.271   3.181  14.807  0.3006  0.2617  0.1831
10020TIP3    H151551   3.281   3.158  14.900 -1.0320 -0.9096  0.0728
10020TIP3    H251552   3.316   3.111  14.760  0.5208  0.5704 -0.0621
10021TIP3   OH251553   2.236   0.419  15.505 -0.8763  0.0533 -0.3571
10021TIP3    H151554   2.233   0.405  15.600 -0.2257  0.6788 -0.2424
10021TIP3    H251555   2.144   0.432  15.480 -1.0743 -0.3675  0.1428
10022TIP3   OH251556   5.182   0.135   1.592 -0.2998 -0.2461  0.0065
10022TIP3    H151557   5.129   0.148   1.513  2.1745 -2.4254 -2.2169
10022TIP3    H251558   5.273   0.140   1.561  0.8460  1.2466  3.2241
10023TIP3   OH251559   2.880   3.929   1.807  0.0117  0.0980  0.8496
10023TIP3    H151560   2.869   3.909   1.900 -0.1254  2.4034  1.3828
10023TIP3    H251561   2.975   3.939   1.795  0.0528 -0.4636  0.6581
10024TIP3   OH251562   3.976   1.838   5.198  0.4950  0.1230 -0.2566
10024TIP3    H151563   3.919   1.832   5.122  2.4375 -0.7306 -1.7244
10024TIP3    H251564   3.968   1.754   5.242 -1.4757  0.9969  1.2115
10025TIP3   OH251565   5.967   2.537  13.254  0.2718 -0.0646 -0.3559
10025TIP3    H151566   5.946   2.615  13.203 -1.3357  0.2611  0.7247
10025TIP3    H251567   6.055   2.554  13.288 -0.5410  1.9370  0.9492
10026TIP3   OH251568   4.227   6.097  17.275 -0.1788  0.0263 -0.3571
10026TIP3    H151569   4.213   6.176  17.222  0.7764  1.1913  1.0640
10026TIP3    H251570   4.141   6.078  17.313 -0.3609  0.5184 -0.5124
10027TIP3   OH251571   6.530   0.023   2.717  0.4698  0.2937  0.1112
10027TIP3    H151572   6.503   0.085   2.650  1.0108  0.7119  0.2705
10027TIP3    H251573   6.548  -0.058   2.670 -0.0837  0.3015 -0.1194
10028TIP3   OH251574   2.891   4.282   4.227 -0.2813 -0.2207 -0.0768
10028TIP3    H151575   2.969   4.263   4.175  0.8809  0.4591  1.3376
10028TIP3    H251576   2.915   4.256   4.316 -1.1199  1.3547  0.6573
10029TIP3   OH251577   5.790   4.613   5.152  0.3590  0.1007 -0.1296
10029TIP3    H151578   5.864   4.602   5.093 -0.1549 -1.9024 -0.4711
10029TIP3    H251579   5.803   4.546   5.219 -1.2309 -0.4288 -0.3079
10030TIP3   OH251580   2.573   3.756   0.074  0.4896 -0.0216 -0.3339
10030TIP3    H151581   2.498   3.797   0.117 -1.4451 -2.0368 -1.5461
10030TIP3    H251582   2.641   3.753   0.141 -1.6919 -1.1796  1.9928
10031TIP3   OH251583   1.062   3.899  12.369 -0.1378  0.1734  0.3753
10031TIP3    H151584   1.060   3.866  12.279 -1.2104  1.1614  0.0187
10031TIP3    H251585   1.009   3.837  12.418 -0.8603  0.4944  0.0116
10032TIP3   OH251586   5.127   2.784  14.401 -0.4686 -0.3269  0.6093
10032TIP3    H151587   5.162   2.869  14.427  0.7836 -0.5673 -0.2484
10032TIP3    H251588   5.035   2.803  14.378  0.1167  1.0616 -0.8013
10033TIP3   OH251589   0.355   4.510   2.729 -0.6163  0.0919 -0.9967
10033TIP3    H151590   0.276   4.470   2.764 -1.1742  1.8932 -0.0787
10033TIP3    H251591   0.326   4.591   2.688  0.7255  0.7167 -0.7822
10034TIP3   OH251592   6.739   5.943   1.780  0.0107 -0.6553  0.1838
10034TIP3    H151593   6.652   5.952   1.739 -0.8568 -1.0727  1.8582
10034TIP3    H251594   6.786   5.883   1.722 -0.8339 -0.4986 -0.6998
10035TIP3   OH251595   5.902   6.334  14.831  0.3051 -0.4209  0.3976
10035TIP3    H151596   5.943   6.273  14.769 -0.7648  0.2456 -1.0189
10035TIP3    H251597   5.975   6.385  14.866  0.9883 -1.1695  0.0986
10036TIP3   OH251598   3.410   2.118   2.612 -0.4681  0.1720  0.5003
10036TIP3    H151599   3.343   2.103   2.545 -0.2410 -1.0478  0.5379
10036TIP3    H251600   3.374   2.190   2.665 -0.8717  0.8224 -0.6195
10037TIP3   OH251601   5.485   2.491   0.565  0.0610 -0.5218  0.2668
10037TIP3    H151602   5.402   2.518   0.525  0.1199  1.4834  1.3732
10037TIP3    H251603   5.477   2.396   0.574  0.1216 -1.2616 -4.5460
10038TIP3   OH251604   4.155   3.189   2.579 -0.3564  0.2510 -0.0960
10038TIP3    H151605   4.238   3.235   2.573  1.8775 -3.5671 -2.0783
10038TIP3    H251606   4.160   3.139   2.660 -1.3721  0.9771  0.4436
10039TIP3   OH251607   4.279   4.250  13.045 -0.6643  0.2341  0.4999
10039TIP3    H151608   4.286   4.249  13.140 -2.0966 -0.6039  0.6320
10039TIP3    H251609   4.367   4.231  13.014  0.0952  1.7308  1.6096
10040TIP3   OH251610   5.736   1.577  16.026  0.3370  0.1286 -0.2092
10040TIP3    H151611   5.753   1.651  16.084 -0.7545  0.0758  0.1912
10040TIP3    H251612   5.805   1.584  15.959  0.7328  1.0339  0.2657
10041TIP3   OH251613   3.013   2.742  12.904 -0.4762  0.7917  0.4331
10041TIP3    H151614   3.083   2.761  12.967  0.6107  1.4134 -0.9057
10041TIP3    H251615   3.003   2.822  12.853  1.1563 -0.6786 -2.4719
10042TIP3   OH251616   6.093   2.699   3.677 -0.5102  0.0424 -0.1008
10042TIP3    H151617   6.016   2.755   3.687  0.0469  0.6973  0.6968
10042TIP3    H251618   6.140   2.736   3.602 -0.6341  0.0472 -0.1764
10043TIP3   OH251619   0.219   2.169   0.682 -0.1538 -0.5829 -0.0094
10043TIP3    H151620   0.268   2.183   0.763 -2.3270 -2.0468  1.6979
10043TIP3    H251621   0.189   2.256   0.656  1.2965  0.0128  0.2284
10044TIP3   OH251622   5.775   1.884   2.908  0.1672 -0.7007  0.1644
10044TIP3    H151623   5.736   1.971   2.907  1.1126 -0.2486  1.0778
10044TIP3    H251624   5.867   1.898   2.889  1.5575 -0.7596  5.2995
10045TIP3   OH251625   2.305   0.717   4.610 -0.3745  0.1779 -0.1207
10045TIP3    H151626   2.312   0.689   4.519 -0.5840  0.2112 -0.1482
10045TIP3    H251627   2.284   0.811   4.604 -2.6259 -0.2700 -0.0845
10046TIP3   OH251628   6.512   1.676   3.005  0.4107 -0.0334  0.1528
10046TIP3    H151629   6.484   1.704   3.092  0.5075 -1.8899  0.8074
10046TIP3    H251630   6.592   1.626   3.020  2.1679  2.1145 -1.3408
10047TIP3   OH251631   0.958   0.908  12.819  0.0217  0.6726  0.2190
10047TIP3    H151632   0.915   0.850  12.882 -0.0810 -2.7393 -2.6594
10047TIP3    H251633   0.892   0.975  12.799 -1.4866 -0.6116  0.7172
10048TIP3   OH251634   5.180   4.871   5.725 -0.7131 -0.6201 -0.5865
10048TIP3    H151635   5.147   4.912   5.645 -0.9191  2.3205  0.8498
10048TIP3    H251636   5.113   4.890   5.790  1.0087  0.2037  1.0356
10049TIP3   OH251637   1.685   3.844   0.959 -0.0536  0.5181  0.2090
10049TIP3    H151638   1.708   3.930   0.923  1.7023 -0.4833 -1.2309
10049TIP3    H251639   1.767   3.810   0.995 -0.4030 -1.0757 -0.4048
10050TIP3   OH251640   4.525   6.349  15.354  0.6072  0.7484  0.5453
10050TIP3    H151641   4.604   6.400  15.372  0.7660  0.6341  0.1746
10050TIP3    H251642   4.529   6.277  15.417  0.8532  0.6866  0.4614
10051TIP3   OH251643   2.147   0.613  10.218 -1.3900  0.3684  0.3456
10051TIP3    H151644   2.058   0.605  10.251 -0.5309 -1.0038  2.5433
10051TIP3    H251645   2.173   0.524  10.197 -0.2012  0.6102  0.7195
10052TIP3   OH251646   2.532   6.010  15.121 -0.3796 -0.1986 -0.0332
10052TIP3    H151647   2.571   5.942  15.176 -0.2554 -0.1128 -0.0175
10052TIP3    H251648   2.455   6.039  15.171  0.5461  0.9286  0.8090
10053TIP3   OH251649   3.546   4.317  13.432 -0.3637 -0.1260 -0.5584
10053TIP3    H151650   3.628   4.327  13.481  0.0616 -1.1785 -1.0322
10053TIP3    H251651   3.477   4.329  13.497  0.1161  2.0505 -0.3753
10054TIP3   OH251652   6.483   0.372  16.497  0.2362 -0.0439  0.6425
10054TIP3    H151653   6.426   0.442  16.468  0.9156  0.8465  1.4184
10054TIP3    H251654   6.445   0.341  16.579 -0.1880 -0.7595  0.1937
10055TIP3   OH251655   1.332   0.309   5.478  0.0042 -0.6331  0.6062
10055TIP3    H151656   1.368   0.225   5.451  0.5759  0.0741 -0.9914
10055TIP3    H251657   1.408   0.360   5.505  0.0316  0.2514 -1.0279
10056TIP3   OH251658   3.575   0.531   2.441 -0.3285 -0.3050  0.0018
10056TIP3    H151659   3.558   0.456   2.498 -0.0832  0.4958  1.1714
10056TIP3    H251660   3.627   0.495   2.369  0.0265 -1.2116  0.6910
10057TIP3   OH251661   2.200   5.884  14.718  0.4705  0.5115 -0.7944
10057TIP3    H151662   2.186   5.955  14.655 -1.4831  0.9570  0.0727
10057TIP3    H251663   2.135   5.899  14.786 -0.4867 -2.5006 -0.9111
10058TIP3   OH251664   4.691   5.583   2.379  0.8160 -0.1403 -0.0551
10058TIP3    H151665   4.716   5.496   2.411  0.7037 -0.2679 -0.3159
10058TIP3    H251666   4.631   5.566   2.307 -0.9028  0.1511  1.2252
10059TIP3   OH251667   4.252   1.608  15.197  0.0862  0.3822  0.1116
10059TIP3    H151668   4.206   1.689  15.221 -0.5991  0.5190 -1.5727
10059TIP3    H251669   4.193   1.538  15.227  1.2029  0.4026  2.6362
10060TIP3   OH251670   3.150   3.554  15.050 -0.2587  0.2083  0.3297
10060TIP3    H151671   3.079   3.505  15.007  0.6095 -0.5605 -0.2826
10060TIP3    H251672   3.195   3.599  14.978  0.2293  0.2089  0.6290
10061TIP3   OH251673   1.664   4.942  12.454  0.1768 -0.0184 -0.2437
10061TIP3    H151674   1.651   5.028  12.413 -2.2091 -0.7768 -1.2209
10061TIP3    H251675   1.741   4.905  12.410  0.6926  1.2266 -0.4359
10062TIP3   OH251676   1.072   3.712  10.842  0.2810  0.3517 -0.1797
10062TIP3    H151677   1.155   3.742  10.879  0.1029 -1.3013  1.7636
10062TIP3    H251678   1.008   3.775  10.872  0.3174 -0.3675  1.5392
10063TIP3   OH251679   2.415   3.556  11.202 -0.0361  0.2309 -0.0279
10063TIP3    H151680   2.358   3.500  11.255  1.6387 -1.5873 -0.0472
10063TIP3    H251681   2.370   3.562  11.118 -1.0199  0.2642  0.4819
10064TIP3   OH251682   0.476   0.587   3.241 -0.1898 -0.1064  0.1926
10064TIP3    H151683   0.525   0.560   3.164 -2.3297  0.0575 -1.2954
10064TIP3    H251684   0.504   0.677   3.257 -1.9638  0.9890 -2.3657
10065TIP3   OH251685   5.184   0.015  11.226 -0.5610 -0.1878 -0.3100
10065TIP3    H151686   5.219   0.061  11.149 -1.1392  0.2567 -0.3074
10065TIP3    H251687   5.260  -0.031  11.262  0.0875  0.9939 -0.1462
10066TIP3   OH251688   1.532   1.693  12.995 -0.4550  0.2166 -0.7879
10066TIP3    H151689   1.575   1.726  12.916 -0.7676 -0.0023 -1.0504
10066TIP3    H251690   1.539   1.765  13.058  1.1611 -0.1538 -0.4930
10067TIP3   OH251691   6.722   2.917  11.599 -0.2708 -0.0914 -0.1461
10067TIP3    H151692   6.770   2.889  11.521  0.8711  0.9534  0.1689
10067TIP3    H251693   6.775   2.987  11.637 -0.5239 -0.9376  1.8828
10068TIP3   OH251694   3.541   4.103   4.011 -0.0562 -0.3954 -0.2675
10068TIP3    H151695   3.494   4.150   3.942  0.7139  0.2290 -0.3844
10068TIP3    H251696   3.490   4.024   4.025  0.4294 -1.1466 -2.3948
10069TIP3   OH251697   3.082   5.432   0.814  0.2652 -0.0535 -0.0792
10069TIP3    H151698   3.080   5.473   0.900  0.9148 -0.8259  0.3256
10069TIP3    H251699   3.156   5.371   0.819  0.1533 -0.2874 -1.0993
10070TIP3   OH251700   3.195   3.761   5.143  0.5000 -0.4921  0.3661
10070TIP3    H151701   3.287   3.762   5.170  0.2761  0.4821  1.1535
10070TIP3    H251702   3.175   3.669   5.127  2.0110 -0.6009 -1.2706
10071TIP3   OH251703   1.397   6.437   3.531  0.0378 -0.0952  0.4754
10071TIP3    H151704   1.345   6.472   3.604  0.7762 -0.4699  1.1969
10071TIP3    H251705   1.356   6.352   3.511  0.2860 -0.3347  0.9612
10072TIP3   OH251706   4.541   0.108   3.536 -0.6312  0.5807  0.2075
10072TIP3    H151707   4.582   0.188   3.502  2.4578 -0.8975  0.1623
10072TIP3    H251708   4.537   0.122   3.631  1.8419  0.0883  0.4609
10073TIP3   OH251709   2.059   5.661   5.062  0.2676  0.5236  0.0416
10073TIP3    H151710   1.991   5.726   5.047 -1.1513 -1.2014 -1.5432
10073TIP3    H251711   2.078   5.667   5.155 -1.5852  1.5351  0.4019
10074TIP3   OH251712   5.070   3.726  14.920 -0.1418 -0.1686 -0.2762
10074TIP3    H151713   5.021   3.807  14.931  0.1977  0.6366 -3.6388
10074TIP3    H251714   5.008   3.666  14.879  0.6154 -0.4013 -1.0988
10075TIP3   OH251715   0.628   6.644  11.032 -0.0239  0.3235 -0.6719
10075TIP3    H151716   0.544   6.689  11.021 -0.5587 -0.2632  0.6961
10075TIP3    H251717   0.618   6.562  10.984  0.6458  1.2384 -2.4579
10076TIP3   OH251718   6.560   6.374  17.064 -0.2258  0.7203  0.3841
10076TIP3    H151719   6.578   6.429  16.988  1.3534 -0.1149  0.1035
10076TIP3    H251720   6.465   6.375  17.073 -0.3338  2.1990 -0.5617
10077TIP3   OH251721   5.785   1.336   4.396 -0.3680  0.0287  0.2691
10077TIP3    H151722   5.803   1.429   4.401 -1.3615  0.1960  1.2163
10077TIP3    H251723   5.871   1.294   4.401  0.1236  0.8962 -0.6858
10078TIP3   OH251724   0.675   2.172   4.696  0.1368  0.1615  0.5862
10078TIP3    H151725   0.739   2.227   4.739 -0.8217 -0.0678  2.3929
10078TIP3    H251726   0.605   2.232   4.669  0.2988  0.1722  0.1763
10079TIP3   OH251727   1.567   1.056  15.049  0.2668 -0.0978  0.5227
10079TIP3    H151728   1.563   1.076  15.143  2.9275 -1.9412  1.1354
10079TIP3    H251729   1.599   1.137  15.009 -1.2784  0.8431  1.0627
10080TIP3   OH251730   6.817   4.077   5.157 -0.0446  0.2214  0.4497
10080TIP3    H151731   6.906   4.105   5.179 -0.1772  2.3671 -1.4015
10080TIP3    H251732   6.760   4.132   5.210 -0.2860 -0.1722  0.6006
10081TIP3   OH251733   1.571   2.292   1.583  0.1028  0.1946  0.8639
10081TIP3    H151734   1.575   2.264   1.675 -0.1496 -0.0008  0.8179
10081TIP3    H251735   1.533   2.216   1.538  1.9896 -0.4620  0.2894
10082TIP3   OH251736   6.073   4.351  15.319 -0.5523  0.0482 -0.2838
10082TIP3    H151737   5.984   4.340  15.289 -0.6696  1.4244 -0.5306
10082TIP3    H251738   6.066   4.355  15.415 -1.1524  2.6688 -0.3531
10083TIP3   OH251739   1.278   4.089   4.994  0.3526  0.1010  0.3333
10083TIP3    H151740   1.345   4.158   4.994 -0.0032  0.4593 -0.5455
10083TIP3    H251741   1.322   4.013   5.031  0.3098  1.2054  2.8925
10084TIP3   OH251742   5.244   5.846   3.927  0.4555  0.1773 -0.3435
10084TIP3    H151743   5.243   5.938   3.952  0.8638  0.1530 -0.2361
10084TIP3    H251744   5.300   5.804   3.991  0.2313 -0.1575 -0.3633
10085TIP3   OH251745   3.823   4.420   5.450 -1.0371 -0.2357  0.3892
10085TIP3    H151746   3.877   4.446   5.524  0.3937 -0.6889 -0.4497
10085TIP3    H251747   3.852   4.331   5.429 -1.4678 -0.1512 -0.6600
10086TIP3   OH251748   0.180   0.267  12.899 -0.1955 -0.5412 -0.2456
10086TIP3    H151749   0.142   0.353  12.917  1.7708  0.4628 -0.6104
10086TIP3    H251750   0.160   0.250  12.807 -0.1090 -0.2093 -0.3259
10087TIP3   OH251751   6.294   2.835   4.199  0.2572  0.1413  0.4223
10087TIP3    H151752   6.258   2.771   4.137  2.1325 -0.6683  0.1258
10087TIP3    H251753   6.219   2.890   4.222 -1.1089 -1.3248 -0.3424
10088TIP3   OH251754   6.062   5.485  16.151  0.0557 -0.4150  0.2602
10088TIP3    H151755   6.047   5.564  16.203 -0.0708 -0.6645  0.6098
10088TIP3    H251756   6.000   5.421  16.187  0.7040 -0.9110  0.5108
10089TIP3   OH251757   4.572   1.044   0.475 -0.5742 -0.3417  0.4902
10089TIP3    H151758   4.618   1.008   0.551 -1.0198 -1.5483  0.1944
10089TIP3    H251759   4.489   1.076   0.510  0.0758  1.0353  0.8647
10090TIP3   OH251760   6.412   1.881  16.878  0.2527 -0.0163  0.1238
10090TIP3    H151761   6.472   1.808  16.896 -0.1602 -0.7625 -1.3801
10090TIP3    H251762   6.450   1.956  16.924  1.3521 -0.8934  0.6759
10091TIP3   OH251763   4.062   4.657  13.951 -0.4747 -0.2652  0.1361
10091TIP3    H151764   3.997   4.655  13.881  0.4979  0.7771 -0.8401
10091TIP3    H251765   4.016   4.621  14.027 -1.0439 -3.0622 -1.4056
10092TIP3   OH251766   6.116   0.844   3.297  0.3506 -0.2348  0.2094
10092TIP3    H151767   6.068   0.762   3.297  0.7364 -0.4828  1.5494
10092TIP3    H251768   6.208   0.819   3.311  0.5414  0.3791  0.1195
10093TIP3   OH251769   2.324   2.340   6.233 -0.3781  0.1857  0.2313
10093TIP3    H151770   2.321   2.291   6.151 -1.5795  0.7054 -0.0530
10093TIP3    H251771   2.253   2.303   6.286  1.1029 -0.9678  1.5590
10094TIP3   OH251772   1.459   4.509   0.372  0.2212  0.3821 -0.2221
10094TIP3    H151773   1.390   4.551   0.319 -0.9759 -0.2577  0.7732
10094TIP3    H251774   1.494   4.441   0.315 -1.0943 -0.3379 -0.2158
10095TIP3   OH251775   6.178   3.386  13.665  0.7536 -0.8494  0.3044
10095TIP3    H151776   6.257   3.384  13.612  0.7667  0.3478  0.2549
10095TIP3    H251777   6.106   3.389  13.602  0.7832  1.0709  0.3025
10096TIP3   OH251778   6.659   3.725  17.073 -0.4640 -0.1843  0.1959
10096TIP3    H151779   6.598   3.699  17.142 -0.3461  0.5501  0.5863
10096TIP3    H251780   6.716   3.790  17.114  0.5036 -0.7577 -0.2054
10097TIP3   OH251781   4.981   4.572   5.112  0.0258  0.1251  0.6780
10097TIP3    H151782   5.043   4.504   5.139  1.0339  0.8721  0.2823
10097TIP3    H251783   4.903   4.555   5.164  0.0813 -1.6299  0.2463
10098TIP3   OH251784   1.083   3.092  13.799  0.2146  0.2996  0.1501
10098TIP3    H151785   1.095   2.997  13.797  1.1731  0.4207 -1.0298
10098TIP3    H251786   1.064   3.112  13.890 -0.0567 -1.0266  0.4082
10099TIP3   OH251787   5.863   1.787  12.202 -0.1307  0.5364  0.2318
10099TIP3    H151788   5.863   1.818  12.293 -1.2407 -1.0297  0.7949
10099TIP3    H251789   5.914   1.706  12.205  0.9703  1.1653 -0.8211
10100TIP3   OH251790   6.072   5.327  15.770 -0.5627 -0.1805 -0.4148
10100TIP3    H151791   6.081   5.364  15.683  1.6026 -1.1979 -0.6820
10100TIP3    H251792   6.021   5.248  15.757  0.0517 -0.5159 -0.8349
10101TIP3   OH251793   2.051   0.327  16.476 -0.0812 -0.3065  0.0323
10101TIP3    H151794   2.048   0.286  16.390  2.0677 -0.5944  0.0185
10101TIP3    H251795   2.092   0.412  16.461  0.0253 -0.2260  0.7050
10102TIP3   OH251796   2.190   0.902  15.041  0.5036  0.4707 -0.4617
10102TIP3    H151797   2.216   0.948  14.962 -0.3032  0.2127 -0.8923
10102TIP3    H251798   2.142   0.825  15.010 -0.8941  1.0015  0.2706
10103TIP3   OH251799   0.146   1.433  12.542 -0.4689 -0.4107 -0.4062
10103TIP3    H151800   0.121   1.366  12.478  0.8451  0.3102 -1.7164
10103TIP3    H251801   0.242   1.430  12.544 -0.4458  0.4650  0.5873
10104TIP3   OH251802   0.084   2.078  11.692 -0.5937  0.4364  0.5884
10104TIP3    H151803   0.043   2.161  11.669 -1.4418  0.1521  1.0213
10104TIP3    H251804   0.178   2.097  11.696 -0.4966  0.7536 -1.9247
10105TIP3   OH251805   6.656   5.348   5.632 -0.8666  0.0489  0.1094
10105TIP3    H151806   6.562   5.350   5.616 -0.6718  0.1003 -1.0786
10105TIP3    H251807   6.691   5.417   5.577 -0.2060  0.5411  1.1245
10106TIP3   OH251808   1.464   6.539  12.219 -0.0038 -0.5449 -0.1400
10106TIP3    H151809   1.554   6.525  12.191  1.0321  1.5785  1.7721
10106TIP3    H251810   1.456   6.490  12.300  0.6568  1.9091  1.5403
10107TIP3   OH251811   3.716   3.788   1.248 -0.0755 -0.2118  0.0759
10107TIP3    H151812   3.767   3.856   1.203 -1.7367  0.6016 -0.6878
10107TIP3    H251813   3.680   3.735   1.177  0.7557 -1.5921  0.6533
10108TIP3   OH251814   0.341   2.461  15.814  0.3004 -0.0107  0.2599
10108TIP3    H151815   0.405   2.417  15.871 -0.4759 -0.5994  0.6886
10108TIP3    H251816   0.271   2.398  15.803 -1.4446  1.5054  1.9110
10109TIP3   OH251817   3.588   6.426   2.049  0.8996  0.0753 -0.6556
10109TIP3    H151818   3.613   6.355   2.107  0.6330 -0.6323 -1.3827
10109TIP3    H251819   3.656   6.492   2.059  0.9097 -0.0828  0.3662
10110TIP3   OH251820   1.622   2.721  14.028 -0.0927 -0.1242  0.0684
10110TIP3    H151821   1.623   2.803  14.079  0.4646 -0.0588 -0.0435
10110TIP3    H251822   1.665   2.657  14.085 -0.7913 -0.4154  0.2749
10111TIP3   OH251823   5.358   4.121  15.122 -0.5806  0.3828  0.2648
10111TIP3    H151824   5.328   4.044  15.074  1.4963  0.1196 -0.7165
10111TIP3    H251825   5.424   4.161  15.065 -1.7689  3.0696  0.6291
10112TIP3   OH251826   4.461   6.360  11.846  0.4206  0.4143  0.2560
10112TIP3    H151827   4.405   6.405  11.910 -0.1868  0.0582 -0.0151
10112TIP3    H251828   4.464   6.420  11.771  2.5077  1.6186  1.2169
10113TIP3   OH251829   0.998   6.028  16.428 -0.6390  0.0163  0.7801
10113TIP3    H151830   1.091   6.044  16.412 -0.8821  0.1559 -0.6546
10113TIP3    H251831   0.960   6.115  16.442 -0.5420 -0.0487  1.4610
10114TIP3   OH251832   0.548   4.753  11.066  0.1496  0.1229  0.2069
10114TIP3    H151833   0.624   4.721  11.114  1.6402  1.9368 -0.7931
10114TIP3    H251834   0.473   4.708  11.106  1.5077 -0.1054  2.6974
10115TIP3   OH251835   6.444   1.803   0.418 -0.6174 -0.0480 -0.0727
10115TIP3    H151836   6.398   1.882   0.448  0.8474  1.2769 -1.1331
10115TIP3    H251837   6.454   1.816   0.324 -0.1026 -1.3922 -0.2236
10116TIP3   OH251838   4.013   0.381  16.891 -0.4362 -0.8045  0.2542
10116TIP3    H151839   3.964   0.306  16.925 -1.3347 -1.2933 -1.9731
10116TIP3    H251840   4.020   0.365  16.797  0.4398  1.3019 -0.0958
10117TIP3   OH251841   5.101   2.422   6.557 -0.2322  0.0100  0.4009
10117TIP3    H151842   5.016   2.420   6.601 -1.2120  1.0134 -1.3307
10117TIP3    H251843   5.165   2.423   6.628 -1.7054  0.6480  1.7804
10118TIP3   OH251844   5.547   2.364  13.883  0.5440  0.0775  0.4533
10118TIP3    H151845   5.563   2.424  13.955  0.7660  1.9557 -1.0660
10118TIP3    H251846   5.632   2.322  13.866  0.6321  0.0893  0.8755
10119TIP3   OH251847   4.589   3.314   1.139  0.0967 -0.4248 -0.4653
10119TIP3    H151848   4.646   3.241   1.164  0.7417 -0.0165 -0.6891
10119TIP3    H251849   4.542   3.337   1.218 -0.0888 -1.0641 -0.3859
10120TIP3   OH251850   6.670   0.527  13.189 -1.0558  0.4152 -0.0925
10120TIP3    H151851   6.702   0.536  13.279  0.6447  1.2589 -0.7399
10120TIP3    H251852   6.625   0.610  13.172 -1.5280  0.1861  0.0290
10121TIP3   OH251853   1.357   3.872  16.692  0.3437 -0.1257 -0.2683
10121TIP3    H151854   1.389   3.788  16.724 -1.9998 -1.0126 -0.0821
10121TIP3    H251855   1.298   3.849  16.620 -0.7275  1.3046  0.1160
10122TIP3   OH251856   4.998   3.571   1.373  0.0401 -0.3518  0.4351
10122TIP3    H151857   5.002   3.623   1.453  0.9343  0.1893  0.0589
10122TIP3    H251858   4.913   3.527   1.377 -0.2865  0.3243  1.2711
10123TIP3   OH251859   2.433   2.272  13.421  0.1862  0.2331  0.0215
10123TIP3    H151860   2.445   2.321  13.502  0.3202 -0.4612  0.4204
10123TIP3    H251861   2.490   2.317  13.358 -1.3474  1.9612 -0.2276
10124TIP3   OH251862   3.055   3.325  12.584  0.1263  0.5567 -0.5938
10124TIP3    H151863   3.073   3.237  12.617 -1.6864  1.1773  2.4952
10124TIP3    H251864   3.140   3.368  12.582  0.8813 -0.8876 -1.0695
10125TIP3   OH251865   0.825   1.902   3.614  0.0639  0.4440 -1.0199
10125TIP3    H151866   0.804   1.979   3.667 -0.1330  0.1918 -0.7230
10125TIP3    H251867   0.806   1.928   3.524 -1.1227  0.3702 -0.8089
10126TIP3   OH251868   1.923   5.251   5.889 -0.4067 -0.1215 -0.0791
10126TIP3    H151869   1.969   5.178   5.848  1.7263  0.2217  1.5246
10126TIP3    H251870   1.871   5.212   5.958  0.8964 -0.1797  0.9170
10127TIP3   OH251871   5.812   3.888  14.571 -0.0634  0.7079 -0.2561
10127TIP3    H151872   5.789   3.926  14.655 -0.3033 -4.1893  2.2189
10127TIP3    H251873   5.907   3.880  14.573  0.2180  2.7577 -1.6942
10128TIP3   OH251874   1.240   1.023  17.095  0.5231 -0.0339 -0.4284
10128TIP3    H151875   1.235   0.931  17.069  0.4470 -0.6216  1.5338
10128TIP3    H251876   1.319   1.028  17.149  0.9861  1.2604 -1.1828
10129TIP3   OH251877   5.098   4.182  16.003  0.4153 -0.2333  0.1276
10129TIP3    H151878   5.191   4.162  15.999  0.4382 -0.4453  1.2845
10129TIP3    H251879   5.082   4.241  15.929  1.9182  1.5842  1.1765
10130TIP3   OH251880   4.580   3.741  16.864 -0.5382  0.2084  0.1028
10130TIP3    H151881   4.674   3.745  16.880 -0.6000 -0.3417  0.6219
10130TIP3    H251882   4.572   3.723  16.770 -0.1434  1.0782 -0.1059
10131TIP3   OH251883   4.691   1.396  15.531  0.4014  0.3676 -0.4913
10131TIP3    H151884   4.755   1.327  15.514  0.1185  0.1153 -0.5248
10131TIP3    H251885   4.607   1.360  15.504  0.3040  0.8667 -0.8785
10132TIP3   OH251886   4.795   0.355   5.827  0.0351  0.3324 -0.0244
10132TIP3    H151887   4.757   0.275   5.864 -0.9874 -0.2916 -2.2405
10132TIP3    H251888   4.890   0.344   5.837 -0.1173 -0.9457  0.1319
10133TIP3   OH251889   3.437   4.743  16.260 -0.1393 -0.3368  0.0964
10133TIP3    H151890   3.453   4.649  16.268  0.8723 -0.2793 -0.9640
10133TIP3    H251891   3.351   4.748  16.218  0.8338 -0.8820 -2.0956
10134TIP3   OH251892   2.261   1.889   1.209  0.7522 -0.7651  0.4058
10134TIP3    H151893   2.320   1.897   1.283  0.2967  0.8196  0.6301
10134TIP3    H251894   2.225   1.801   1.216 -0.0340 -0.3358  2.6556
10135TIP3   OH251895   2.944   6.342  17.057 -0.0896  0.2098  0.5031
10135TIP3    H151896   2.937   6.280  16.985  0.3699  2.0237 -1.1940
10135TIP3    H251897   2.939   6.288  17.136 -1.2262 -1.7869 -0.8514
10136TIP3   OH251898   0.680   5.219   1.971 -0.4844 -0.0529  0.5544
10136TIP3    H151899   0.671   5.305   1.929 -1.1453 -0.1362  0.5252
10136TIP3    H251900   0.596   5.176   1.957 -0.0501 -0.8273  0.3087
10137TIP3   OH251901   4.607   3.145  16.682 -0.1741  0.0470  0.5462
10137TIP3    H151902   4.549   3.173  16.753 -1.4821  0.6810 -0.7104
10137TIP3    H251903   4.553   3.088  16.627  0.6410 -0.0188 -0.2191
10138TIP3   OH251904   2.333   3.413   4.359  0.1962 -0.2676  0.0678
10138TIP3    H151905   2.396   3.376   4.296  1.8545  1.6635  0.4739
10138TIP3    H251906   2.248   3.401   4.318  1.1804  0.4602 -2.3543
10139TIP3   OH251907   4.896   6.485   0.052 -0.8333  0.0668 -0.4538
10139TIP3    H151908   4.979   6.494   0.004 -0.8007 -0.1298 -0.4360
10139TIP3    H251909   4.913   6.524   0.137 -0.5030 -0.7163 -0.1552
10140TIP3   OH251910   3.827   1.625   4.226  0.5675 -0.2770 -0.6993
10140TIP3    H151911   3.886   1.621   4.151 -0.0491  0.9809 -1.2955
10140TIP3    H251912   3.740   1.605   4.190 -0.2323  3.1143 -1.0127
10141TIP3   OH251913   6.487   0.038  15.680  0.0311 -0.4866  0.2240
10141TIP3    H151914   6.509   0.044  15.587  0.2031 -1.1511  0.2175
10141TIP3    H251915   6.519  -0.048  15.707  1.0705  0.1797  1.1933
10142TIP3   OH251916   5.666   6.584  13.171  0.4453 -0.5904 -0.5926
10142TIP3    H151917   5.582   6.550  13.139  0.1562 -0.7880  0.3548
10142TIP3    H251918   5.655   6.588  13.266  1.5049 -0.5893 -0.4676
10143TIP3   OH251919   1.722   2.104  16.577  0.0284  0.3151 -0.0870
10143TIP3    H151920   1.734   2.027  16.522  0.4504 -0.8846  1.5867
10143TIP3    H251921   1.628   2.110  16.591 -0.1680  1.1674 -1.6194
10144TIP3   OH251922   4.630   1.882  13.036 -0.3499 -0.2503 -0.0070
10144TIP3    H151923   4.724   1.893  13.029 -0.5486  0.1072 -3.0530
10144TIP3    H251924   4.616   1.788  13.032 -0.2268 -0.2479 -3.6199
10145TIP3   OH251925   5.593   3.099  11.022 -0.1556 -0.2119  0.0208
10145TIP3    H151926   5.593   3.166  11.090 -2.1709  0.4948 -0.6253
10145TIP3    H251927   5.554   3.141  10.946  2.2804 -0.9004 -1.7292
10146TIP3   OH251928   4.578   1.943   4.599 -0.6880  0.0827  0.3057
10146TIP3    H151929   4.550   2.019   4.549  0.2593  0.0328 -0.3334
10146TIP3    H251930   4.502   1.885   4.599 -1.4943  1.1008  0.9863
10147TIP3   OH251931   1.087   6.810  11.866  0.5561 -0.1111 -0.4592
10147TIP3    H151932   1.173   6.812  11.825  0.4790 -0.5565 -0.6443
10147TIP3    H251933   1.104   6.818  11.960  0.6758  2.2002 -0.6206
10148TIP3   OH251934   1.498   1.735  13.727  0.4073 -0.9052  0.1466
10148TIP3    H151935   1.479   1.829  13.722  0.0169 -0.7778  2.7703
10148TIP3    H251936   1.574   1.723  13.670 -0.5124  0.6840 -1.5027
10149TIP3   OH251937   4.293   1.886  12.634 -0.6292 -0.0908 -0.0239
10149TIP3    H151938   4.215   1.833  12.652 -1.1684  0.4231 -0.7503
10149TIP3    H251939   4.286   1.959  12.694 -0.2769 -0.4570  0.4668
10150TIP3   OH251940   1.670   2.543  10.774  0.2629  0.4964 -0.5570
10150TIP3    H151941   1.729   2.474  10.744 -0.6307 -0.6348  0.1927
10150TIP3    H251942   1.587   2.523  10.730 -0.2693  0.4929  0.4226
10151TIP3   OH251943   1.355   6.327   1.872 -0.1927 -0.2322 -0.3256
10151TIP3    H151944   1.306   6.292   1.947  1.1538 -0.3658  0.5309
10151TIP3    H251945   1.336   6.267   1.800  0.0308 -1.2293  0.4342
10152TIP3   OH251946   1.803   5.359  14.501  0.3660 -0.0973 -0.4546
10152TIP3    H151947   1.730   5.421  14.501 -0.8659 -1.4848  0.9308
10152TIP3    H251948   1.769   5.281  14.456  0.8508 -0.9077  0.5408
10153TIP3   OH251949   5.814   0.860  14.096 -0.1646  0.3990  0.0423
10153TIP3    H151950   5.722   0.872  14.119 -0.0304  1.8040 -0.1219
10153TIP3    H251951   5.859   0.936  14.133  0.5720  0.9909 -1.9461
10154TIP3   OH251952   5.619   0.576  17.051  0.0867 -0.0531  0.5536
10154TIP3    H151953   5.590   0.491  17.084  0.4317 -0.5705 -0.4737
10154TIP3    H251954   5.575   0.586  16.967  0.2873  0.6561  0.5257
10155TIP3   OH251955   3.121   1.120   0.880 -0.5169  0.1093 -0.4077
10155TIP3    H151956   3.113   1.215   0.894 -1.2527  0.1499 -1.0425
10155TIP3    H251957   3.213   1.101   0.901 -0.9547  0.5197  2.1411
10156TIP3   OH251958   2.798   2.555   2.081  0.7973 -0.2484  0.2586
10156TIP3    H151959   2.883   2.585   2.050  1.0039 -1.0462  0.0210
10156TIP3    H251960   2.805   2.553   2.176  0.1939  2.1293  0.4158
10157TIP3   OH251961   5.495   1.946  16.006 -0.4093 -0.1131 -0.4583
10157TIP3    H151962   5.500   1.951  15.911 -0.9869  0.9281 -0.4515
10157TIP3    H251963   5.431   1.877  16.024  1.1881 -1.7559 -0.7663
10158TIP3   OH251964   5.728   0.135   0.094 -0.2934  0.3455  0.7909
10158TIP3    H151965   5.780   0.146   0.174 -0.2971  0.7210  0.7432
10158TIP3    H251966   5.649   0.090   0.122  0.0027 -0.1238  0.8856
10159TIP3   OH251967   4.673   0.324  11.521  0.2088 -0.0504 -0.9122
10159TIP3    H151968   4.728   0.255  11.484  1.4695 -0.0125  0.7984
10159TIP3    H251969   4.681   0.397  11.459  2.0188 -0.0983 -0.7870
10160TIP3   OH251970   6.785   1.858   2.823 -0.0141  0.6555 -0.2982
10160TIP3    H151971   6.853   1.924   2.819 -1.1545  1.9201  0.3919
10160TIP3    H251972   6.707   1.901   2.790 -0.8290 -0.2964  0.3161
10161TIP3   OH251973   2.189   6.503   1.475  0.4634 -0.0002 -0.6417
10161TIP3    H151974   2.110   6.553   1.494  0.2668  0.0455 -1.5455
10161TIP3    H251975   2.193   6.499   1.380 -1.3575 -4.5310 -0.7613
10162TIP3   OH251976   5.023   0.512   0.893  0.6367  0.0508  0.2065
10162TIP3    H151977   4.978   0.583   0.847  0.6856  0.2364  0.4450
10162TIP3    H251978   4.955   0.448   0.912  0.4592  0.3570  0.6183
10163TIP3   OH251979   1.231   1.019   1.050 -0.0320  0.4890 -0.1525
10163TIP3    H151980   1.315   1.001   1.008  0.0593  1.3479 -0.3650
10163TIP3    H251981   1.202   1.101   1.010 -1.3600 -0.2091 -0.6706
10164TIP3   OH251982   2.114   4.370  13.008  0.2245 -0.0640  0.3760
10164TIP3    H151983   2.039   4.350  13.064  0.3246 -1.3943  0.0861
10164TIP3    H251984   2.098   4.318  12.929  0.6998  0.8278 -0.3209
10165TIP3   OH251985   1.850   5.991   4.664  0.5468  0.3293  0.3196
10165TIP3    H151986   1.798   5.927   4.615  0.6063 -0.0135  0.7047
10165TIP3    H251987   1.813   5.991   4.752  0.4204  0.9703  0.2706
10166TIP3   OH251988   6.349   6.021  15.875 -0.3770 -0.4106  0.0295
10166TIP3    H151989   6.423   5.962  15.861 -0.6573 -0.8678  0.4718
10166TIP3    H251990   6.278   5.985  15.823 -0.5144 -0.4034  0.2103
10167TIP3   OH251991   0.322   2.053   4.478 -0.6568 -0.5440  0.4438
10167TIP3    H151992   0.258   2.003   4.529 -1.2382 -1.4102 -1.0977
10167TIP3    H251993   0.405   2.007   4.492 -0.7833 -0.6913  0.7187
10168TIP3   OH251994   4.593   2.250  14.606  0.3351 -0.3926 -0.0574
10168TIP3    H151995   4.685   2.244  14.633  0.6316  0.8456 -0.6880
10168TIP3    H251996   4.591   2.205  14.521  0.8327  1.2188 -0.9917
10169TIP3   OH251997   3.947   3.291   2.799  0.1611  0.4197 -0.7452
10169TIP3    H151998   3.894   3.370   2.802 -1.1429 -0.4553  0.0837
10169TIP3    H251999   3.995   3.297   2.717 -0.6538  1.5962 -1.1516
10170TIP3   OH252000   5.712   0.536   5.577 -0.1782 -0.2350  0.7774
10170TIP3    H152001   5.699   0.442   5.561  1.3301 -0.0441 -2.1302
10170TIP3    H252002   5.805   0.550   5.563  0.0374  1.4138  3.2783
10171TIP3   OH252003   4.568   0.412  13.110 -0.9303  0.5646 -0.5068
10171TIP3    H152004   4.573   0.343  13.044 -0.6898  0.5560 -0.4828
10171TIP3    H252005   4.500   0.383  13.171  0.3066 -0.4695  0.4392
10172TIP3   OH252006   6.395   1.302   6.075  0.0935 -0.1344  0.3603
10172TIP3    H152007   6.325   1.292   6.139  0.3801  0.3575  0.7580
10172TIP3    H252008   6.435   1.386   6.096 -0.3976  0.4747 -1.0488
10173TIP3   OH252009   1.238   0.676   2.917 -0.3378 -0.1571  0.5457
10173TIP3    H152010   1.303   0.626   2.965  0.0909  1.2693  1.5008
10173TIP3    H252011   1.178   0.709   2.984 -0.9757  0.0814 -0.1246
10174TIP3   OH252012   1.668   5.267   5.280 -0.4202  0.0190  0.2397
10174TIP3    H152013   1.578   5.300   5.280 -0.2733  0.7912 -3.1048
10174TIP3    H252014   1.658   5.172   5.272 -0.8742 -0.0860  1.7351
10175TIP3   OH252015   5.658   5.426   2.012 -0.1925 -0.0496  0.4026
10175TIP3    H152016   5.748   5.396   2.002 -0.1277  0.2779 -0.0011
10175TIP3    H252017   5.606   5.363   1.962 -0.0739  0.4071 -0.3041
10176TIP3   OH252018   1.832   2.999  13.661  0.5683 -0.1802 -0.1553
10176TIP3    H152019   1.874   3.068  13.714 -0.3070  0.3884 -0.1736
10176TIP3    H252020   1.757   2.972  13.714 -1.1101  1.3266 -1.6351
10177TIP3   OH252021   1.783   0.646  12.907  0.2019  0.0313  0.7474
10177TIP3    H152022   1.866   0.676  12.870  0.6364 -0.6739  1.1307
10177TIP3    H252023   1.776   0.692  12.990  0.4052 -0.2155  0.9007
10178TIP3   OH252024   6.481   0.233  16.944 -0.2484  0.4788  0.4650
10178TIP3    H152025   6.491   0.312  16.890 -0.2155 -0.0717 -0.3563
10178TIP3    H252026   6.570   0.213  16.973 -0.0082 -0.1260 -0.6173
10179TIP3   OH252027   0.123   2.311  15.784 -0.1203 -0.2754 -0.0860
10179TIP3    H152028   0.114   2.299  15.690  1.6672  0.2890 -0.3605
10179TIP3    H252029   0.082   2.233  15.822 -0.3483 -0.7892 -1.3292
10180TIP3   OH252030   1.264   3.117   0.987  0.3889  0.4198 -0.0921
10180TIP3    H152031   1.247   3.025   0.970 -0.2577  0.7683 -1.4590
10180TIP3    H252032   1.360   3.123   0.992  0.4518 -0.8045  3.2392
10181TIP3   OH252033   4.794   6.432   5.130  0.2630 -0.0425 -0.4103
10181TIP3    H152034   4.713   6.412   5.176  0.0704  1.9030  0.1999
10181TIP3    H252035   4.766   6.476   5.050  0.6928 -1.0251 -1.1294
10182TIP3   OH252036   4.855   6.633   0.607 -0.5805 -0.5148 -0.1965
10182TIP3    H152037   4.864   6.585   0.689 -1.7897 -0.9153 -0.2814
10182TIP3    H252038   4.888   6.573   0.540 -1.5854 -1.0248 -0.2408
10183TIP3   OH252039   5.157   3.339  16.317 -0.6537 -0.2626 -0.7251
10183TIP3    H152040   5.239   3.375  16.283  0.0194 -2.1503 -1.2395
10183TIP3    H252041   5.092   3.358  16.249 -0.3627  0.0960 -0.9097
10184TIP3   OH252042   1.399   0.185  15.712 -0.3729 -0.7074 -0.0540
10184TIP3    H152043   1.459   0.134  15.659 -0.7177 -1.0807 -0.0878
10184TIP3    H252044   1.334   0.219  15.650  0.2493  0.3578 -0.1404
10185TIP3   OH252045   3.343   4.941  15.962  0.9646  0.0118  0.1415
10185TIP3    H152046   3.325   4.988  15.880  0.8699 -0.2633  0.0017
10185TIP3    H252047   3.434   4.914  15.954  1.5000  1.4597  0.8741
10186TIP3   OH252048   3.618   6.617  14.453  0.0319 -0.3950  0.3265
10186TIP3    H152049   3.529   6.650  14.467  0.3692  1.3628 -1.2440
10186TIP3    H252050   3.630   6.552  14.521 -2.4422 -0.6521  0.6255
10187TIP3   OH252051   6.044   3.097  13.759  0.0047  0.3561  0.3024
10187TIP3    H152052   5.960   3.137  13.737  0.9229  1.8458 -0.6058
10187TIP3    H252053   6.096   3.168  13.796  1.4352 -0.1223 -0.7122
10188TIP3   OH252054   0.672   4.115   6.036  0.2894 -0.2373 -0.2173
10188TIP3    H152055   0.697   4.122   5.944  0.1691  0.3680 -0.2093
10188TIP3    H252056   0.581   4.142   6.038  0.1325 -0.7668  0.0069
10189TIP3   OH252057   1.003   1.996  15.646 -0.1746 -0.3918 -0.4667
10189TIP3    H152058   1.013   2.063  15.714 -0.1117 -0.4845 -0.3860
10189TIP3    H252059   0.942   2.036  15.583 -1.2962 -0.8259  0.3061
10190TIP3   OH252060   5.881   1.156   3.058 -0.2475 -0.0881  0.5730
10190TIP3    H152061   5.973   1.151   3.086  0.0382 -2.4071 -0.5273
10190TIP3    H252062   5.835   1.189   3.135  1.1701 -1.4202  2.0816
10191TIP3   OH252063   0.175   6.167   5.855  0.0835  0.4107 -0.3277
10191TIP3    H152064   0.148   6.153   5.764 -2.0146  0.4270  0.2425
10191TIP3    H252065   0.169   6.081   5.896 -2.1572  0.9143  0.5307
10192TIP3   OH252066   0.807   5.563  16.255 -0.3406 -0.7805 -0.1243
10192TIP3    H152067   0.797   5.529  16.166  0.3523  0.0553 -0.5414
10192TIP3    H252068   0.829   5.486  16.308 -0.1883 -1.2005 -0.7813
10193TIP3   OH252069   5.483   2.556  13.177  0.4509  0.0525  0.1371
10193TIP3    H152070   5.408   2.551  13.119 -0.1739 -0.6456  0.9714
10193TIP3    H252071   5.554   2.515  13.128  0.7726  2.1705 -1.3166
10194TIP3   OH252072   3.255   3.881   3.075 -0.6407  0.5372  0.5986
10194TIP3    H152073   3.205   3.928   3.008  0.8900  1.8950  0.3398
10194TIP3    H252074   3.265   3.944   3.146  0.0387  0.0307  0.9615
10195TIP3   OH252075   5.496   1.609  15.865 -0.9986  0.5094  0.0018
10195TIP3    H152076   5.551   1.633  15.940  0.0845 -0.7690 -0.3590
10195TIP3    H252077   5.422   1.670  15.870 -0.0091  1.6846  1.0141
10196TIP3   OH252078   3.129   0.261  11.106 -0.1272 -0.0396  0.0114
10196TIP3    H152079   3.209   0.313  11.103  0.0101 -0.2981 -1.3255
10196TIP3    H252080   3.059   0.325  11.118  0.2602  0.1794  1.2978
10197TIP3   OH252081   5.911   2.796  16.159 -0.0622  0.1711  0.4338
10197TIP3    H152082   5.847   2.827  16.223 -0.1545  0.3452  0.2588
10197TIP3    H252083   5.975   2.868  16.153  0.4754 -0.2440  1.0502
10198TIP3   OH252084   4.933   1.232   5.167 -0.4615  0.5687  0.5216
10198TIP3    H152085   4.939   1.325   5.146 -2.5913  0.2256 -2.1506
10198TIP3    H252086   4.923   1.230   5.262  0.2710  3.0017  0.7176
10199TIP3   OH252087   5.852   1.889   1.460  0.0808  0.4890  0.0773
10199TIP3    H152088   5.845   1.985   1.462  1.6720  0.6815 -1.2822
10199TIP3    H252089   5.773   1.859   1.415 -1.5174  0.9498  2.4060
10200TIP3   OH252090   1.823   3.039  15.198 -0.1689  0.2187  0.3796
10200TIP3    H152091   1.844   3.130  15.219  1.3895 -0.1016  0.2916
10200TIP3    H252092   1.889   3.013  15.134 -0.4063 -1.0788  0.6363
10201TIP3   OH252093   2.191   6.803   5.842 -0.1541 -0.2499 -0.1714
10201TIP3    H152094   2.171   6.887   5.800 -0.7585 -0.4592 -0.3016
10201TIP3    H252095   2.156   6.737   5.782 -0.0753 -0.5873  0.1513
10202TIP3   OH252096   6.359   4.160   2.215 -0.2661 -0.4081 -0.0938
10202TIP3    H152097   6.417   4.089   2.185 -0.7484 -0.1035 -1.9119
10202TIP3    H252098   6.272   4.119   2.220 -0.5258 -0.0123 -1.0342
10203TIP3   OH252099   5.918   6.214  14.120 -0.0488 -0.1314  0.5357
10203TIP3    H152100   5.955   6.301  14.104  0.6233 -0.2488  1.3779
10203TIP3    H252101   5.976   6.154  14.071 -0.7934 -0.0772 -0.4399
10204TIP3   OH252102   6.309   4.280   3.774  0.3681  0.1654 -0.1986
10204TIP3    H152103   6.355   4.196   3.771 -0.3021 -0.1858 -2.5285
10204TIP3    H252104   6.378   4.346   3.760  0.4327 -0.2898 -2.4492
10205TIP3   OH252105   1.425   3.126  10.678 -0.3422 -0.2705  0.1458
10205TIP3    H152106   1.495   3.062  10.663 -0.0156  0.4229 -1.4839
10205TIP3    H252107   1.425   3.181  10.600 -0.8289  1.5292  1.3414
10206TIP3   OH252108   4.663   6.557  11.395  0.4906 -0.1984  0.0550
10206TIP3    H152109   4.653   6.470  11.433 -0.3642  0.4438  1.3799
10206TIP3    H252110   4.709   6.542  11.313  0.4871 -1.8790  0.3228
10207TIP3   OH252111   1.648   4.893   1.430 -0.2414  0.3523 -0.8951
10207TIP3    H152112   1.659   4.966   1.369 -2.3945 -0.1714 -2.0244
10207TIP3    H252113   1.587   4.925   1.496 -0.3294 -0.0752 -0.7626
10208TIP3   OH252114   1.251   1.949   5.537 -0.2410 -0.5048  0.3622
10208TIP3    H152115   1.174   1.954   5.594 -0.9215  0.1430 -0.5661
10208TIP3    H252116   1.272   1.856   5.533 -2.0878 -0.9206 -0.7680
10209TIP3   OH252117   3.409   0.557  17.225  0.0843 -0.1910  0.1658
10209TIP3    H152118   3.491   0.509  17.211  1.6336  2.5999 -0.9869
10209TIP3    H252119   3.408   0.576  17.319  1.7192  1.2318 -0.0562
10210TIP3   OH252120   2.022   2.804  11.085 -0.0111  0.2509 -0.3321
10210TIP3    H152121   2.076   2.834  11.158  0.2843  1.7543 -1.1247
10210TIP3    H252122   2.074   2.736  11.043 -0.4275 -1.0448  1.1542
10211TIP3   OH252123   5.091   3.286  17.259  0.6529 -0.1702  0.1888
10211TIP3    H152124   5.058   3.211  17.309 -0.9546  0.5786  0.3117
10211TIP3    H252125   5.158   3.249  17.202  1.0052 -1.4160  1.3680
10212TIP3   OH252126   4.962   2.967  16.691 -0.2006 -0.1118  0.2250
10212TIP3    H152127   4.884   2.912  16.696  0.3328 -0.8507  0.6573
10212TIP3    H252128   4.959   3.021  16.771  1.2358 -2.2565  1.8549
10213TIP3   OH252129   0.940   1.913  14.902 -0.2802 -0.3490 -0.1308
10213TIP3    H152130   0.998   1.841  14.929  0.9709  0.6310 -0.1324
10213TIP3    H252131   0.982   1.950  14.824 -0.0172  1.4254  0.8192
10214TIP3   OH252132   4.882   4.523   6.282  0.6143  0.0837  0.3885
10214TIP3    H152133   4.824   4.520   6.357  0.1521 -1.1499 -0.0028
10214TIP3    H252134   4.829   4.559   6.211  0.9785  1.0119  0.5645
10215TIP3   OH252135   3.410   6.487  12.326  0.3871 -0.4094 -0.2612
10215TIP3    H152136   3.344   6.505  12.393 -1.8642 -1.4072 -2.0934
10215TIP3    H252137   3.486   6.458  12.375 -0.8357 -0.1570  1.9044
10216TIP3   OH252138   0.514   4.830   4.764 -0.0721 -0.0958  0.6558
10216TIP3    H152139   0.552   4.771   4.699 -1.4473  0.1570 -0.4270
10216TIP3    H252140   0.517   4.916   4.723  0.2143  0.2910  1.4687
10217TIP3   OH252141   0.922   6.494   5.566  0.3759 -0.2529  0.4017
10217TIP3    H152142   0.942   6.586   5.550 -1.1815  0.2437  1.1313
10217TIP3    H252143   0.997   6.462   5.617  0.5976  0.8134  0.7703
10218TIP3   OH252144   0.071   3.563   1.432 -0.0011 -0.2873  0.0144
10218TIP3    H152145   0.018   3.566   1.512 -2.0387  0.2051 -1.2764
10218TIP3    H252146   0.078   3.470   1.411  0.7361 -0.4345  0.8523
10219TIP3   OH252147   3.811   6.487   3.484  0.5618 -0.4759 -0.1242
10219TIP3    H152148   3.885   6.527   3.437  0.3437 -1.2914 -1.1840
10219TIP3    H252149   3.752   6.457   3.415  0.2924 -1.8183  0.6701
10220TIP3   OH252150   3.569   1.840   1.832  0.2562 -0.5224  0.4502
10220TIP3    H152151   3.565   1.913   1.770  0.7698 -2.2369 -1.7284
10220TIP3    H252152   3.662   1.831   1.851  0.3087 -1.1806 -0.0667
10221TIP3   OH252153   3.831   2.465  14.457  1.0778  0.1332  0.0715
10221TIP3    H152154   3.790   2.550  14.471  2.8128  0.9267  0.5378
10221TIP3    H252155   3.802   2.412  14.532  2.5554  1.3480  1.5724
10222TIP3   OH252156   1.767   6.646   2.166 -0.8850  0.5827  0.6520
10222TIP3    H152157   1.819   6.692   2.100  0.9823 -1.6974  0.4049
10222TIP3    H252158   1.827   6.633   2.240 -1.5470 -0.7805  0.9963
10223TIP3   OH252159   4.173   3.648   4.430  0.0375  0.6688 -0.4287
10223TIP3    H152160   4.085   3.661   4.396  0.5918  0.5627 -1.9753
10223TIP3    H252161   4.165   3.666   4.524 -1.5165  1.1393 -0.6201
10224TIP3   OH252162   4.415   0.781   1.970  0.1796  1.0756 -0.1661
10224TIP3    H152163   4.471   0.774   2.047  2.5598  2.9500 -1.5806
10224TIP3    H252164   4.449   0.715   1.910 -2.4026 -1.1911  0.6688
10225TIP3   OH252165   0.618   1.838   3.945  0.0956 -0.3823 -0.4896
10225TIP3    H152166   0.523   1.840   3.930 -0.3123 -0.0335  1.6809
10225TIP3    H252167   0.653   1.906   3.888 -1.4125  1.7674  0.9674
10226TIP3   OH252168   4.894   3.761   3.708  0.7001 -0.5441 -0.7559
10226TIP3    H152169   4.813   3.774   3.660 -1.1207  0.1509  2.2085
10226TIP3    H252170   4.935   3.847   3.710 -0.2441 -0.0896  0.5095
10227TIP3   OH252171   4.840   5.319  16.567  0.2066 -0.1958  0.2339
10227TIP3    H152172   4.930   5.310  16.538  0.1591  2.2001 -0.8728
10227TIP3    H252173   4.846   5.346  16.659  0.7393  1.5468 -0.2707
10228TIP3   OH252174   3.465   3.512   3.234  0.5804 -0.0961 -0.4511
10228TIP3    H152175   3.520   3.564   3.292  1.6304 -0.7622 -0.8344
10228TIP3    H252176   3.517   3.435   3.214 -0.1460 -0.3238 -1.5298
10229TIP3   OH252177   3.246   6.233  17.285 -0.1819 -0.0592 -0.7622
10229TIP3    H152178   3.273   6.302  17.346  1.1829 -0.4283 -0.9141
10229TIP3    H252179   3.155   6.253  17.265 -0.3339  0.6879  0.5621
10230TIP3   OH252180   2.718   2.908   5.311  0.6574  0.0190 -0.0856
10230TIP3    H152181   2.790   2.871   5.362  0.0842  1.0090  1.5382
10230TIP3    H252182   2.640   2.864   5.345  0.3149  0.2876 -0.5099
10231TIP3   OH252183   5.502   2.934   2.858 -0.3762 -0.3089  0.5654
10231TIP3    H152184   5.458   2.948   2.774  0.2902 -1.8718 -0.0829
10231TIP3    H252185   5.594   2.923   2.836 -0.3381 -1.9123  1.3425
10232TIP3   OH252186   6.565   4.379  15.942 -0.3501  0.2934 -0.3837
10232TIP3    H152187   6.627   4.318  15.901 -0.7264  0.6357 -1.5007
10232TIP3    H252188   6.613   4.461  15.947 -1.1646  0.9806 -2.6772
10233TIP3   OH252189   5.430   6.664  16.307 -0.4884 -0.3229  0.7187
10233TIP3    H152190   5.394   6.751  16.294  0.6028 -0.0878 -1.1030
10233TIP3    H252191   5.363   6.605  16.274 -0.0435  0.0270 -0.9491
10234TIP3   OH252192   5.848   4.234  13.961  0.5666  0.3398  0.0743
10234TIP3    H152193   5.905   4.162  13.936 -1.2617 -0.9757 -0.5690
10234TIP3    H252194   5.815   4.211  14.048 -2.6348 -1.4866 -1.4287
10235TIP3   OH252195   5.007   4.596   0.874  0.2332  0.2580  0.4056
10235TIP3    H152196   5.025   4.502   0.875 -0.1511  0.1284 -1.2157
10235TIP3    H252197   4.928   4.606   0.928  0.5741 -0.2679  1.0094
10236TIP3   OH252198   5.233   4.410   0.118 -0.2649  0.2328 -0.4016
10236TIP3    H152199   5.143   4.408   0.084 -1.0027  0.9269  1.3403
10236TIP3    H252200   5.232   4.350   0.192  0.0816  1.7896  0.9373
10237TIP3   OH252201   4.657   1.299  14.666 -0.4740  0.3816  0.2067
10237TIP3    H152202   4.581   1.300  14.724  0.1185 -1.5691  1.0831
10237TIP3    H252203   4.709   1.225  14.696  0.8258  0.5065 -1.6088
10238TIP3   OH252204   0.433   0.163  12.515  0.5823  0.0146 -0.1044
10238TIP3    H152205   0.351   0.118  12.537  1.1376  0.4633  3.4912
10238TIP3    H252206   0.487   0.096  12.475 -0.4548 -1.1084  0.3154
10239TIP3   OH252207   3.877   1.275   4.280  0.1758  0.1905 -0.1124
10239TIP3    H152208   3.950   1.238   4.330  0.3373  2.5891  1.6180
10239TIP3    H252209   3.873   1.367   4.308 -2.4831  0.5584 -1.3932
10240TIP3   OH252210   4.710   4.185  16.962  0.3263  0.2468  0.3335
10240TIP3    H152211   4.665   4.216  17.041 -2.1129  1.0997 -1.2596
10240TIP3    H252212   4.739   4.265  16.919  1.9480 -0.2338  0.4869
10241TIP3   OH252213   6.504   6.348  11.013  0.3093 -0.2021 -0.1521
10241TIP3    H152214   6.548   6.283  10.959  0.8010 -0.0054  0.0107
10241TIP3    H252215   6.452   6.400  10.951  1.8117  0.8053 -0.6269
10242TIP3   OH252216   4.331   1.177  14.519  0.3433  0.7175  0.1865
10242TIP3    H152217   4.283   1.230  14.456 -1.4397 -1.9894 -0.9412
10242TIP3    H252218   4.393   1.126  14.466 -0.6419 -1.0474  0.6449
10243TIP3   OH252219   3.790   5.583   2.828 -0.2975  0.3064 -0.1150
10243TIP3    H152220   3.728   5.555   2.895 -0.6345  1.0512 -0.1045
10243TIP3    H252221   3.876   5.574   2.870 -0.4632  0.2118  0.2103
10244TIP3   OH252222   1.568   5.240  12.829  0.2224 -0.3423 -0.1290
10244TIP3    H152223   1.595   5.244  12.921 -2.3422 -0.2363  0.7047
10244TIP3    H252224   1.553   5.331  12.804 -1.6373 -0.5023  0.2477
10245TIP3   OH252225   5.744   0.024  11.569 -0.1918 -0.3475 -0.3109
10245TIP3    H152226   5.810   0.038  11.502 -1.0610 -0.3097 -1.1931
10245TIP3    H252227   5.783  -0.038  11.630  1.3028  0.9952  0.1578
10246TIP3   OH252228   4.589   6.181  12.480 -0.4186  0.1218  0.0142
10246TIP3    H152229   4.654   6.124  12.438 -1.6401 -0.2545 -1.4498
10246TIP3    H252230   4.578   6.254  12.419  0.1022  1.2381  1.2162
10247TIP3   OH252231   5.939   0.792   1.942  0.3152  0.4296 -0.4376
10247TIP3    H152232   6.014   0.847   1.964  0.3268  0.3618 -0.3122
10247TIP3    H252233   5.926   0.736   2.018  0.7018 -0.1842 -0.8161
10248TIP3   OH252234   0.641   0.742  13.300  0.0643 -0.0444 -0.3398
10248TIP3    H152235   0.564   0.707  13.345  1.0212  0.3283  1.6911
10248TIP3    H252236   0.679   0.666  13.255  0.0676 -0.8409  0.9709
10249TIP3   OH252237   2.852   1.785  16.947 -0.5115  0.1080 -0.1953
10249TIP3    H152238   2.892   1.802  16.862  1.4730  0.8361  0.8203
10249TIP3    H252239   2.850   1.871  16.989 -2.1146 -0.1195  0.2702
10250TIP3   OH252240   0.799   4.712  14.421 -0.1670 -0.3848 -0.3601
10250TIP3    H152241   0.814   4.618  14.434  2.4103 -0.1069 -0.8216
10250TIP3    H252242   0.842   4.732  14.337 -0.6329  1.2293 -0.2484
10251TIP3   OH252243   1.608   3.469   4.290  0.3440 -0.0847  0.2250
10251TIP3    H152244   1.555   3.519   4.228 -1.0462 -1.2861  0.3835
10251TIP3    H252245   1.591   3.510   4.375  1.6727  1.0980 -0.0467
10252TIP3   OH252246   2.479   2.133   5.403  0.0991 -0.2448 -0.2322
10252TIP3    H152247   2.411   2.069   5.422 -0.8743  0.3397 -1.5690
10252TIP3    H252248   2.544   2.086   5.352 -0.0942 -0.4130 -0.3210
10253TIP3   OH252249   2.296   6.754   2.745  0.4718 -0.1609  0.3982
10253TIP3    H152250   2.244   6.674   2.751 -1.3472  0.8106 -1.1932
10253TIP3    H252251   2.348   6.743   2.666 -0.5335  0.5863 -0.3965
10254TIP3   OH252252   4.579   1.942   2.560 -0.2355  0.3880 -0.1507
10254TIP3    H152253   4.588   1.848   2.578  1.0035  0.8394  1.9390
10254TIP3    H252254   4.545   1.978   2.642 -0.9768  1.7542 -1.0256
10255TIP3   OH252255   1.096   2.790  16.417  1.0226  0.0076  0.4264
10255TIP3    H152256   1.117   2.875  16.379  2.7124  0.3805  2.0581
10255TIP3    H252257   1.009   2.770  16.384  0.4685  2.4766  0.1927
10256TIP3   OH252258   1.163   5.775  13.369  0.6687 -0.1470 -0.6196
10256TIP3    H152259   1.191   5.808  13.283  0.6489  0.3065 -0.4522
10256TIP3    H252260   1.117   5.849  13.410 -1.5984 -1.1053 -1.2432
10257TIP3   OH252261   2.487   3.230  17.165 -0.1915 -1.1573  0.2135
10257TIP3    H152262   2.500   3.324  17.154 -1.6748 -1.0530 -0.9319
10257TIP3    H252263   2.393   3.217  17.154  0.1776 -2.9710 -1.4160
10258TIP3   OH252264   3.566   4.116  12.644  0.4832  0.0476  0.4499
10258TIP3    H152265   3.568   4.050  12.714 -0.5739 -1.1789 -0.6238
10258TIP3    H252266   3.575   4.199  12.690  0.7898 -0.7657  1.9569
10259TIP3   OH252267   4.987   2.232   1.212 -0.0606  0.0391 -0.0457
10259TIP3    H152268   5.047   2.168   1.251  1.5951  2.4619  1.7654
10259TIP3    H252269   4.932   2.261   1.285  1.3122  2.7728  0.0456
10260TIP3   OH252270   5.226   3.564  16.921 -0.3849 -0.6032 -0.1823
10260TIP3    H152271   5.216   3.588  16.829 -0.5770 -1.6744 -0.4621
10260TIP3    H252272   5.320   3.563  16.936 -0.3145  3.3360  0.7226
10261TIP3   OH252273   4.465   2.993   5.903  0.0608 -0.6575 -0.5911
10261TIP3    H152274   4.409   2.915   5.901 -1.3855  0.2759  0.7577
10261TIP3    H252275   4.547   2.962   5.941 -0.6000 -1.5063  0.2189
10262TIP3   OH252276   2.625   0.634  13.365  0.1301  0.6546  0.9879
10262TIP3    H152277   2.548   0.595  13.325  0.0857 -1.1236  2.6661
10262TIP3    H252278   2.692   0.631  13.297 -0.1213 -1.6583  0.7774
10263TIP3   OH252279   1.309   2.614   4.938 -0.0672 -0.3637  0.4017
10263TIP3    H152280   1.395   2.576   4.920  0.2098  0.8808 -1.1042
10263TIP3    H252281   1.291   2.590   5.029  1.8344 -0.7285  0.7247
10264TIP3   OH252282   1.081   6.016   3.489 -0.2455 -0.8595 -0.0247
10264TIP3    H152283   1.037   5.968   3.419 -0.2794 -0.4274 -0.3022
10264TIP3    H252284   1.019   6.014   3.562 -0.1850 -1.3627  0.0159
10265TIP3   OH252285   2.915   6.762  13.526  0.0922 -0.1154  0.1171
10265TIP3    H152286   2.893   6.678  13.486  0.0178 -0.7287  1.3967
10265TIP3    H252287   3.002   6.783  13.491  1.1483 -1.8912  1.5201
10266TIP3   OH252288   4.192   0.650  14.291  0.6261  0.0959  0.0934
10266TIP3    H152289   4.121   0.683  14.345  0.2112 -0.4652 -0.1013
10266TIP3    H252290   4.194   0.709  14.215  0.5493  0.2748  0.2296
10267TIP3   OH252291   5.139   1.165   1.766  0.1012  0.4295 -0.7170
10267TIP3    H152292   5.084   1.091   1.792  0.7505  0.5444  1.2281
10267TIP3    H252293   5.111   1.187   1.678 -1.3686 -0.9592 -0.6440
10268TIP3   OH252294   5.380   0.767   5.959 -0.1138 -0.3475 -0.1144
10268TIP3    H152295   5.454   0.723   5.917 -0.3621 -0.0779 -0.8500
10268TIP3    H252296   5.420   0.820   6.028  0.3204 -0.6443 -0.1321
10269TIP3   OH252297   2.715   6.567  12.947 -0.4828  0.9760 -0.0515
10269TIP3    H152298   2.807   6.545  12.935 -0.1457  0.8969  2.1580
10269TIP3    H252299   2.716   6.649  12.996 -1.6013  1.2226 -0.4153
10270TIP3   OH252300   5.902   3.343   3.111  0.5937  0.2362 -0.0089
10270TIP3    H152301   5.979   3.358   3.167  0.9662  0.4960 -0.5795
10270TIP3    H252302   5.831   3.388   3.156  0.8161  0.1713  0.4201
10271TIP3   OH252303   2.604   6.090  12.459  0.1147  0.0242 -0.2227
10271TIP3    H152304   2.602   6.170  12.512 -0.6730 -0.0684 -0.1026
10271TIP3    H252305   2.659   6.030  12.510  0.4461  0.3757 -0.1576
10272TIP3   OH252306   0.214   0.950  15.294 -0.3257  0.1113  0.1647
10272TIP3    H152307   0.282   1.001  15.250 -0.8167  0.0496 -0.6655
10272TIP3    H252308   0.173   0.899  15.225 -0.6221 -0.5382  0.8060
10273TIP3   OH252309   1.743   1.878   4.578  0.2713 -0.6335 -0.8903
10273TIP3    H152310   1.657   1.835   4.569 -0.3635  0.6522 -1.3340
10273TIP3    H252311   1.722   1.966   4.610  1.3264  0.0271 -1.9196
10274TIP3   OH252312   4.253   6.335  13.691  0.1585  0.0012 -0.1278
10274TIP3    H152313   4.218   6.369  13.773  0.2588 -2.7776  1.1677
10274TIP3    H252314   4.175   6.309  13.641  0.1655 -0.6667  0.2010
10275TIP3   OH252315   4.035   2.727   2.392 -0.3403  0.1498  0.0683
10275TIP3    H152316   4.048   2.818   2.421 -1.8108  0.0113  1.2788
10275TIP3    H252317   4.081   2.722   2.308 -0.0819  1.9645  0.0595
10276TIP3   OH252318   4.226   5.831  12.667  1.0689  0.3638 -0.4426
10276TIP3    H152319   4.302   5.849  12.722  1.3644  1.8042 -1.2774
10276TIP3    H252320   4.161   5.896  12.693  0.2280 -0.6507  0.0386
10277TIP3   OH252321   5.116   4.730  16.321  0.0864 -0.0678 -1.3035
10277TIP3    H152322   5.116   4.788  16.245 -1.7468  0.7529 -0.7530
10277TIP3    H252323   5.034   4.680  16.313 -0.1225 -0.0024  0.0642
10278TIP3   OH252324   5.481   6.252  13.769  0.6017 -0.1582  0.5616
10278TIP3    H152325   5.477   6.327  13.709  1.1931 -1.0339 -0.6299
10278TIP3    H252326   5.432   6.279  13.846 -3.0137 -0.0919 -1.5193
10279TIP3   OH252327   0.662   1.481  12.776 -0.1652 -0.2526 -0.5591
10279TIP3    H152328   0.604   1.552  12.805  0.7688 -0.0328  0.9044
10279TIP3    H252329   0.602   1.411  12.748 -1.1070  0.6166 -0.7704
10280TIP3   OH252330   5.155   5.655   2.216  0.0976 -0.5504  0.3488
10280TIP3    H152331   5.189   5.600   2.286  0.8766 -2.6171 -1.5443
10280TIP3    H252332   5.061   5.659   2.232  0.4317  0.5089  2.4399
10281TIP3   OH252333   3.696   2.533   1.164  0.3084  0.3738 -0.1511
10281TIP3    H152334   3.603   2.541   1.147  0.0549  0.8116  1.2836
10281TIP3    H252335   3.733   2.617   1.137  0.0895  0.6366  0.3417
10282TIP3   OH252336   5.686   0.196  17.128  0.3129 -0.4407  0.3075
10282TIP3    H152337   5.610   0.254  17.121  0.9691  0.4075 -0.0027
10282TIP3    H252338   5.682   0.163  17.218 -0.9503 -1.1818  0.0021
10283TIP3   OH252339   4.468   2.424   5.397  0.8008 -0.1182 -0.1566
10283TIP3    H152340   4.451   2.399   5.488  0.6597 -1.1756 -0.4586
10283TIP3    H252341   4.535   2.492   5.402 -0.3886  1.0338  0.8317
10284TIP3   OH252342   0.922   6.162   6.453  0.1009  0.1530  0.3477
10284TIP3    H152343   0.886   6.132   6.536  1.7931 -0.0038  1.0600
10284TIP3    H252344   0.913   6.257   6.455  0.6201  0.1926  0.9527
10285TIP3   OH252345   2.221   2.267  15.949  0.2858 -0.3397  0.5495
10285TIP3    H152346   2.167   2.285  15.872  0.0403 -2.4262  0.1695
10285TIP3    H252347   2.309   2.294  15.923 -0.0734  0.4923  0.1527
10286TIP3   OH252348   3.132   3.589   5.517 -0.0491  0.5052  0.5996
10286TIP3    H152349   3.164   3.605   5.429 -0.5083  0.3601  0.4006
10286TIP3    H252350   3.090   3.671   5.543 -2.8299 -0.4178 -0.6068
10287TIP3   OH252351   6.226   3.977  16.604  0.0693 -1.1141 -0.5468
10287TIP3    H152352   6.261   3.923  16.533 -1.5498 -0.8702 -1.6079
10287TIP3    H252353   6.133   3.987  16.582  0.1622  1.5549 -0.0546
10288TIP3   OH252354   0.961   0.505   2.996 -0.7876  0.3927  0.5425
10288TIP3    H152355   1.039   0.553   2.970 -1.6005  2.3132  1.4321
10288TIP3    H252356   0.992   0.443   3.062  0.2774 -0.3052 -0.5700
10289TIP3   OH252357   2.626   5.721   1.643  0.3657  0.2460 -0.2788
10289TIP3    H152358   2.707   5.741   1.596 -0.1616  0.9048 -0.9199
10289TIP3    H252359   2.566   5.690   1.576 -0.3649  1.1038 -0.0383
10290TIP3   OH252360   0.800   1.858   5.620  0.0715  0.4204  0.2159
10290TIP3    H152361   0.796   1.780   5.565  0.9287  1.3441 -1.2346
10290TIP3    H252362   0.740   1.920   5.577  0.6092  1.0945  0.4204
10291TIP3   OH252363   5.916   0.025  17.175  0.0404 -0.1060  0.5692
10291TIP3    H152364   5.839   0.074  17.206  0.1722  0.3509  0.1900
10291TIP3    H252365   5.990   0.069  17.216  0.0787 -0.8802  1.3664
10292TIP3   OH252366   0.336   2.182   1.629  0.0524  0.1998 -0.2807
10292TIP3    H152367   0.322   2.136   1.546 -1.9361  0.7931 -0.3149
10292TIP3    H252368   0.296   2.124   1.695 -0.8732  1.0307 -0.1009
10293TIP3   OH252369   2.744   5.019   2.834  0.4396 -0.0182  0.1182
10293TIP3    H152370   2.817   5.075   2.860 -1.5627  1.9423  1.9429
10293TIP3    H252371   2.673   5.079   2.814 -0.9089 -1.8641 -0.9720
10294TIP3   OH252372   6.288   1.032  12.664  0.3367  0.4021  0.3345
10294TIP3    H152373   6.312   1.100  12.727  0.4919  0.1208  0.5849
10294TIP3    H252374   6.363   1.027  12.605  1.0046 -0.5961  1.2190
10295TIP3   OH252375   2.123   5.256  11.557  0.0278  0.0437  0.4420
10295TIP3    H152376   2.115   5.261  11.652 -0.8874  1.6319  0.3277
10295TIP3    H252377   2.129   5.348  11.529  1.0093 -0.4257 -0.9900
10296TIP3   OH252378   1.947   6.269   3.261  0.0095 -0.4340 -0.4042
10296TIP3    H152379   1.874   6.234   3.209  0.4234  2.6461 -3.3420
10296TIP3    H252380   2.003   6.193   3.277 -1.2939 -1.9673 -2.5405
10297TIP3   OH252381   1.152   3.249   1.702  0.2593  0.1215 -0.1782
10297TIP3    H152382   1.189   3.200   1.775  1.3909  0.0740 -0.7563
10297TIP3    H252383   1.212   3.323   1.689 -1.0525  1.3154  0.2496
10298TIP3   OH252384   3.895   0.442   1.837  0.1384 -0.2113  0.3307
10298TIP3    H152385   3.908   0.361   1.788  1.3480  0.6886 -0.9130
10298TIP3    H252386   3.858   0.503   1.774  2.6350  1.2740  0.1832
10299TIP3   OH252387   0.057   5.105  14.028  0.2030 -0.2859 -0.5335
10299TIP3    H152388   0.036   5.162  14.101  3.0897 -1.1195  1.0721
10299TIP3    H252389   0.020   5.020  14.053 -1.2190  0.0381 -1.4035
10300TIP3   OH252390   6.656   2.698   4.811 -0.2995  0.3738  0.0439
10300TIP3    H152391   6.561   2.690   4.805 -0.2492  0.2084 -0.6769
10300TIP3    H252392   6.680   2.751   4.735  0.1228  0.9639  0.5810
10301TIP3   OH252393   4.072   0.540   5.079  0.2135  0.5956  0.1985
10301TIP3    H152394   4.143   0.524   5.142 -0.3885  0.6926  0.9148
10301TIP3    H252395   3.993   0.511   5.124 -0.1388 -0.0606 -0.8237
10302TIP3   OH252396   3.995   3.673  12.834  0.4141  0.4307  0.0063
10302TIP3    H152397   4.072   3.729  12.825  0.6337  0.0201 -0.7448
10302TIP3    H252398   3.926   3.718  12.784 -0.0635  1.1747  1.2818
10303TIP3   OH252399   2.186   6.311  12.920 -0.0995 -0.2204 -0.1247
10303TIP3    H152400   2.224   6.378  12.977 -0.3376 -0.9244  0.8686
10303TIP3    H252401   2.245   6.309  12.844  0.5417  0.3175  0.3464
10304TIP3   OH252402   3.407   4.657   5.712 -0.0086  0.2383  0.3848
10304TIP3    H152403   3.374   4.592   5.774  1.1236  0.4591  1.2425
10304TIP3    H252404   3.493   4.624   5.685  0.3108  1.0601  0.3585
10305TIP3   OH252405   1.940   4.172  17.082  0.2933  0.0728  0.8354
10305TIP3    H152406   1.954   4.114  17.157  2.3370  1.6885  1.7882
10305TIP3    H252407   2.025   4.176  17.038  0.2195  2.3085  0.7997
10306TIP3   OH252408   1.493   1.275   2.344  0.1401 -0.4071  0.5816
10306TIP3    H152409   1.458   1.276   2.434 -1.6256 -1.8877 -0.0273
10306TIP3    H252410   1.550   1.198   2.341  1.3123  0.4340  0.7947
10307TIP3   OH252411   0.779   4.230  13.888 -0.1400  0.0520 -0.1215
10307TIP3    H152412   0.723   4.183  13.826  0.9707  0.5797 -1.5763
10307TIP3    H252413   0.782   4.173  13.965 -2.1966 -0.2483 -0.2227
10308TIP3   OH252414   2.974   2.576  11.324  0.3646 -0.2769  0.6626
10308TIP3    H152415   3.060   2.534  11.326  0.2846 -0.4306  1.1724
10308TIP3    H252416   2.971   2.627  11.405 -0.4760 -1.2207  1.2558
10309TIP3   OH252417   6.034   3.726  15.171 -0.6204  0.2679 -0.1183
10309TIP3    H152418   6.057   3.817  15.187 -0.9489  0.0301  1.9225
10309TIP3    H252419   5.946   3.716  15.207 -0.4927 -0.9088 -0.0846
10310TIP3   OH252420   4.680   2.963  16.893  0.2151  0.2213  0.3142
10310TIP3    H152421   4.715   3.032  16.950  1.5119  2.7786 -3.2281
10310TIP3    H252422   4.664   3.006  16.810 -3.5433 -2.8154 -0.8130
10311TIP3   OH252423   4.013   6.789   2.860  0.1906  0.3722  0.0200
10311TIP3    H152424   4.084   6.803   2.798 -0.3513 -3.7044 -1.8783
10311TIP3    H252425   3.935   6.825   2.818  0.1444 -0.7711 -0.9328
10312TIP3   OH252426   5.525   2.951  15.380 -0.6564 -0.1795 -0.2651
10312TIP3    H152427   5.590   2.907  15.325  2.2363 -0.3150  2.9281
10312TIP3    H252428   5.565   3.035  15.402 -0.2536 -1.1885  3.7026
10313TIP3   OH252429   4.041   6.567  15.073 -0.0515  0.1845  0.4485
10313TIP3    H152430   4.000   6.574  14.986 -0.1999  0.1500  0.5166
10313TIP3    H252431   4.133   6.548  15.054  0.3510  2.0783  0.2327
10314TIP3   OH252432   2.368   4.238   6.057 -0.0871  0.0789 -1.0131
10314TIP3    H152433   2.365   4.174   6.128  0.0984 -0.6382 -1.6489
10314TIP3    H252434   2.295   4.297   6.075 -0.3579 -0.4000 -0.5138
10315TIP3   OH252435   6.423   2.169   5.479 -0.3317 -0.3353 -0.1381
10315TIP3    H152436   6.418   2.199   5.389 -0.5211  2.0157  0.6026
10315TIP3    H252437   6.358   2.222   5.526  2.0626  0.9406  1.9715
10316TIP3   OH252438   3.230   2.555  11.762 -0.1699  0.1020 -0.8232
10316TIP3    H152439   3.280   2.515  11.834 -0.3852  1.9004  0.4236
10316TIP3    H252440   3.298   2.588  11.702  0.1159  0.5988 -0.2494
10317TIP3   OH252441   5.428   1.477  12.510  0.3813 -0.7042  0.0272
10317TIP3    H152442   5.477   1.395  12.512  0.0934 -0.8758  0.0217
10317TIP3    H252443   5.451   1.521  12.592  1.7017 -0.1082 -0.6311
10318TIP3   OH252444   0.566   4.386  14.420  0.2832 -0.6632  0.3855
10318TIP3    H152445   0.567   4.378  14.515 -0.2718 -1.1140  0.3595
10318TIP3    H252446   0.604   4.303  14.389  0.5195 -0.4928  0.2134
10319TIP3   OH252447   0.627   5.244   3.576  0.1684 -0.5476 -0.4596
10319TIP3    H152448   0.622   5.339   3.590 -0.3023 -0.5940 -0.2965
10319TIP3    H252449   0.705   5.217   3.625 -0.0390 -0.3316 -0.0026
10320TIP3   OH252450   4.768   3.381  13.913  0.5969  0.4433  0.5244
10320TIP3    H152451   4.686   3.429  13.923  0.5138  0.6486 -0.9492
10320TIP3    H252452   4.785   3.381  13.818  1.6187 -0.7168  0.6789
10321TIP3   OH252453   6.444   0.595   4.697 -0.0283  0.3564  0.0542
10321TIP3    H152454   6.408   0.534   4.632  2.1409  0.7828 -1.6979
10321TIP3    H252455   6.486   0.539   4.762 -1.5147 -0.0625  0.6832
10322TIP3   OH252456   4.871   0.117   2.903 -0.0136  0.0720 -0.3274
10322TIP3    H152457   4.895   0.119   2.995  1.4388 -1.9771 -0.5868
10322TIP3    H252458   4.925   0.185   2.862  1.0810 -0.5640  0.0138
10323TIP3   OH252459   2.135   4.455  15.582  0.0285  0.1752  0.0554
10323TIP3    H152460   2.112   4.389  15.647 -3.7405 -1.6426 -2.7123
10323TIP3    H252461   2.211   4.419  15.537  0.0324 -0.6359  0.6954
10324TIP3   OH252462   1.672   4.122   0.972 -0.2640 -0.4358 -0.0504
10324TIP3    H152463   1.581   4.139   0.948 -0.4759  0.7026  1.4078
10324TIP3    H252464   1.693   4.190   1.036  2.1933  0.4672 -1.6650
10325TIP3   OH252465   2.336   1.586   3.750 -1.2718  0.2496  0.3340
10325TIP3    H152466   2.267   1.524   3.774 -1.4300  0.3728  0.1993
10325TIP3    H252467   2.307   1.669   3.788 -1.8761  0.6101 -0.8570
10326TIP3   OH252468   1.205   1.411   4.970  1.2641 -0.3389 -0.5504
10326TIP3    H152469   1.233   1.322   4.951  1.1055  0.1170 -3.3629
10326TIP3    H252470   1.113   1.403   4.992  0.6427 -0.7722 -2.9390
10327TIP3   OH252471   2.074   4.236  12.239 -0.2978 -0.5541  0.6689
10327TIP3    H152472   2.153   4.289  12.231 -0.3883 -0.4316  0.5792
10327TIP3    H252473   2.098   4.151  12.203  0.0974 -0.8362  1.5696
10328TIP3   OH252474   5.112   0.243   5.477 -0.1802  0.6583 -0.1421
10328TIP3    H152475   5.020   0.269   5.470 -0.9546 -1.0161  2.4199
10328TIP3    H252476   5.125   0.183   5.403 -0.5850  2.2296 -1.5523
10329TIP3   OH252477   2.926   3.574  13.704 -0.0012 -0.6270  0.0749
10329TIP3    H152478   2.881   3.653  13.735  0.3051 -0.0094 -1.0035
10329TIP3    H252479   2.980   3.546  13.778 -1.1816 -0.6555  0.9565
10330TIP3   OH252480   3.230   2.425   4.216  0.2048 -0.0812  0.0502
10330TIP3    H152481   3.243   2.354   4.279  0.7305  0.6553  0.7949
10330TIP3    H252482   3.225   2.381   4.131 -0.8080 -1.1155  0.6239
10331TIP3   OH252483   6.652   5.081   4.468 -0.7903 -0.0404 -0.2922
10331TIP3    H152484   6.723   5.019   4.450  0.3782  1.5153 -1.3034
10331TIP3    H252485   6.586   5.029   4.513  1.6155 -1.2673  2.1559
10332TIP3   OH252486   6.637   2.338   2.361 -0.3235  0.4952 -0.1721
10332TIP3    H152487   6.621   2.272   2.428  0.7557 -0.5659 -0.9307
10332TIP3    H252488   6.553   2.347   2.316 -0.3475 -0.8075 -0.4325
10333TIP3   OH252489   3.267   0.090  14.028  0.3166  0.5485  0.0637
10333TIP3    H152490   3.279   0.092  13.933 -0.5410 -2.1823 -0.1979
10333TIP3    H252491   3.294   0.002  14.053 -2.1094  0.2153  1.9198
10334TIP3   OH252492   0.008   3.279  11.950 -0.2654  0.0049 -0.1513
10334TIP3    H152493  -0.087   3.268  11.945 -0.3598  0.2602  0.9068
10334TIP3    H252494   0.042   3.219  11.883 -1.2629  2.1507 -2.7776
10335TIP3   OH252495   6.154   1.030  14.853 -0.0575 -0.3816 -0.3807
10335TIP3    H152496   6.122   1.007  14.940  0.7969 -0.3126 -0.0376
10335TIP3    H252497   6.189   1.119  14.864 -3.7956  1.5033 -1.7854
10336TIP3   OH252498   4.456   4.886  12.320 -0.4618 -0.4976 -0.2217
10336TIP3    H152499   4.497   4.809  12.280  0.8645  0.2231 -0.3095
10336TIP3    H252500   4.468   4.955  12.256 -0.9061 -0.0264  0.2006
10337TIP3   OH252501   1.263   5.378  10.791  0.3085  0.1090 -0.1238
10337TIP3    H152502   1.259   5.310  10.724  2.2877  1.0223 -1.2482
10337TIP3    H252503   1.203   5.446  10.759 -1.7393 -1.0283  1.0445
10338TIP3   OH252504   5.762   3.931   4.140 -0.1244  0.0583  0.0428
10338TIP3    H152505   5.733   3.862   4.080 -2.4366 -0.1823  1.3332
10338TIP3    H252506   5.698   4.001   4.130  0.0701  0.4684  1.4093
10339TIP3   OH252507   0.774   4.322   6.432  0.3721 -0.1193 -0.6962
10339TIP3    H152508   0.729   4.249   6.388  0.6964 -0.0145 -1.2066
10339TIP3    H252509   0.864   4.291   6.444  0.1270 -0.4231  0.5397
10340TIP3   OH252510   4.858   0.448   0.612 -0.0118  0.2874 -0.1308
10340TIP3    H152511   4.933   0.441   0.671 -0.2260  0.4476  0.1671
10340TIP3    H252512   4.885   0.404   0.532  0.4918  0.5702 -0.1173
10341TIP3   OH252513   4.225   5.949   5.779  0.0535 -0.4286  0.3399
10341TIP3    H152514   4.226   6.019   5.714 -0.8114 -1.2717 -0.6089
10341TIP3    H252515   4.276   5.879   5.739 -0.9339 -1.1520  0.3201
10342TIP3   OH252516   6.770   5.402   4.798 -0.1376  0.2609  0.8077
10342TIP3    H152517   6.739   5.413   4.889 -0.4471 -0.8733  0.8476
10342TIP3    H252518   6.803   5.313   4.794  0.2347  0.4275 -0.1084
10343TIP3   OH252519   3.681   1.306   4.949 -0.5878 -0.2253 -0.2102
10343TIP3    H152520   3.697   1.216   4.978  0.7206  0.4117  1.1849
10343TIP3    H252521   3.680   1.301   4.853  1.3701 -1.4537 -0.2220
10344TIP3   OH252522   2.458   0.856   0.995  0.2086  0.2333  0.2302
10344TIP3    H152523   2.428   0.947   0.999 -0.8380 -0.0857 -0.1139
10344TIP3    H252524   2.551   0.861   1.016  0.1439  1.3728  0.3174
10345TIP3   OH252525   4.387   5.970  14.721 -0.9554 -0.4017  0.1664
10345TIP3    H152526   4.317   5.913  14.751  0.3769 -0.8627  2.6890
10345TIP3    H252527   4.392   6.039  14.788 -0.7598  1.1938 -1.4050
10346TIP3   OH252528   1.656   6.754   5.943 -0.2095 -0.1277 -0.0869
10346TIP3    H152529   1.751   6.742   5.942 -0.3139 -0.9769 -0.8177
10346TIP3    H252530   1.635   6.771   6.035  0.9067  2.4705 -0.2229
10347TIP3   OH252531   2.454   2.661   0.358  0.1502 -0.1529  0.8437
10347TIP3    H152532   2.506   2.724   0.407  0.1250 -0.9367  1.9259
10347TIP3    H252533   2.502   2.578   0.366 -0.8603 -0.7263  1.2293
10348TIP3   OH252534   4.050   1.347   1.745  0.0201 -0.3102 -0.5458
10348TIP3    H152535   4.033   1.344   1.651 -0.2195 -1.2491 -0.4826
10348TIP3    H252536   3.976   1.301   1.784 -0.4371  0.9942  0.1884
10349TIP3   OH252537   2.389   6.528   0.972  0.7497 -0.5538 -0.5127
10349TIP3    H152538   2.308   6.577   0.990  0.0039 -1.0289 -2.3024
10349TIP3    H252539   2.435   6.526   1.055 -0.1058  1.5217  0.0856
10350TIP3   OH252540   5.068   2.612   1.330  0.3744  0.3930 -0.7151
10350TIP3    H152541   5.161   2.590   1.326  0.5952  1.4250 -1.8069
10350TIP3    H252542   5.032   2.552   1.396  1.4899 -1.1270 -1.4280
10351TIP3   OH252543   2.218   0.227   6.358 -0.2644  0.2102 -0.2324
10351TIP3    H152544   2.213   0.189   6.446 -0.9718 -1.7721 -1.0767
10351TIP3    H252545   2.146   0.289   6.355  0.8203  1.6241  1.1338
10352TIP3   OH252546   3.846   3.359   3.770 -0.3053 -0.0758 -0.5854
10352TIP3    H152547   3.867   3.451   3.784 -3.5873  1.1899 -2.7577
10352TIP3    H252548   3.828   3.324   3.857 -0.8113  1.9014  0.1401
10353TIP3   OH252549   6.488   1.130   3.555 -0.0628  0.6535 -0.2233
10353TIP3    H152550   6.538   1.129   3.636  1.4799  4.0164 -0.9716
10353TIP3    H252551   6.503   1.043   3.517 -0.6354 -0.9402  2.8410
10354TIP3   OH252552   1.619   2.532   4.443 -0.2628 -0.1892 -0.2601
10354TIP3    H152553   1.593   2.624   4.442 -0.1040 -0.1369  0.1257
10354TIP3    H252554   1.586   2.497   4.361 -3.1654 -0.5875  0.9733
10355TIP3   OH252555   0.754   4.821  15.339 -0.0573  0.7033  0.4988
10355TIP3    H152556   0.787   4.758  15.403  1.1920 -0.2679 -1.0316
10355TIP3    H252557   0.768   4.779  15.254 -1.5555  1.9922 -0.4539
10356TIP3   OH252558   5.937   1.040   5.382  0.1864 -0.4411 -0.3106
10356TIP3    H152559   5.987   1.116   5.354  0.8990 -0.7550  0.0978
10356TIP3    H252560   5.929   1.050   5.477  0.4970 -0.9951 -0.2218
10357TIP3   OH252561   6.584   5.146   3.969 -0.3600 -0.1628  0.0067
10357TIP3    H152562   6.598   5.178   4.058 -0.1540 -1.1004  0.3268
10357TIP3    H252563   6.623   5.212   3.912 -0.4476  0.4126  0.6161
10358TIP3   OH252564   4.064   0.888   1.304  0.9907  0.0050 -0.3952
10358TIP3    H152565   4.116   0.908   1.226 -0.5000 -0.1446 -1.4501
10358TIP3    H252566   4.035   0.973   1.336 -0.4102 -0.0463 -1.4418
10359TIP3   OH252567   3.267   5.887  17.258 -0.4081 -0.0403 -0.1658
10359TIP3    H152568   3.238   5.975  17.235 -1.0909 -0.2147  0.0111
10359TIP3    H252569   3.199   5.854  17.317  0.7863  0.0254  1.3095
10360TIP3   OH252570   5.367   4.919   6.034  0.5172 -0.3528 -0.7470
10360TIP3    H152571   5.437   4.862   6.066  0.6085 -1.0666 -2.1512
10360TIP3    H252572   5.297   4.858   6.008  0.6236  0.1483 -2.2982
10361TIP3   OH252573   1.898   3.965  12.489 -0.9603 -0.5310  0.3909
10361TIP3    H152574   1.890   3.953  12.394 -0.6072  0.5595  0.2101
10361TIP3    H252575   1.967   3.903  12.515 -0.3425 -0.1141 -0.2309
10362TIP3   OH252576   5.823   5.220   3.881  0.5941  0.4759 -0.8044
10362TIP3    H152577   5.835   5.269   3.800 -1.3299 -1.9505 -2.7452
10362TIP3    H252578   5.834   5.128   3.855  0.1597 -0.3950  1.7632
10363TIP3   OH252579   2.291   0.347  15.777  0.1589  0.0851  0.3550
10363TIP3    H152580   2.344   0.339  15.857  0.8396 -1.6038 -0.2324
10363TIP3    H252581   2.200   0.348  15.809  0.4448  1.1372  1.2356
10364TIP3   OH252582   2.482   1.200   2.003  0.5843  0.4954 -0.5009
10364TIP3    H152583   2.540   1.129   2.031 -0.4089  0.3267  1.2950
10364TIP3    H252584   2.540   1.263   1.960  1.5281 -1.2577 -1.9399
10365TIP3   OH252585   4.786   0.354  11.761  0.4307 -0.1732  0.0984
10365TIP3    H152586   4.731   0.297  11.815 -3.1046  2.8414  0.1510
10365TIP3    H252587   4.756   0.338  11.671 -0.5276  1.3507  0.1042
10366TIP3   OH252588   1.343   4.175   0.032 -0.3296  0.1596 -0.5535
10366TIP3    H152589   1.254   4.174   0.069  0.1582  0.0349  0.6687
10366TIP3    H252590   1.363   4.268   0.022 -0.6451  0.1864 -0.9730
10367TIP3   OH252591   2.075   5.945   2.457 -0.3813  0.6943 -0.1313
10367TIP3    H152592   2.125   5.867   2.432  1.4295  1.4988  0.7293
10367TIP3    H252593   2.011   5.957   2.387  0.8711 -0.2204 -1.5030
10368TIP3   OH252594   0.290   1.093   1.768  0.1394  0.2863  0.0462
10368TIP3    H152595   0.374   1.095   1.816 -0.0447  0.7063  0.3565
10368TIP3    H252596   0.308   1.142   1.688  0.9366 -1.8265 -1.1599
10369TIP3   OH252597   3.998   5.281  15.930  0.3050 -0.1254  0.8891
10369TIP3    H152598   4.063   5.320  15.988  1.8244 -1.7982  0.4336
10369TIP3    H252599   4.049   5.252  15.854 -1.5931  2.0064 -1.3679
10370TIP3   OH252600   3.453   4.323   3.694 -0.4308  0.0724 -0.5569
10370TIP3    H152601   3.498   4.241   3.677 -0.7722 -0.3821  0.6001
10370TIP3    H252602   3.414   4.311   3.781  0.0139  1.6759 -0.1079
10371TIP3   OH252603   6.806   3.966  14.660 -0.2546 -0.3810 -0.3855
10371TIP3    H152604   6.759   3.943  14.741 -0.8822 -1.7411 -1.1057
10371TIP3    H252605   6.753   4.034  14.620 -0.8530 -0.8887 -0.4708
10372TIP3   OH252606   3.656   0.384  12.785  0.2815 -0.1581  0.2469
10372TIP3    H152607   3.631   0.385  12.877 -0.8364 -1.4882 -0.0072
10372TIP3    H252608   3.579   0.350  12.740  1.5482 -1.5693 -0.9339
10373TIP3   OH252609   2.365   0.674   1.557 -0.1060  0.3450 -0.7555
10373TIP3    H152610   2.289   0.662   1.501 -0.5410 -1.4286  0.1561
10373TIP3    H252611   2.429   0.609   1.527 -0.3279 -0.6018  0.7170
10374TIP3   OH252612   1.510   6.569  11.839 -0.0458  0.6478 -0.4966
10374TIP3    H152613   1.416   6.564  11.853 -0.1869  1.3234 -1.1538
10374TIP3    H252614   1.548   6.560  11.927 -0.7421  0.9291 -0.1618
10375TIP3   OH252615   0.485   4.031  12.616  0.0808  0.1572 -0.0700
10375TIP3    H152616   0.416   4.088  12.650  0.7590  0.3347  1.0580
10375TIP3    H252617   0.558   4.043  12.677  1.4449  0.6638 -1.7455
10376TIP3   OH252618   1.940   1.768   2.662  0.7877 -0.2299  0.6177
10376TIP3    H152619   2.029   1.736   2.648  0.8329  0.4030 -0.6343
10376TIP3    H252620   1.925   1.756   2.756  2.6320  0.7604  1.0820
10377TIP3   OH252621   4.102   6.773  13.457 -0.0922  0.0048 -0.5382
10377TIP3    H152622   4.165   6.804  13.522  0.9252 -0.7453 -1.1166
10377TIP3    H252623   4.051   6.850  13.433 -0.2879  0.3480  0.9159
10378TIP3   OH252624   0.411   2.576  15.559  0.2437 -0.0332  0.0420
10378TIP3    H152625   0.365   2.655  15.531 -1.1257 -0.7168  0.2292
10378TIP3    H252626   0.356   2.541  15.630  2.2246  0.2729  1.8278
10379TIP3   OH252627   1.185   0.997  16.229  0.0208 -0.5486  0.1107
10379TIP3    H152628   1.196   1.092  16.237  2.0086 -0.8141  1.1792
10379TIP3    H252629   1.142   0.972  16.311 -2.6642 -0.3762 -1.1233
10380TIP3   OH252630   1.654   5.589   6.077 -0.7166  0.1652 -0.8393
10380TIP3    H152631   1.670   5.495   6.067 -0.0769  0.3453 -1.5902
10380TIP3    H252632   1.572   5.604   6.029 -2.6283 -0.5338  1.9591
10381TIP3   OH252633   0.905   3.170  12.037  0.0577 -0.3612 -0.1487
10381TIP3    H152634   0.863   3.092  12.074  0.4757 -0.8964 -0.7906
10381TIP3    H252635   0.969   3.197  12.103  0.8198 -1.3269 -0.4750
10382TIP3   OH252636   0.224   4.427  12.492 -0.3504  0.4515 -0.0089
10382TIP3    H152637   0.162   4.380  12.436 -0.0097 -0.1354  0.0972
10382TIP3    H252638   0.305   4.378  12.484 -0.4006  0.1095  1.3383
10383TIP3   OH252639   3.992   6.791  16.836  0.4740 -0.1406 -0.1072
10383TIP3    H152640   4.088   6.792  16.833  0.5826 -0.5108  1.7566
10383TIP3    H252641   3.970   6.700  16.858 -0.0873  0.5527  2.6134
10384TIP3   OH252642   0.779   2.570   2.209  0.0494 -0.2080 -0.3870
10384TIP3    H152643   0.779   2.597   2.117  1.8350 -0.8143 -0.6197
10384TIP3    H252644   0.845   2.501   2.213  0.5027  0.2796  1.4797
10385TIP3   OH252645   2.360   0.165   4.185  0.2174  0.0972 -0.1482
10385TIP3    H152646   2.356   0.261   4.189  0.1111  0.0589  0.8723
10385TIP3    H252647   2.293   0.136   4.246  0.3094 -0.6371 -0.3879
10386TIP3   OH252648   4.876   2.192  16.037 -0.1349  0.1360  0.2506
10386TIP3    H152649   4.930   2.230  15.967  0.4161 -1.4347 -0.2085
10386TIP3    H252650   4.806   2.146  15.990 -1.3557  1.3394  0.8254
10387TIP3   OH252651   2.424   0.782   2.266 -0.4445  0.9545 -0.4517
10387TIP3    H152652   2.340   0.737   2.258 -1.3749  2.4595  0.2982
10387TIP3    H252653   2.441   0.784   2.360  1.2781 -0.7230 -0.6559
10388TIP3   OH252654   4.462   4.698   1.223  0.3834 -0.2889  0.0533
10388TIP3    H152655   4.509   4.762   1.277 -0.1474 -0.0334  0.2233
10388TIP3    H252656   4.372   4.701   1.255 -0.2939  0.9225 -1.7627
10389TIP3   OH252657   1.019   3.589   4.786  0.9398 -0.4475 -0.2319
10389TIP3    H152658   1.058   3.554   4.706  1.5097 -0.9522  0.2461
10389TIP3    H252659   1.087   3.577   4.853  0.5414  0.1186  0.2912
10390TIP3   OH252660   3.509   5.221   1.185  0.2722  0.5804 -0.1716
10390TIP3    H152661   3.551   5.300   1.151  1.2312 -0.1176 -0.6870
10390TIP3    H252662   3.500   5.164   1.108 -0.5094  0.2255  0.1681
10391TIP3   OH252663   1.960   0.096   5.056  0.6059 -0.2206 -0.0441
10391TIP3    H152664   1.873   0.132   5.035  1.0087  0.1749 -1.1011
10391TIP3    H252665   1.964   0.015   5.006  0.4846 -0.7307  0.7600
10392TIP3   OH252666   1.549   5.294  15.964  0.8981 -0.2236  0.2825
10392TIP3    H152667   1.636   5.333  15.968  0.2320  1.2947  0.7401
10392TIP3    H252668   1.491   5.367  15.941 -0.3137 -1.1095  0.4253
10393TIP3   OH252669   3.232   1.330  12.290 -0.2392 -0.2509 -0.0359
10393TIP3    H152670   3.309   1.368  12.247 -0.1209 -1.4340 -0.9256
10393TIP3    H252671   3.257   1.240  12.309 -1.5050 -0.7485 -0.6228
10394TIP3   OH252672   3.747   0.396   3.056  0.0750 -0.8125 -0.3470
10394TIP3    H152673   3.654   0.373   3.054 -0.1997  0.2490 -0.2242
10394TIP3    H252674   3.750   0.482   3.098  1.3048 -1.6982  1.5193
10395TIP3   OH252675   5.420   4.450  12.652  0.4714  0.0472  0.5058
10395TIP3    H152676   5.388   4.512  12.587 -1.9074 -0.8614  0.6979
10395TIP3    H252677   5.385   4.482  12.735 -0.1646 -1.1245  0.7096
10396TIP3   OH252678   5.099   4.817   5.041 -0.3664  0.2776 -0.7273
10396TIP3    H152679   5.101   4.794   4.948 -0.8215 -0.6865 -0.5070
10396TIP3    H252680   5.044   4.750   5.081 -1.2927  1.4625  0.0325
10397TIP3   OH252681   2.381   2.174   5.007 -0.3777  0.4034  0.3238
10397TIP3    H152682   2.368   2.091   5.053  0.9202  1.1818  2.2362
10397TIP3    H252683   2.468   2.204   5.036 -0.0129  1.5392 -1.7764
10398TIP3   OH252684   3.573   0.566   5.948  0.0534  0.2578 -0.0858
10398TIP3    H152685   3.535   0.483   5.918 -0.0356  1.3872 -3.6703
10398TIP3    H252686   3.503   0.630   5.934  0.7030  1.2004  0.8985
10399TIP3   OH252687   5.683   2.816  16.378  0.0486  0.3352  0.0347
10399TIP3    H152688   5.604   2.849  16.421 -0.8999  0.2989 -1.6251
10399TIP3    H252689   5.752   2.877  16.406 -0.2888 -0.2489  2.3651
10400TIP3   OH252690   2.054   0.463  11.842 -0.2437 -0.2562 -0.4257
10400TIP3    H152691   2.149   0.466  11.849 -0.2101  0.5573 -1.0866
10400TIP3    H252692   2.029   0.380  11.883  0.7307 -0.3890 -0.0869
10401TIP3   OH252693   1.346   1.336  15.107  0.3521 -0.7124 -0.2412
10401TIP3    H152694   1.302   1.252  15.095  1.2077 -1.3876  1.0394
10401TIP3    H252695   1.330   1.359  15.199  1.2250 -0.1407 -0.2150
10402TIP3   OH252696   3.880   3.710  16.406  0.0815  0.1143 -0.1155
10402TIP3    H152697   3.812   3.650  16.373  0.8649 -1.1571  0.5104
10402TIP3    H252698   3.878   3.698  16.501 -1.6196  3.1625  0.3579
10403TIP3   OH252699   3.515   1.252   5.237 -0.2967 -0.5387 -0.0329
10403TIP3    H152700   3.470   1.191   5.178  1.3137 -1.5846 -0.2308
10403TIP3    H252701   3.485   1.227   5.325 -0.8379 -0.5700 -0.2180
10404TIP3   OH252702   3.913   6.365  15.945 -0.0460 -0.2617 -0.0887
10404TIP3    H152703   3.822   6.360  15.915 -0.3541  1.6769  0.3820
10404TIP3    H252704   3.962   6.317  15.880 -1.2248  0.1286 -1.3142
10405TIP3   OH252705   1.201   1.572  14.773 -0.2151 -0.1725 -0.5469
10405TIP3    H152706   1.169   1.545  14.687  0.1743 -0.5481 -0.5782
10405TIP3    H252707   1.129   1.621  14.811  0.0118  0.9652 -1.5317
10406TIP3   OH252708   1.683   2.104  12.043  0.7498 -0.1473  0.4379
10406TIP3    H152709   1.720   2.047  11.976  0.1114  2.8642 -2.8122
10406TIP3    H252710   1.590   2.084  12.043  0.3804  1.2837 -1.3343
10407TIP3   OH252711   5.567   1.444  12.275  0.1750  0.2066  0.6749
10407TIP3    H152712   5.661   1.451  12.292 -0.0143  0.7562  1.6421
10407TIP3    H252713   5.527   1.484  12.353 -0.8104  3.9121 -1.5117
10408TIP3   OH252714   5.818   2.865   3.056 -0.3818  0.3956  0.4022
10408TIP3    H152715   5.859   2.820   3.131 -1.0793 -1.5771 -0.3351
10408TIP3    H252716   5.769   2.937   3.095  0.6212  0.4300  1.6746
10409TIP3   OH252717   2.176   5.690  10.820 -0.0306 -0.3070 -0.2530
10409TIP3    H152718   2.214   5.771  10.788  0.8372  0.0078  1.4221
10409TIP3    H252719   2.220   5.621  10.771 -0.1407  0.2046 -1.0722
10410TIP3   OH252720   6.035   5.877  11.255  0.3836  0.0251  0.2707
10410TIP3    H152721   6.041   5.898  11.162  1.8409 -0.4735  0.2246
10410TIP3    H252722   6.020   5.961  11.298  2.3945  0.6681 -0.2121
10411TIP3   OH252723   6.247   5.333   2.493  0.4241  0.3078  0.4033
10411TIP3    H152724   6.334   5.371   2.479  0.6274  0.3471  1.7188
10411TIP3    H252725   6.186   5.404   2.471  0.6690  0.0075 -1.4053
10412TIP3   OH252726   3.526   6.450   2.648  1.0842 -0.0940  0.1405
10412TIP3    H152727   3.454   6.510   2.665 -0.6100 -1.9050 -0.2172
10412TIP3    H252728   3.508   6.375   2.705  0.8306 -1.9654 -2.2052
10413TIP3   OH252729   5.324   1.801   6.155  0.1888  0.1904 -0.7159
10413TIP3    H152730   5.405   1.751   6.153  0.1502  0.1449 -2.1616
10413TIP3    H252731   5.352   1.892   6.169  0.3492 -0.0334  0.5272
10414TIP3   OH252732   2.695   0.296  17.270 -0.0764  0.6142 -0.1524
10414TIP3    H152733   2.703   0.206  17.237 -1.6706  1.0042 -1.7789
10414TIP3    H252734   2.602   0.305  17.290  0.2777  1.5346  1.2016
10415TIP3   OH252735   4.115   6.272  15.753  0.4400 -0.4100  0.4124
10415TIP3    H152736   4.181   6.225  15.703  0.7087 -0.9385  1.2500
10415TIP3    H252737   4.153   6.358  15.769  0.7090 -0.5378  0.4556
10416TIP3   OH252738   1.774   3.437  14.715  0.0610  0.0601 -0.5061
10416TIP3    H152739   1.852   3.397  14.754 -0.2472  0.9732  1.1270
10416TIP3    H252740   1.785   3.531  14.729 -2.9107  0.1078  3.1448
10417TIP3   OH252741   0.777   2.813  10.737  0.8782  0.1133 -0.1748
10417TIP3    H152742   0.713   2.772  10.796  1.8430 -0.8377  0.2465
10417TIP3    H252743   0.814   2.885  10.788 -0.6935  1.4546 -0.8510
10418TIP3   OH252744   6.477   1.864   1.205 -0.4264 -0.2352 -0.5555
10418TIP3    H152745   6.456   1.799   1.272 -0.6709 -0.0887 -0.4888
10418TIP3    H252746   6.487   1.813   1.125  1.5868 -0.6465 -0.1066
10419TIP3   OH252747   0.014   0.856  14.870 -0.1754 -0.1692 -0.0145
10419TIP3    H152748   0.087   0.818  14.920  0.6291  1.6051  0.2269
10419TIP3    H252749  -0.034   0.909  14.934 -0.2375  0.6172 -0.6971
10420TIP3   OH252750   2.288   3.138  15.535 -0.0520 -0.5311  0.1904
10420TIP3    H152751   2.371   3.110  15.497 -0.0709 -0.0127 -0.2466
10420TIP3    H252752   2.288   3.233  15.524  0.4187 -0.2243  2.4538
10421TIP3   OH252753   0.220   6.096   5.107 -0.4392 -0.3696 -0.3880
10421TIP3    H152754   0.128   6.074   5.096 -0.9450  0.8402  1.0612
10421TIP3    H252755   0.225   6.190   5.088  0.5935 -0.5192 -0.9444
10422TIP3   OH252756   1.630   1.730   5.607 -0.2374 -0.6117  0.5437
10422TIP3    H152757   1.551   1.710   5.658 -0.2803  1.5587  1.4015
10422TIP3    H252758   1.611   1.693   5.520 -2.1313 -0.3127  0.7763
10423TIP3   OH252759   6.456   4.515  15.623  1.0638 -0.2376 -0.1517
10423TIP3    H152760   6.529   4.550  15.675  0.8849 -0.7736  0.4780
10423TIP3    H252761   6.451   4.423  15.648 -1.0984  0.2048  1.3292
10424TIP3   OH252762   1.259   5.435   3.629 -0.2547  0.3467 -1.0642
10424TIP3    H152763   1.287   5.399   3.545 -0.9728  1.2363 -1.7009
10424TIP3    H252764   1.270   5.362   3.691  2.9735  0.4579 -1.3242
10425TIP3   OH252765   5.431   6.454   1.476  0.1988  0.6735  0.4977
10425TIP3    H152766   5.375   6.390   1.431  0.0679  0.8353  0.4275
10425TIP3    H252767   5.452   6.519   1.408 -0.5482  1.2820  0.8383
10426TIP3   OH252768   0.686   3.378  17.232 -0.1760 -0.2523 -0.5008
10426TIP3    H152769   0.664   3.393  17.140  0.3438 -0.3129 -0.6361
10426TIP3    H252770   0.610   3.332  17.268 -1.5948  2.1652 -0.2137
10427TIP3   OH252771   3.544   6.785  12.139  0.0968  0.0828  0.2208
10427TIP3    H152772   3.483   6.739  12.080 -0.2305  0.7197  0.0544
10427TIP3    H252773   3.613   6.721  12.157 -1.0430 -0.9475  1.0759
10428TIP3   OH252774   0.466   6.116   3.878  0.8010  0.2614  0.1901
10428TIP3    H152775   0.396   6.173   3.846  0.3222 -0.0534  0.6509
10428TIP3    H252776   0.453   6.033   3.832  1.6760  0.6013 -0.6992
10429TIP3   OH252777   4.305   4.310  10.756  0.2048  0.1255  0.3878
10429TIP3    H152778   4.252   4.231  10.763 -1.0077  0.9096  0.2661
10429TIP3    H252779   4.324   4.334  10.847  1.5211 -0.8959  0.4137
10430TIP3   OH252780   1.206   5.799  14.553 -0.3761  0.4001 -0.0893
10430TIP3    H152781   1.223   5.882  14.597 -2.7261  0.4841  0.7542
10430TIP3    H252782   1.144   5.753  14.609 -0.1585 -1.3759 -1.2065
10431TIP3   OH252783   1.732   1.378  16.262 -0.0075 -0.4150  0.2398
10431TIP3    H152784   1.824   1.393  16.280 -0.2061 -0.7809  1.6836
10431TIP3    H252785   1.692   1.466  16.265  0.2860 -0.2469 -0.4824
10432TIP3   OH252786   2.094   0.975   3.365  0.3843 -0.6594 -0.6437
10432TIP3    H152787   2.108   0.996   3.273  0.0300  0.3249 -0.4945
10432TIP3    H252788   2.032   1.042   3.395  0.7357 -0.7735  0.3819
10433TIP3   OH252789   3.648   0.626   1.403  0.3045 -0.1789  0.5960
10433TIP3    H152790   3.582   0.696   1.398  0.1913 -0.3241 -0.0169
10433TIP3    H252791   3.685   0.621   1.315  1.5202  0.2556  1.0605
10434TIP3   OH252792   4.825   5.166   0.879  0.1425  0.3849  0.5800
10434TIP3    H152793   4.805   5.257   0.858 -3.6624 -0.3752  0.3338
10434TIP3    H252794   4.830   5.122   0.794 -2.5243 -0.3582  0.7275
10435TIP3   OH252795   5.635   4.398   3.856  0.1649 -0.0475  0.3902
10435TIP3    H152796   5.602   4.310   3.836  3.0027 -1.0555 -0.3475
10435TIP3    H252797   5.565   4.456   3.826 -2.5100 -1.9997  2.3395
10436TIP3   OH252798   2.251   0.258  15.084  0.0214 -0.2093 -0.3270
10436TIP3    H152799   2.320   0.300  15.032  0.0518 -0.4413 -0.4763
10436TIP3    H252800   2.261   0.295  15.172  0.9045 -0.9001 -0.1224
10437TIP3   OH252801   6.730   6.234  13.781  0.0400  0.8257  0.2435
10437TIP3    H152802   6.795   6.296  13.812  2.3044 -1.1674 -0.2748
10437TIP3    H252803   6.723   6.251  13.687 -2.0309  2.5526  0.6104
10438TIP3   OH252804   5.337   3.210  11.622  1.0473  0.3139 -0.0701
10438TIP3    H152805   5.329   3.115  11.637  1.6550  0.5476  2.0022
10438TIP3    H252806   5.247   3.241  11.620  0.8569 -0.0559  1.3597
10439TIP3   OH252807   5.208   2.128  14.903 -0.3170  0.3039 -0.4284
10439TIP3    H152808   5.188   2.216  14.871 -0.2356  0.6254  0.3695
10439TIP3    H252809   5.233   2.079  14.825 -1.6068  0.6258 -1.0726
10440TIP3   OH252810   2.705   6.581  12.597 -0.1368 -0.2346 -0.3463
10440TIP3    H152811   2.633   6.642  12.613  0.8989  0.5785  1.5817
10440TIP3    H252812   2.677   6.499  12.638 -0.5851 -0.3857 -0.9445
10441TIP3   OH252813   3.366   4.886   4.130  0.0051 -0.1375  0.0255
10441TIP3    H152814   3.379   4.820   4.198  1.2234  0.7970  0.7541
10441TIP3    H252815   3.280   4.923   4.148  0.0453 -0.3509  0.6750
10442TIP3   OH252816   3.938   3.773  12.280  0.0062  0.0874 -0.0112
10442TIP3    H152817   4.021   3.726  12.282 -0.2047 -0.3891 -1.2973
10442TIP3    H252818   3.883   3.721  12.222 -0.9518  0.7891  0.2455
10443TIP3   OH252819   2.688   3.269   5.060  0.3922 -0.2564  0.3886
10443TIP3    H152820   2.688   3.356   5.099  1.7295 -0.2950  0.4990
10443TIP3    H252821   2.618   3.272   4.994 -0.5797  0.4174  1.4163
10444TIP3   OH252822   4.174   2.666   2.155  0.2828  0.1793 -0.1234
10444TIP3    H152823   4.187   2.572   2.166  0.8798  0.2926  0.1975
10444TIP3    H252824   4.250   2.695   2.104  1.7017  0.9518  2.2660
10445TIP3   OH252825   1.923   4.303  14.048 -0.3650  0.1885  0.3898
10445TIP3    H152826   2.012   4.269  14.041 -0.9483 -1.5491  0.9703
10445TIP3    H252827   1.897   4.320  13.958  0.0159 -0.7728  0.0803
10446TIP3   OH252828   3.171   5.770   0.410 -0.0504  0.3748 -0.8374
10446TIP3    H152829   3.127   5.725   0.482 -0.5193 -0.6716 -1.7645
10446TIP3    H252830   3.111   5.841   0.386 -0.0681  0.4914 -0.4628
10447TIP3   OH252831   0.621   6.743   0.644 -0.1003  0.2886 -0.5430
10447TIP3    H152832   0.564   6.738   0.721 -1.8626  0.8716 -1.7371
10447TIP3    H252833   0.707   6.717   0.676 -1.3288 -2.3580  1.0075
10448TIP3   OH252834   4.362   5.677   0.554  0.2848  0.3200 -0.5622
10448TIP3    H152835   4.418   5.683   0.476 -0.9531 -1.1167 -1.6350
10448TIP3    H252836   4.421   5.648   0.623  1.4502  1.7687 -0.8778
10449TIP3   OH252837   4.630   6.038  15.398  0.5276  0.1377  0.1713
10449TIP3    H152838   4.588   6.090  15.467  0.5675  1.0050 -0.4439
10449TIP3    H252839   4.596   5.950  15.411 -2.5314  0.9827 -1.0205
10450TIP3   OH252840   5.609   6.269   2.331 -0.0591  0.3584 -0.2111
10450TIP3    H152841   5.679   6.207   2.309  0.9501  1.0885  0.8319
10450TIP3    H252842   5.654   6.353   2.343 -0.4560  0.1873  4.0629
10451TIP3   OH252843   3.953   4.933   3.598  0.4670  0.1225 -0.3355
10451TIP3    H152844   4.041   4.901   3.613  0.9345  1.0330 -1.0464
10451TIP3    H252845   3.965   5.023   3.567 -0.6969  0.1686 -0.6974
10452TIP3   OH252846   2.217   3.236  17.062 -0.5113  0.5913  0.4027
10452TIP3    H152847   2.206   3.325  17.029  0.2405  0.2887 -0.7085
10452TIP3    H252848   2.139   3.189  17.034  0.1220  0.3338 -1.0185
10453TIP3   OH252849   5.658   1.022   0.329 -0.2435 -0.3262 -0.1919
10453TIP3    H152850   5.671   0.957   0.398 -0.7546 -1.0658 -0.7834
10453TIP3    H252851   5.572   1.002   0.292 -0.3948  0.6605 -0.4153
10454TIP3   OH252852   4.695   2.054   0.459 -0.4183  0.2666  0.4762
10454TIP3    H152853   4.628   1.987   0.444 -0.2325  0.4973 -1.8257
10454TIP3    H252854   4.775   2.017   0.421  0.3407  0.7272  1.5757
10455TIP3   OH252855   3.195   1.569  11.347 -0.6900  0.4535 -0.1558
10455TIP3    H152856   3.276   1.522  11.367  0.1386  0.7500 -2.4352
10455TIP3    H252857   3.127   1.523  11.395  0.6507 -0.6047  0.8003
10456TIP3   OH252858   1.693   1.045  12.451 -0.3601  0.2521 -0.3213
10456TIP3    H152859   1.710   0.962  12.496  0.2236 -0.5077 -1.8810
10456TIP3    H252860   1.777   1.070  12.412 -0.9570  0.5926 -1.4441
10457TIP3   OH252861   2.044   3.948  11.277  0.5117 -0.7748 -0.0635
10457TIP3    H152862   2.116   3.919  11.333  0.6075 -1.5558 -0.5646
10457TIP3    H252863   1.975   3.883  11.292 -0.4235  0.4100  1.0233
10458TIP3   OH252864   1.831   3.561   4.145 -0.7906 -0.3256  0.1762
10458TIP3    H152865   1.897   3.591   4.207  0.7022 -1.1477 -0.9458
10458TIP3    H252866   1.757   3.535   4.199 -0.0076  0.1295  1.5202
10459TIP3   OH252867   6.390   4.933  10.934 -0.0345 -0.4455  0.2927
10459TIP3    H152868   6.386   4.877  10.856  2.5857 -0.8949  0.4123
10459TIP3    H252869   6.443   4.883  10.997  1.0223  1.4677  0.9844
10460TIP3   OH252870   3.589   5.691   3.813 -0.0021 -0.5468 -0.0354
10460TIP3    H152871   3.628   5.617   3.859  1.9832  0.3104 -0.2105
10460TIP3    H252872   3.599   5.669   3.720  0.3449 -0.2024 -0.0838
10461TIP3   OH252873   4.326   1.537  13.444  0.5448 -0.1153 -0.1012
10461TIP3    H152874   4.339   1.611  13.384  1.8315  0.1494  0.4709
10461TIP3    H252875   4.250   1.491  13.409  0.3573  0.8847 -1.0713
10462TIP3   OH252876   2.027   4.135   0.938  0.0981 -0.0640 -0.0959
10462TIP3    H152877   2.042   4.051   0.894 -1.4121  0.0461 -0.9053
10462TIP3    H252878   2.031   4.114   1.031  2.1023 -0.5488 -0.2430
10463TIP3   OH252879   1.334   3.895   4.052 -0.1514 -0.0176 -0.0890
10463TIP3    H152880   1.333   3.987   4.028 -0.2740 -0.0622 -0.2541
10463TIP3    H252881   1.276   3.852   3.989  0.2585 -0.2752 -0.3002
10464TIP3   OH252882   2.757   2.869   1.855 -0.3611 -0.1448  0.4968
10464TIP3    H152883   2.795   2.821   1.782 -0.2783 -1.1502  1.1832
10464TIP3    H252884   2.793   2.957   1.847  0.9020 -0.6707  0.2377
10465TIP3   OH252885   1.626   3.524   5.627  0.8552  0.2360  0.0925
10465TIP3    H152886   1.561   3.456   5.640  1.5054 -0.1812  1.3243
10465TIP3    H252887   1.576   3.606   5.626  0.3963  0.0651  2.5653
10466TIP3   OH252888   5.464   1.334   6.614  0.1162 -0.2140 -0.0227
10466TIP3    H152889   5.519   1.271   6.567  0.3659 -0.2704  0.3449
10466TIP3    H252890   5.377   1.295   6.616  0.3707 -0.7460  0.5985
10467TIP3   OH252891   2.969   0.586  15.459 -0.7988  0.6751 -0.0265
10467TIP3    H152892   2.991   0.606  15.550 -1.2335  0.1576  0.1952
10467TIP3    H252893   2.946   0.493  15.460 -0.8352  0.6747 -0.6608
10468TIP3   OH252894   3.943   5.596   1.089 -0.0872 -0.0273 -0.7565
10468TIP3    H152895   3.866   5.640   1.125 -0.5678 -1.5264  0.1593
10468TIP3    H252896   3.914   5.561   1.005  0.5000  1.9086 -1.8267
10469TIP3   OH252897   5.053   1.732  11.891  0.4608 -0.2835  0.3695
10469TIP3    H152898   4.990   1.665  11.866  1.0597 -0.9230  0.5610
10469TIP3    H252899   5.027   1.758  11.979  0.7328 -0.8747  0.6290
10470TIP3   OH252900   3.838   0.753   1.048  0.0352  0.1515 -0.1269
10470TIP3    H152901   3.769   0.737   0.984  0.7518  0.2506 -0.9488
10470TIP3    H252902   3.814   0.837   1.088 -0.5893 -0.0676 -0.0351
10471TIP3   OH252903   0.037   1.138  12.870  0.0523 -0.4572  0.1554
10471TIP3    H152904   0.090   1.086  12.810 -1.0296 -0.9549 -0.4104
10471TIP3    H252905   0.090   1.215  12.889  0.1060  0.1575 -2.1625
10472TIP3   OH252906   2.204   2.488   4.168 -0.5779  0.1783 -0.0343
10472TIP3    H152907   2.148   2.413   4.148  1.8892 -1.8368  0.1123
10472TIP3    H252908   2.268   2.489   4.098 -0.1488  1.7498  0.3521
10473TIP3   OH252909   0.180   3.320  13.574 -0.0550  0.0421  0.4527
10473TIP3    H152910   0.164   3.274  13.492  0.6195 -1.9508  1.3666
10473TIP3    H252911   0.114   3.389  13.577 -0.6755 -0.4371 -1.3196
10474TIP3   OH252912   5.875   0.155   2.526  0.0423  0.3608  0.3090
10474TIP3    H152913   5.925   0.170   2.606 -0.6653 -1.6800  1.2086
10474TIP3    H252914   5.790   0.125   2.556 -0.4092  0.0458 -1.2066
10475TIP3   OH252915   2.324   0.884  14.160  0.0860 -0.4642 -0.1427
10475TIP3    H152916   2.285   0.914  14.078  0.8996  0.4188 -0.2149
10475TIP3    H252917   2.276   0.931  14.228 -0.3538 -0.9378 -0.1132
10476TIP3   OH252918   0.815   3.868  11.293  0.2455  0.5233  0.4045
10476TIP3    H152919   0.852   3.910  11.215 -0.8906 -1.8177 -1.5173
10476TIP3    H252920   0.872   3.793  11.309 -0.3168  0.2169  1.0126
10477TIP3   OH252921   6.002   6.701  15.404  0.0157  0.1211  0.3458
10477TIP3    H152922   5.935   6.739  15.346 -0.2451 -0.2176  0.4204
10477TIP3    H252923   6.001   6.756  15.482 -1.7297 -1.1385  1.2807
10478TIP3   OH252924   0.537   1.482   6.405 -0.1281  0.0075  0.3181
10478TIP3    H152925   0.443   1.490   6.415  0.1989  1.3426  3.0344
10478TIP3    H252926   0.573   1.563   6.440  2.0416 -0.1892 -1.2203
10479TIP3   OH252927   5.000   5.338   2.262 -0.4510 -0.9419 -0.2557
10479TIP3    H152928   5.086   5.300   2.243  2.0111  3.6133  0.5198
10479TIP3    H252929   5.001   5.356   2.356 -2.4154 -0.9724 -0.1754
10480TIP3   OH252930   4.494   5.926   1.429 -0.3026  0.0103 -0.2648
10480TIP3    H152931   4.568   5.878   1.391  0.1900  0.3205  0.2861
10480TIP3    H252932   4.495   5.901   1.522  0.1888  1.3575  0.1121
10481TIP3   OH252933   4.553   3.541  13.834 -0.2849  0.2001  0.3455
10481TIP3    H152934   4.535   3.603  13.763  0.0342  0.4584  0.4879
10481TIP3    H252935   4.466   3.514  13.865 -0.4284  0.8642  0.5350
10482TIP3   OH252936   2.666   4.930  14.829 -0.0256 -0.0109  1.0036
10482TIP3    H152937   2.630   4.935  14.918  0.2146 -0.1123  1.1056
10482TIP3    H252938   2.740   4.870  14.836  0.8704  1.0671  1.0245
10483TIP3   OH252939   3.968   0.488   3.796 -0.0302  0.2070  0.1717
10483TIP3    H152940   3.967   0.566   3.852 -2.4049  1.0962 -0.9373
10483TIP3    H252941   3.916   0.424   3.843  1.1763 -0.4246  0.6758
10484TIP3   OH252942   4.950   6.474  12.804 -0.0771 -0.1351 -0.1758
10484TIP3    H152943   4.946   6.531  12.881  0.2362 -0.1391 -0.1541
10484TIP3    H252944   5.024   6.416  12.822  1.2183  1.0898 -1.3138
10485TIP3   OH252945   4.580   0.460   0.938 -0.6086  0.2603 -0.4869
10485TIP3    H152946   4.529   0.447   1.018  0.7502  1.5490  0.6552
10485TIP3    H252947   4.541   0.537   0.897 -0.5543  0.3227 -0.4221
10486TIP3   OH252948   0.815   2.288   4.339  0.1687 -0.4270  0.4029
10486TIP3    H152949   0.742   2.294   4.277  0.2560  0.0623  0.3464
10486TIP3    H252950   0.892   2.282   4.283  0.1852 -0.8002  0.4636
10487TIP3   OH252951   4.000   2.800  16.661  0.0605  0.0869 -0.0718
10487TIP3    H152952   3.908   2.774  16.668  0.2854 -1.6354 -2.2962
10487TIP3    H252953   4.048   2.725  16.695  0.6751  0.5140  0.0053
10488TIP3   OH252954   0.972   6.800   0.297  0.0719  0.4447  0.1304
10488TIP3    H152955   1.009   6.744   0.365 -1.9810 -0.1977  0.8124
10488TIP3    H252956   1.047   6.845   0.259  1.6754 -1.7964  0.4229
10489TIP3   OH252957   3.606   4.089  11.388 -0.4836  0.4486 -0.3097
10489TIP3    H152958   3.591   4.032  11.463  0.6564  2.7362  1.8122
10489TIP3    H252959   3.535   4.154  11.392  0.4898  1.5435 -0.1736
10490TIP3   OH252960   0.995   2.168  16.019  0.4721 -0.1545 -0.3605
10490TIP3    H152961   0.941   2.191  15.943  0.8963  1.4337 -0.2156
10490TIP3    H252962   1.082   2.201  15.998  1.4116 -2.5707 -0.5238
10491TIP3   OH252963   1.833   3.153  10.786  0.1537  0.0025  0.7010
10491TIP3    H152964   1.753   3.167  10.836 -1.3376 -0.1440 -1.5052
10491TIP3    H252965   1.886   3.231  10.802 -1.2853  1.0067  0.7223
10492TIP3   OH252966   2.708   3.952   4.610 -0.0798 -0.5678  0.6743
10492TIP3    H152967   2.756   3.872   4.632 -0.4847 -1.4096 -1.3366
10492TIP3    H252968   2.616   3.926   4.609 -0.1068 -0.5637 -1.6564
10493TIP3   OH252969   5.639   6.282  14.662 -0.4505 -0.2561  0.2512
10493TIP3    H152970   5.651   6.307  14.753 -0.7771 -0.4043  0.3342
10493TIP3    H252971   5.588   6.354  14.624 -1.3008 -0.7296  0.4648
10494TIP3   OH252972   5.151   2.059  17.269  0.5664 -0.3697 -0.2891
10494TIP3    H152973   5.102   2.078  17.189 -0.5452 -0.2601  0.3834
10494TIP3    H252974   5.240   2.039  17.239 -0.1340 -1.6450 -1.6614
10495TIP3   OH252975   0.708   3.148   5.805 -0.1654  0.4859  0.1280
10495TIP3    H152976   0.754   3.068   5.779  0.5881 -0.1191  2.9512
10495TIP3    H252977   0.772   3.196   5.857 -1.0467  2.3281 -0.4010
10496TIP3   OH252978   6.151   2.988   3.736 -0.3238 -0.0484 -0.0254
10496TIP3    H152979   6.099   2.980   3.816 -1.1248  1.0916 -0.4083
10496TIP3    H252980   6.122   3.070   3.696 -0.6156 -1.0470 -1.9704
10497TIP3   OH252981   6.280   0.402  10.777 -0.5223  0.1105  0.4123
10497TIP3    H152982   6.236   0.338  10.720 -0.4334 -0.6594  1.1935
10497TIP3    H252983   6.355   0.431  10.726  0.0603 -1.2340  0.4546
10498TIP3   OH252984   0.527   2.799  15.972  0.2089  0.1137  0.0106
10498TIP3    H152985   0.543   2.856  16.047  1.1943  0.3941 -0.3960
10498TIP3    H252986   0.515   2.858  15.898 -0.0558 -0.1760 -0.1788
10499TIP3   OH252987   5.004   2.577   3.158  0.3039 -0.4138  0.3347
10499TIP3    H152988   4.961   2.646   3.207  0.8901  0.2689 -0.0841
10499TIP3    H252989   5.047   2.523   3.224 -0.8969 -0.9169  0.7267
10500TIP3   OH252990   2.432   3.449   1.936  0.2758 -0.5729 -0.4914
10500TIP3    H152991   2.506   3.494   1.895 -0.9126  0.1244 -1.9538
10500TIP3    H252992   2.389   3.402   1.865 -0.1353 -1.7873  0.5086
10501TIP3   OH252993   6.218   1.899   5.456  1.0383  0.5247 -0.3114
10501TIP3    H152994   6.136   1.940   5.481  2.0930  2.5361  0.0646
10501TIP3    H252995   6.231   1.924   5.364  0.8256 -0.5113 -0.6332
10502TIP3   OH252996   4.039   0.072   0.782  0.4112 -0.2701 -0.1096
10502TIP3    H152997   4.051   0.091   0.875 -0.6890  2.9733 -0.5069
10502TIP3    H252998   3.951   0.033   0.777  1.0600 -1.8646  0.3015
10503TIP3   OH252999   2.993   5.055  12.539  0.5661 -0.3485 -0.1072
10503TIP3    H153000   2.972   5.020  12.626 -0.1772 -1.1554 -0.5922
10503TIP3    H253001   3.026   4.979  12.490  0.1212 -0.1119 -0.7954
10504TIP3   OH253002   5.226   3.633  11.657  0.6311  0.0591 -0.5824
10504TIP3    H153003   5.211   3.581  11.578  2.9869 -0.7353 -0.5837
10504TIP3    H253004   5.278   3.707  11.627 -1.5793  1.7989 -0.3451
10505TIP3   OH253005   5.732   0.851  11.146 -0.1206  0.7621  0.2489
10505TIP3    H153006   5.658   0.910  11.129  0.2358  1.6385  1.5242
10505TIP3    H253007   5.792   0.867  11.074 -0.8665  0.5561 -0.4326
10506TIP3   OH253008   6.156   2.317  11.542  0.1525  0.1863  0.1298
10506TIP3    H153009   6.208   2.391  11.575 -0.5051  0.5227  0.4136
10506TIP3    H253010   6.081   2.311  11.600 -0.9669  0.7137 -1.1976
10507TIP3   OH253011   0.084   6.211  12.768  0.2280  0.0445  0.1805
10507TIP3    H153012  -0.005   6.240  12.752  0.3453 -0.8551 -2.5034
10507TIP3    H253013   0.077   6.117  12.784  0.6250  0.1396  0.9864
10508TIP3   OH253014   2.612   3.933  17.168  0.1122  0.1256  0.0645
10508TIP3    H153015   2.608   4.015  17.218 -1.7471  0.4791 -0.5955
10508TIP3    H253016   2.614   3.864  17.235  0.9991  0.6748  0.6206
10509TIP3   OH253017   3.482   5.571  13.624  0.1340 -0.5430  0.1977
10509TIP3    H153018   3.574   5.589  13.641  0.2607 -0.2039 -0.7963
10509TIP3    H253019   3.448   5.652  13.587 -0.9042 -0.2078  1.7701
10510TIP3   OH253020   3.860   1.877   4.146 -0.2648  0.1058 -0.5892
10510TIP3    H153021   3.782   1.932   4.142 -0.8284 -0.6977 -1.0586
10510TIP3    H253022   3.830   1.796   4.188  0.8420  0.6023  1.2753
10511TIP3   OH253023   2.479   6.727  14.638 -0.2977  0.2818  0.2571
10511TIP3    H153024   2.514   6.674  14.566 -0.9532  1.7936 -1.2431
10511TIP3    H253025   2.399   6.682  14.664 -0.1059 -0.2347 -0.0273
10512TIP3   OH253026   2.723   1.313   1.336 -0.5068 -0.4811  0.0555
10512TIP3    H153027   2.673   1.389   1.365 -0.2972 -0.2584 -0.1696
10512TIP3    H253028   2.657   1.245   1.321 -0.9240  0.3064 -1.8504
10513TIP3   OH253029   6.550   3.127  15.692  0.3576 -0.1826 -0.8282
10513TIP3    H153030   6.575   3.038  15.714 -1.1774 -0.2240  1.0004
10513TIP3    H253031   6.463   3.119  15.651  0.3943  0.4400 -1.0519
10514TIP3   OH253032   6.528   4.383   4.609  0.2195 -0.1934 -0.4689
10514TIP3    H153033   6.583   4.429   4.546  0.4135  0.0859 -0.1017
10514TIP3    H253034   6.466   4.333   4.556  1.2420 -1.0407 -0.9131
10515TIP3   OH253035   3.231   4.004  11.668 -0.1709 -0.1992  0.1558
10515TIP3    H153036   3.176   3.996  11.590  1.3121  1.4106 -1.1499
10515TIP3    H253037   3.242   3.915  11.700  0.0505 -1.0671 -2.1412
10516TIP3   OH253038   6.232   2.854   6.588 -0.0783  0.0023 -0.2576
10516TIP3    H153039   6.200   2.777   6.633 -2.0054  0.7879 -0.1951
10516TIP3    H253040   6.160   2.881   6.531  1.2262  0.7083 -1.6751
10517TIP3   OH253041   1.981   3.759   0.375 -0.3650  0.4992 -0.3429
10517TIP3    H153042   1.936   3.684   0.414  1.4967 -0.5415 -0.1111
10517TIP3    H253043   1.970   3.830   0.438  1.5494 -0.8108  1.5847
10518TIP3   OH253044   5.845   1.734  15.778 -0.2290  0.5143  0.1682
10518TIP3    H153045   5.867   1.650  15.819  3.1289  1.2605  0.2076
10518TIP3    H253046   5.846   1.715  15.684  0.9894  0.5435  0.1561
10519TIP3   OH253047   1.232   6.639  14.872 -0.3604  0.2131  0.3992
10519TIP3    H153048   1.255   6.567  14.813 -1.4159  1.1734 -1.2721
10519TIP3    H253049   1.137   6.644  14.869 -0.4281  0.4955  1.9954
10520TIP3   OH253050   4.227   6.666  14.339 -0.4509 -0.2342 -0.3231
10520TIP3    H153051   4.133   6.648  14.334 -0.4469 -0.6244  0.7611
10520TIP3    H253052   4.269   6.591  14.298 -0.5985 -0.2999 -0.3526
10521TIP3   OH253053   4.932   4.608   2.566 -0.0387 -0.0523 -0.4556
10521TIP3    H153054   4.894   4.662   2.497  0.1057 -0.3000 -0.7312
10521TIP3    H253055   4.935   4.520   2.529 -2.1007 -0.6553  0.6879
10522TIP3   OH253056   2.451   2.610   2.993 -0.1387  0.1299  0.0914
10522TIP3    H153057   2.396   2.587   3.068  1.0045 -0.5657  0.7632
10522TIP3    H253058   2.538   2.578   3.017  0.4893  0.8664 -1.0812
10523TIP3   OH253059   5.258   2.145  16.180  0.3710  0.0681 -0.4266
10523TIP3    H153060   5.290   2.223  16.134  0.4673 -0.1071 -0.6615
10523TIP3    H253061   5.248   2.173  16.271 -2.0092  1.0826 -0.9300
10524TIP3   OH253062   6.746   6.739   2.503 -0.5130 -0.3388  0.3096
10524TIP3    H153063   6.788   6.660   2.468 -0.2500  0.2054 -0.6159
10524TIP3    H253064   6.692   6.772   2.431  2.3546  2.5005 -0.7503
10525TIP3   OH253065   5.823   3.058   1.772  0.0786  0.4046 -0.0907
10525TIP3    H153066   5.908   3.025   1.744 -0.6350 -0.7166 -1.0675
10525TIP3    H253067   5.760   2.994   1.737 -1.0294 -0.2982  2.8441
10526TIP3   OH253068   5.933   0.451  15.725 -0.2289  0.1049 -0.0064
10526TIP3    H153069   5.978   0.418  15.646  1.1299  2.6251 -0.3863
10526TIP3    H253070   5.903   0.372  15.770 -1.4697 -1.4501 -3.2275
10527TIP3   OH253071   3.033   5.656   5.186 -0.1420  0.6966  0.2463
10527TIP3    H153072   3.125   5.667   5.163 -0.3521  0.3242 -0.8455
10527TIP3    H253073   3.005   5.580   5.136 -1.1165  0.9733  0.3485
10528TIP3   OH253074   0.913   0.622  16.205 -0.7369 -0.5305 -0.4185
10528TIP3    H153075   0.980   0.627  16.137  1.1713 -3.4634  1.0674
10528TIP3    H253076   0.945   0.679  16.275 -0.0818 -1.4119  0.0187
10529TIP3   OH253077   6.419   6.209   3.066 -0.1067 -0.2397  0.1363
10529TIP3    H153078   6.348   6.178   3.010 -0.4670  0.8196 -0.0161
10529TIP3    H253079   6.433   6.299   3.038 -1.2786  0.8426  2.7034
10530TIP3   OH253080   5.727   5.005  14.191 -0.1481 -0.2082 -0.6277
10530TIP3    H153081   5.717   5.100  14.187  0.8912 -0.1001 -0.8383
10530TIP3    H253082   5.709   4.976  14.102  0.5465 -0.0953 -0.8122
10531TIP3   OH253083   4.898   2.902  14.309  0.9950  0.0152  0.0636
10531TIP3    H153084   4.935   2.975  14.260 -1.9381  1.5640 -0.0967
10531TIP3    H253085   4.877   2.837  14.242  3.1506 -0.8682  0.1537
10532TIP3   OH253086   4.374   3.172  13.563 -0.0130  0.6903  0.1327
10532TIP3    H153087   4.357   3.084  13.529 -1.0809  0.9085  0.0695
10532TIP3    H253088   4.414   3.218  13.489  0.7707  0.1948  0.2428
10533TIP3   OH253089   4.629   0.968  14.726  0.2167  0.4559  0.3883
10533TIP3    H153090   4.674   0.909  14.787 -0.4321  0.1666  0.5912
10533TIP3    H253091   4.539   0.971  14.758 -0.5170 -0.8890 -1.4045
10534TIP3   OH253092   2.295   0.731  11.852 -0.2661 -0.0873 -0.2401
10534TIP3    H153093   2.306   0.648  11.899  0.4813 -0.9831 -1.9069
10534TIP3    H253094   2.384   0.755  11.825 -0.7615 -0.2722 -2.2032
10535TIP3   OH253095   6.609   0.319   3.171  0.5725 -0.4436  0.6551
10535TIP3    H153096   6.598   0.258   3.098  0.2263  0.4193 -0.0265
10535TIP3    H253097   6.681   0.283   3.222 -0.1685 -1.8752  0.7330
10536TIP3   OH253098   3.774   3.028  12.299  0.0400 -0.3917 -0.0506
10536TIP3    H153099   3.746   2.937  12.287 -1.5656  0.1368 -0.6980
10536TIP3    H253100   3.736   3.074  12.224  2.6977  0.4581 -0.9511
10537TIP3   OH253101   3.417   2.245   1.169  0.5677  0.1820 -0.3414
10537TIP3    H153102   3.409   2.247   1.264  0.9701 -2.8287 -0.1404
10537TIP3    H253103   3.445   2.333   1.145  0.4530  1.0185  2.3085
10538TIP3   OH253104   1.465   6.302   4.717  0.4939 -0.3478 -0.3046
10538TIP3    H153105   1.558   6.283   4.701  0.6507 -0.9130  1.1624
10538TIP3    H253106   1.463   6.342   4.804 -0.5400  0.6966 -0.7885
10539TIP3   OH253107   0.390   5.912   1.278  0.3127  0.4825 -0.1502
10539TIP3    H153108   0.375   5.899   1.185 -0.0766 -0.7825  0.0808
10539TIP3    H253109   0.308   5.949   1.311 -0.3830 -1.2239  0.0958
10540TIP3   OH253110   3.791   4.804   4.624 -0.0989 -0.3799  0.3676
10540TIP3    H153111   3.785   4.882   4.680  1.4748 -0.8741  1.2778
10540TIP3    H253112   3.825   4.736   4.682  0.0242 -1.3343 -0.8016
10541TIP3   OH253113   4.898   5.047   5.125  0.0470 -0.4545 -0.1433
10541TIP3    H153114   4.941   5.064   5.209 -1.6712  0.8480  0.5392
10541TIP3    H253115   4.945   4.972   5.088  0.6994 -1.2169  2.0946
10542TIP3   OH253116   6.277   4.144  16.256  0.9580  0.1157 -0.4821
10542TIP3    H153117   6.304   4.063  16.213 -1.0345 -0.8511 -0.0430
10542TIP3    H253118   6.318   4.140  16.342 -0.2638 -1.2022  0.0892
10543TIP3   OH253119   5.764   4.122   3.793  0.4950  0.2048  0.3762
10543TIP3    H153120   5.812   4.169   3.861  2.0748 -0.5886 -0.1164
10543TIP3    H253121   5.825   4.119   3.719 -1.3023  1.3680 -1.2493
10544TIP3   OH253122   4.865   5.848  11.594 -0.2387  0.1547  0.1098
10544TIP3    H153123   4.823   5.828  11.678  0.6301  1.9926  1.0469
10544TIP3    H253124   4.954   5.814  11.603  0.5335  2.2203  0.8317
10545TIP3   OH253125   2.298   2.217  16.777 -0.4894  0.0114  0.2139
10545TIP3    H153126   2.347   2.145  16.737  1.1639  0.9315  0.5022
10545TIP3    H253127   2.244   2.175  16.844 -0.7936 -1.1415 -0.7145
10546TIP3   OH253128   0.826   1.278   6.160 -0.9326 -0.3357  0.3465
10546TIP3    H153129   0.868   1.215   6.102 -0.0909  0.0952  0.4676
10546TIP3    H253130   0.834   1.240   6.248  0.9048  0.5694  0.6280
10547TIP3   OH253131   0.824   5.544   1.005  0.0915  0.1460 -0.4000
10547TIP3    H153132   0.784   5.475   0.952  0.9254  0.4367 -1.4391
10547TIP3    H253133   0.751   5.603   1.025  0.0507  1.1429 -3.0141
10548TIP3   OH253134   2.026   2.998  15.033 -0.2507  0.2337 -0.1732
10548TIP3    H153135   2.035   3.001  14.938  0.1508 -1.0201 -0.1828
10548TIP3    H253136   2.114   2.984  15.066 -0.6153 -1.0835  0.2895
10549TIP3   OH253137   6.339   4.371  12.873  0.2995  0.1775 -0.1135
10549TIP3    H153138   6.327   4.454  12.920 -0.5494  1.6892 -2.8099
10549TIP3    H253139   6.429   4.344  12.894  0.4927  1.5823  1.0477
10550TIP3   OH253140   4.705   6.222   2.995 -0.1485 -0.3650 -0.2404
10550TIP3    H153141   4.639   6.240   2.928 -2.3520 -1.9889  1.3362
10550TIP3    H253142   4.738   6.135   2.973 -0.6097 -0.7427  0.5107
10551TIP3   OH253143   1.483   6.733  15.962  0.2122  0.0988 -0.0661
10551TIP3    H153144   1.542   6.707  16.033  1.0052 -0.7893 -1.0107
10551TIP3    H253145   1.542   6.768  15.895 -0.6370  2.1261  0.2021
10552TIP3   OH253146   6.775   0.871  13.288  0.4230  0.0769 -0.2499
10552TIP3    H153147   6.753   0.963  13.272  0.6489  0.0406 -0.8274
10552TIP3    H253148   6.691   0.825  13.286  0.2339  0.3684  0.7738
10553TIP3   OH253149   0.712   0.977  14.211 -0.3788 -0.1782  0.0674
10553TIP3    H153150   0.764   0.943  14.139 -2.2209  0.3043 -1.5611
10553TIP3    H253151   0.666   1.052  14.174 -0.0931  1.1504  2.2362
10554TIP3   OH253152   2.260   4.740  12.827 -0.4807 -0.0830  0.4971
10554TIP3    H153153   2.182   4.767  12.778 -0.7831 -2.0024 -0.1816
10554TIP3    H253154   2.292   4.664  12.779  0.4589 -0.7485  2.1068
10555TIP3   OH253155   3.127   5.340   5.699  0.3309  0.0601  0.2315
10555TIP3    H153156   3.157   5.288   5.624 -1.9391 -0.0561 -0.6748
10555TIP3    H253157   3.179   5.420   5.695  0.9758 -0.3899 -0.8435
10556TIP3   OH253158   0.598   4.410   0.318  0.1389 -0.5280 -0.9389
10556TIP3    H153159   0.613   4.467   0.393 -0.3010  0.6116 -1.6793
10556TIP3    H253160   0.675   4.422   0.262 -0.1395 -0.3390 -1.2874
10557TIP3   OH253161   0.627   5.980   0.341 -0.7251 -0.0628  0.5550
10557TIP3    H153162   0.678   6.005   0.264 -3.1940  0.9216 -0.8791
10557TIP3    H253163   0.680   6.008   0.415  0.9536  0.5866 -0.8292
10558TIP3   OH253164   4.569   3.474  14.651 -0.0727  0.9100 -0.2327
10558TIP3    H153165   4.520   3.457  14.731  1.4914 -1.6965  0.3136
10558TIP3    H253166   4.562   3.569  14.637 -2.2558  1.1041  1.6917
10559TIP3   OH253167   2.811   6.158   6.188  0.3785  0.3813  0.1823
10559TIP3    H153168   2.827   6.252   6.184  0.2842  0.4687  1.4857
10559TIP3    H253169   2.819   6.136   6.280 -2.6130 -0.3483  0.3748
10560TIP3   OH253170   3.176   0.549   5.923  0.4720  0.2774 -0.0406
10560TIP3    H153171   3.195   0.584   6.010  0.3081 -0.4119  0.2732
10560TIP3    H253172   3.242   0.481   5.910 -1.1926 -1.5259  0.6849
10561TIP3   OH253173   6.565   4.083   0.064  0.4614 -0.0391  0.4561
10561TIP3    H153174   6.493   4.137   0.033 -1.1559 -0.9352  2.4165
10561TIP3    H253175   6.623   4.144   0.110 -0.5913  0.3069  1.3780
10562TIP3   OH253176   2.272   0.159  17.129 -0.1031 -0.2541 -0.1605
10562TIP3    H153177   2.195   0.149  17.186 -0.4696 -1.2401 -0.8102
10562TIP3    H253178   2.248   0.228  17.067 -0.5545 -0.7183 -0.5037
10563TIP3   OH253179   0.518   2.350   1.742  0.5251  0.0534 -0.1647
10563TIP3    H153180   0.569   2.301   1.806 -0.6740 -2.0657 -0.7519
10563TIP3    H253181   0.472   2.284   1.691 -0.7638  1.7827 -1.3821
10564TIP3   OH253182   6.518   0.752   5.237 -0.3235  0.3201 -0.2922
10564TIP3    H153183   6.603   0.758   5.193  0.4511  3.1123  1.3339
10564TIP3    H253184   6.525   0.674   5.292  1.9429  1.3952  1.1082
10565TIP3   OH253185   5.462   0.852  11.891  0.1415 -0.4824  0.6853
10565TIP3    H153186   5.504   0.933  11.863  1.0252 -0.9602  0.5872
10565TIP3    H253187   5.437   0.867  11.982  0.4425 -0.1530  0.7151
10566TIP3   OH253188   4.973   6.048  11.297 -0.4492 -0.0419 -0.5602
10566TIP3    H153189   4.986   6.011  11.210 -2.9424 -1.4888 -0.3923
10566TIP3    H253190   4.972   6.143  11.282 -1.2806 -0.2680 -2.1881
10567TIP3   OH253191   0.972   6.060   5.836  0.0597  0.7028  0.4984
10567TIP3    H153192   0.907   6.020   5.777  0.8660  0.6548 -0.3838
10567TIP3    H253193   0.935   6.146   5.856 -0.9000  0.1707  1.0798
10568TIP3   OH253194   5.271   4.049   2.637  0.4353 -0.4551  0.5470
10568TIP3    H153195   5.203   3.990   2.605  1.4412 -1.5332  0.3496
10568TIP3    H253196   5.320   3.998   2.702  1.3832  0.1208  0.3090
10569TIP3   OH253197   5.593   0.571  12.921  0.0821  0.8488 -0.3513
10569TIP3    H153198   5.684   0.598  12.931  1.0532 -1.9955 -0.5390
10569TIP3    H253199   5.587   0.540  12.831 -1.3229  1.7130 -0.5832
10570TIP3   OH253200   5.837   1.542   4.739  0.1767  0.2399  0.5604
10570TIP3    H153201   5.782   1.592   4.799 -1.0245  0.6537 -0.8581
10570TIP3    H253202   5.870   1.606   4.676  0.7294 -0.3292  0.2483
10571TIP3   OH253203   4.093   2.636  10.998 -0.3147  0.2056  0.0548
10571TIP3    H153204   4.115   2.716  10.950  2.7995  0.2774  1.3444
10571TIP3    H253205   4.118   2.565  10.939 -0.4163  0.2356 -0.0237
10572TIP3   OH253206   6.660   1.463  16.418  0.2926 -0.1690 -0.0652
10572TIP3    H153207   6.598   1.445  16.488  1.9395  0.8478  1.7347
10572TIP3    H253208   6.731   1.401  16.432 -0.4896 -1.7679 -2.4930
10573TIP3   OH253209   2.975   3.503  13.248  0.9866 -0.0256  0.1119
10573TIP3    H153210   2.975   3.582  13.302  1.3421 -0.0373  0.1316
10573TIP3    H253211   2.945   3.434  13.307  0.8796  0.0556  0.1542
10574TIP3   OH253212   1.022   2.388   4.755 -0.2759 -0.3687 -0.0087
10574TIP3    H153213   1.020   2.380   4.659 -0.7793 -0.0149 -0.0294
10574TIP3    H253214   0.931   2.387   4.781 -0.1563 -0.0007  0.4302
10575TIP3   OH253215   1.748   4.270  16.738  0.0309  0.0007  0.0086
10575TIP3    H153216   1.724   4.177  16.741  0.2785 -0.0487  0.5830
10575TIP3    H253217   1.821   4.278  16.799  0.2310  0.5132 -0.2949
10576TIP3   OH253218   0.606   4.514   5.129 -0.0355  0.0329 -0.4099
10576TIP3    H153219   0.626   4.587   5.187  0.3316  0.0099 -0.5048
10576TIP3    H253220   0.613   4.436   5.184  2.2479 -0.1781 -0.8801
10577TIP3   OH253221   2.380   5.451  11.834  0.2177  0.7319 -0.2276
10577TIP3    H153222   2.433   5.401  11.772  2.3448  0.1345  1.9225
10577TIP3    H253223   2.348   5.526  11.784 -0.3753 -1.0473 -2.6958
10578TIP3   OH253224   0.097   0.253  14.095 -0.3594 -0.3184 -0.1739
10578TIP3    H153225   0.101   0.217  14.183 -0.0682 -1.4441 -0.6279
10578TIP3    H253226   0.159   0.326  14.096 -1.5614  0.7161  0.9910
10579TIP3   OH253227   4.319   2.029   2.059  0.1530  0.3259  0.1608
10579TIP3    H153228   4.409   2.051   2.085  0.1579 -1.1389  1.5323
10579TIP3    H253229   4.295   1.956   2.115 -1.4362 -0.1963 -1.1202
10580TIP3   OH253230   0.684   0.900   0.064 -0.4278 -0.3372 -0.3627
10580TIP3    H153231   0.777   0.915   0.046 -0.3528 -0.2500  0.0868
10580TIP3    H253232   0.682   0.870   0.155 -0.6650 -2.1029 -0.9220
10581TIP3   OH253233   5.509   1.443   5.401  0.3882 -0.2427 -0.6076
10581TIP3    H153234   5.447   1.375   5.429 -1.7506  1.0464 -1.9115
10581TIP3    H253235   5.493   1.516   5.461  0.7731  0.0466 -0.8497
10582TIP3   OH253236   6.752   1.229  15.547  0.0986  0.2019  0.3937
10582TIP3    H153237   6.745   1.306  15.603  1.2588  0.0937  0.6961
10582TIP3    H253238   6.687   1.168  15.582 -1.2892  1.2599 -0.2398
10583TIP3   OH253239   3.750   2.199   3.735  0.4602  0.2512  0.2068
10583TIP3    H153240   3.729   2.114   3.772 -1.8023  0.6793  0.0711
10583TIP3    H253241   3.790   2.180   3.650  1.3568 -0.6586  0.8092
10584TIP3   OH253242   2.541   1.037   2.254 -0.0504 -0.1279  0.0055
10584TIP3    H153243   2.470   0.973   2.260  0.4685 -0.9584 -1.8944
10584TIP3    H253244   2.603   0.998   2.194  0.2675  2.1937 -1.2951
10585TIP3   OH253245   4.541   1.838  15.000 -0.3477  0.0213  0.0721
10585TIP3    H153246   4.611   1.890  15.040 -0.5901  1.3351 -1.1269
10585TIP3    H253247   4.574   1.748  15.002  1.0595  0.5126  0.2036
10586TIP3   OH253248   5.333   3.759  12.319  0.4142  0.2502  0.1668
10586TIP3    H153249   5.295   3.847  12.328  2.8245  1.3183  0.8006
10586TIP3    H253250   5.423   3.775  12.290  0.3700 -2.1416 -1.5631
10587TIP3   OH253251   4.090   5.448  11.821 -0.1715 -0.3282  0.4542
10587TIP3    H153252   4.120   5.403  11.899  0.4634  2.2329  1.8201
10587TIP3    H253253   4.145   5.416  11.750  0.2115 -1.6469  1.3356
10588TIP3   OH253254   3.190   4.232  13.992  0.5146 -0.2638 -0.2175
10588TIP3    H153255   3.124   4.214  13.926 -2.3263 -1.2699  2.6183
10588TIP3    H253256   3.164   4.317  14.029  0.3007 -0.9901  1.4005
10589TIP3   OH253257   4.040   5.760  10.828  0.2833 -0.1513  0.1588
10589TIP3    H153258   4.073   5.848  10.840  3.4562 -1.3885  1.6688
10589TIP3    H253259   3.946   5.766  10.847  0.8362  2.4767  2.5913
10590TIP3   OH253260   5.605   6.056   3.981  0.5308  0.5733 -0.4473
10590TIP3    H153261   5.610   6.069   3.886 -0.6579  1.1524 -0.4426
10590TIP3    H253262   5.513   6.039   3.998  0.3169  2.6901  0.8540
10591TIP3   OH253263   3.017   0.283  12.125  0.1857  0.0559 -0.3017
10591TIP3    H153264   2.925   0.261  12.112  0.5674 -0.2149 -3.2580
10591TIP3    H253265   3.064   0.218  12.073  2.1066 -0.0283  1.4415
10592TIP3   OH253266   5.112   3.542  15.889  0.1909 -0.4255  0.3044
10592TIP3    H153267   5.081   3.468  15.837  1.5120 -1.0185  0.3263
10592TIP3    H253268   5.104   3.513  15.980  1.4110 -0.8581  0.2929
10593TIP3   OH253269   5.597   2.880   1.673 -0.0165 -0.2207  0.1036
10593TIP3    H153270   5.506   2.852   1.669 -0.1887  0.2078  0.8022
10593TIP3    H253271   5.637   2.821   1.737  0.3417 -0.7752 -0.6173
10594TIP3   OH253272   6.119   5.913  15.733 -0.2473 -0.5041  0.1544
10594TIP3    H153273   6.037   5.940  15.773  0.4586  1.6275  0.2955
10594TIP3    H253274   6.114   5.944  15.643  0.8182  0.7313  0.4791
10595TIP3   OH253275   5.764   4.981   2.198 -0.4719 -0.1634 -0.2551
10595TIP3    H153276   5.728   4.916   2.259  1.2225 -0.5727  0.3826
10595TIP3    H253277   5.806   4.928   2.129  0.8707  0.2243  0.2349
10596TIP3   OH253278   5.876   4.930   0.827  0.4129 -0.1023  0.7827
10596TIP3    H153279   5.947   4.910   0.888 -0.6036  0.9375  2.3905
10596TIP3    H253280   5.812   4.978   0.880 -0.1016  1.7104 -1.3416
10597TIP3   OH253281   2.899   4.247  16.251  0.5425  0.0984 -0.2312
10597TIP3    H153282   2.862   4.172  16.205  0.3134 -0.2212  0.4536
10597TIP3    H253283   2.984   4.262  16.210 -0.0109  0.3538 -1.3117
10598TIP3   OH253284   6.486   0.060  16.367  0.1129  0.2502 -0.1489
10598TIP3    H153285   6.446   0.110  16.439  0.0269 -1.5288  1.0926
10598TIP3    H253286   6.579   0.059  16.387 -0.1218 -2.0289  1.1911
10599TIP3   OH253287   4.827   4.958   3.458  0.1333  0.2079  0.2694
10599TIP3    H153288   4.763   4.922   3.396 -0.0887  0.6033  0.2691
10599TIP3    H253289   4.865   5.033   3.413  0.3294  0.1995  0.4194
10600TIP3   OH253290   6.615   4.949   2.952 -0.2631 -0.2625 -0.5879
10600TIP3    H153291   6.621   4.855   2.935  0.0148 -0.5004  0.7222
10600TIP3    H253292   6.689   4.987   2.903  0.7849 -0.9698  0.4051
10601TIP3   OH253293   4.978   4.037  15.737 -0.1102  0.0245 -0.1918
10601TIP3    H153294   4.990   4.132  15.730  0.6313 -0.1395 -1.5166
10601TIP3    H253295   4.995   4.018  15.829 -2.7557  1.4702  0.6984
10602TIP3   OH253296   6.270   5.397  12.001 -0.0728 -0.1219  0.3844
10602TIP3    H153297   6.227   5.423  11.919  0.4581 -0.3321  0.0361
10602TIP3    H253298   6.214   5.433  12.070  0.7448  2.1788 -0.0681
10603TIP3   OH253299   2.109   6.064  12.505 -0.4245  0.7916 -0.0955
10603TIP3    H153300   2.151   5.988  12.546  1.1770  2.5736  1.8281
10603TIP3    H253301   2.170   6.091  12.437  0.0753  1.5663  0.6418
10604TIP3   OH253302   6.777   4.836  14.052 -0.3557 -0.3516 -0.3344
10604TIP3    H153303   6.755   4.758  14.103  2.7208  0.6365  2.8698
10604TIP3    H253304   6.695   4.859  14.008 -2.0203 -3.9404  0.4977
10605TIP3   OH253305   4.648   1.517  16.344 -0.5096  0.6922  0.2028
10605TIP3    H153306   4.684   1.531  16.256 -0.1643  0.6710  0.3391
10605TIP3    H253307   4.591   1.593  16.359 -0.8229  0.5331 -0.1651
10606TIP3   OH253308   3.877   0.864  14.285  0.2122 -0.1299  0.8946
10606TIP3    H153309   3.950   0.853  14.346 -1.5366  1.5644  3.5427
10606TIP3    H253310   3.800   0.876  14.342 -1.3846  3.0279 -1.5817
10607TIP3   OH253311   4.086   4.725  13.667 -0.3351 -0.0391  0.2343
10607TIP3    H153312   4.130   4.809  13.651 -0.7920  0.6976  2.5430
10607TIP3    H253313   4.017   4.722  13.601 -0.5201  1.5646  0.3002
10608TIP3   OH253314   1.796   6.151   1.689 -0.4725  0.3048  0.1692
10608TIP3    H153315   1.739   6.226   1.700 -0.9867  0.0154 -0.4355
10608TIP3    H253316   1.777   6.119   1.601  0.7581  0.3080 -0.1153
10609TIP3   OH253317   6.245   0.673   1.821 -0.3035  0.4558 -0.1351
10609TIP3    H153318   6.330   0.672   1.864  0.2107  2.9176 -0.9241
10609TIP3    H253319   6.187   0.717   1.884 -0.4859  0.5766 -0.3830
10610TIP3   OH253320   5.697   3.493   5.609  0.0397 -0.3245  0.2931
10610TIP3    H153321   5.684   3.429   5.679  0.3292  2.4067  3.0690
10610TIP3    H253322   5.792   3.497   5.599  0.0855  0.3344  0.8765
10611TIP3   OH253323   6.339   5.252   1.901 -0.7583  0.1795  0.1585
10611TIP3    H153324   6.322   5.255   1.807 -1.3090  0.5983  0.2679
10611TIP3    H253325   6.349   5.344   1.927 -1.7905  0.1483  0.7157
10612TIP3   OH253326   4.974   4.034   3.720 -0.4663  0.5160 -0.1521
10612TIP3    H153327   4.894   4.087   3.727 -1.0215 -0.2888 -0.3073
10612TIP3    H253328   5.018   4.046   3.804 -0.2436  1.7416 -0.4135
10613TIP3   OH253329   2.862   5.519   2.891  0.1646  0.0978 -0.5075
10613TIP3    H153330   2.840   5.581   2.822 -2.0679 -0.2115 -0.1338
10613TIP3    H253331   2.866   5.434   2.847  0.6690  0.1562 -0.5782
10614TIP3   OH253332   1.642   2.304   5.834  0.2218  0.1051 -0.6164
10614TIP3    H153333   1.601   2.389   5.851  1.1851  0.3285  0.8232
10614TIP3    H253334   1.632   2.290   5.740  0.5864  2.0973 -0.9874
10615TIP3   OH253335   5.561   6.671  15.152 -0.3231  0.0864 -0.6052
10615TIP3    H153336   5.527   6.723  15.080 -2.2806 -0.5894 -0.2200
10615TIP3    H253337   5.604   6.597  15.110 -2.0430 -0.6624 -1.1309
10616TIP3   OH253338   2.235   5.475  13.934 -0.5327  0.0475 -0.5184
10616TIP3    H153339   2.276   5.513  13.856 -1.0564 -1.8510 -1.7984
10616TIP3    H253340   2.308   5.435  13.982 -0.4592 -0.6732 -1.2019
10617TIP3   OH253341   4.712   3.204  13.498 -0.0440 -0.1765  0.1117
10617TIP3    H153342   4.743   3.127  13.545 -1.3252 -0.9750 -0.3084
10617TIP3    H253343   4.650   3.170  13.433 -0.1246  1.1361 -0.5464
10618TIP3   OH253344   3.419   0.402   4.155  0.5151  0.5727 -0.2069
10618TIP3    H153345   3.439   0.415   4.063  1.9996 -1.3156 -0.2320
10618TIP3    H253346   3.438   0.309   4.171 -0.4933  0.6443  1.8112
10619TIP3   OH253347   5.721   4.413  13.478  0.4406  0.2166 -0.0263
10619TIP3    H153348   5.716   4.372  13.565  1.3453 -0.8916 -0.4615
10619TIP3    H253349   5.650   4.374  13.428 -0.6119  1.4767  0.4291
10620TIP3   OH253350   3.302   5.317   6.519  0.3898  0.3832 -0.0849
10620TIP3    H153351   3.397   5.319   6.529  0.2935  1.7419  0.6712
10620TIP3    H253352   3.270   5.393   6.567 -1.0201  0.4516 -1.0527
10621TIP3   OH253353   5.997   4.033   2.869 -0.1443  0.2299 -0.6737
10621TIP3    H153354   6.001   4.043   2.774 -1.5941 -0.5668 -0.8419
10621TIP3    H253355   5.929   4.094   2.897 -0.5999 -0.4338 -0.3088
10622TIP3   OH253356   6.544   5.146  10.228  0.3131 -0.3947 -0.0974
10622TIP3    H153357   6.454   5.161  10.257  0.1458  0.4049 -0.9935
10622TIP3    H253358   6.539   5.066  10.175  0.6511 -1.9785  2.0818
10623TIP3   OH253359   4.857   4.037  15.245 -0.3739  0.2777 -0.5545
10623TIP3    H153360   4.864   4.052  15.340 -2.4462  2.4017 -0.6355
10623TIP3    H253361   4.913   4.105  15.206 -0.0493 -0.1662 -0.8709
10624TIP3   OH253362   1.445   3.653   5.219  0.2799  0.1342 -0.1023
10624TIP3    H153363   1.405   3.601   5.290 -1.1129  0.8394 -0.3547
10624TIP3    H253364   1.539   3.636   5.228  0.0166 -0.8453  1.0795
10625TIP3   OH253365   0.070   4.757   1.276  0.1504 -0.3387  0.5628
10625TIP3    H153366   0.088   4.686   1.337  3.6372  0.2643  0.4485
10625TIP3    H253367   0.125   4.830   1.308 -2.2682  1.9069 -0.0677
10626TIP3   OH253368   0.818   3.896  13.792  0.4640 -0.8277 -0.8310
10626TIP3    H153369   0.883   3.946  13.841 -0.2464  1.6804 -2.2527
10626TIP3    H253370   0.748   3.880  13.855  1.0518 -0.6642 -0.1317
10627TIP3   OH253371   0.603   2.538  16.053  0.0548  0.5487 -0.3866
10627TIP3    H153372   0.583   2.610  15.993  2.7174  0.4938 -1.4678
10627TIP3    H253373   0.583   2.459  16.003 -0.1610  0.5182 -0.2514
10628TIP3   OH253374   2.756   0.470   4.923  0.2293 -0.4221 -0.2835
10628TIP3    H153375   2.775   0.564   4.918  2.8029 -0.8665 -0.3969
10628TIP3    H253376   2.666   0.466   4.956 -0.4638  2.0712 -1.5762
10629TIP3   OH253377   1.336   3.150   2.468 -0.1659 -0.1061  0.4166
10629TIP3    H153378   1.340   3.238   2.506  0.5700  0.7508 -1.5003
10629TIP3    H253379   1.271   3.103   2.521 -1.5989  2.0133  0.6338
10630TIP3   OH253380   2.753   0.710   3.195  0.0833 -0.1048  0.3314
10630TIP3    H153381   2.807   0.696   3.117 -1.5354  0.0953 -0.8802
10630TIP3    H253382   2.793   0.785   3.239  0.9103 -0.0904 -0.4196
10631TIP3   OH253383   5.705   5.393   4.054 -0.4745 -0.3952 -0.1419
10631TIP3    H153384   5.618   5.417   4.019  0.6301  0.3371 -2.6391
10631TIP3    H253385   5.739   5.330   3.991  1.1749  0.0263  0.2927
10632TIP3   OH253386   6.722   3.773   2.022 -0.4304  0.5109  0.3387
10632TIP3    H153387   6.725   3.776   2.118  0.8674  0.7306  0.3128
10632TIP3    H253388   6.659   3.705   2.002  1.5002 -1.7470  1.3986
10633TIP3   OH253389   4.913   1.670   5.983  0.1835 -0.0257 -0.1822
10633TIP3    H153390   4.981   1.737   5.992  0.9168 -0.6996 -0.5555
10633TIP3    H253391   4.877   1.660   6.071  2.7988 -1.9464  0.7915
10634TIP3   OH253392   1.633   4.751   0.660 -0.3679 -0.4702  0.5147
10634TIP3    H153393   1.585   4.825   0.697  0.7460  0.5698 -0.0444
10634TIP3    H253394   1.712   4.745   0.714  0.2112 -0.3513 -0.3122
10635TIP3   OH253395   2.602   5.191  11.420 -0.0977  0.0433 -0.1900
10635TIP3    H153396   2.529   5.141  11.384 -1.3641  1.3177  0.5096
10635TIP3    H253397   2.618   5.261  11.356 -1.7436  1.7551  1.1400
10636TIP3   OH253398   5.011   0.302  15.206  0.8911 -0.3268 -0.5241
10636TIP3    H153399   4.998   0.345  15.291  0.1956  0.6358 -1.1038
10636TIP3    H253400   4.923   0.296  15.169  1.2913  0.1441 -1.5876
10637TIP3   OH253401   0.942   3.889   2.291  0.4248 -0.1795 -0.6276
10637TIP3    H153402   0.955   3.970   2.241 -0.0867 -0.7096 -1.6601
10637TIP3    H253403   0.955   3.819   2.227 -2.1647 -0.8487 -0.5357
10638TIP3   OH253404   5.824   2.209   5.399 -0.3647  0.7567  0.4041
10638TIP3    H153405   5.873   2.243   5.324 -0.8874 -0.0007 -0.2928
10638TIP3    H253406   5.756   2.153   5.360  0.3502 -0.9416  1.4964
10639TIP3   OH253407   1.833   5.975  13.019 -0.4763  0.0075  0.6131
10639TIP3    H153408   1.742   5.999  12.999 -1.1024 -1.2796  1.7164
10639TIP3    H253409   1.826   5.920  13.097  1.4414  1.4166  1.8463
10640TIP3   OH253410   3.817   2.155   3.473 -0.6394 -0.0615  0.4033
10640TIP3    H153411   3.768   2.149   3.390 -0.1019  0.1742  0.0647
10640TIP3    H253412   3.901   2.192   3.448 -0.6276  0.4105  1.1258
10641TIP3   OH253413   0.633   6.222   5.251  0.1126 -0.4765 -0.8972
10641TIP3    H153414   0.600   6.273   5.325  0.5674  0.4582 -1.3262
10641TIP3    H253415   0.728   6.221   5.263  0.3184  0.8254 -2.1626
10642TIP3   OH253416   0.131   1.324   3.605  0.1994 -0.2596 -0.1482
10642TIP3    H153417   0.094   1.347   3.519  0.8154 -1.3994 -0.7303
10642TIP3    H253418   0.104   1.397   3.662 -0.8772  0.1373 -1.1155
10643TIP3   OH253419   4.142   4.465   5.526 -0.0021  0.4554 -0.4844
10643TIP3    H153420   4.141   4.421   5.440  1.5707 -0.5441 -0.0276
10643TIP3    H253421   4.186   4.548   5.509 -0.0161  0.4138 -0.7341
10644TIP3   OH253422   5.039   1.026   5.786  0.2393  0.3803  0.0044
10644TIP3    H153423   5.090   0.950   5.759  0.7252  0.5909  0.3048
10644TIP3    H253424   4.986   1.048   5.710  0.0584 -0.2862 -0.0649
10645TIP3   OH253425   6.382   0.377   4.516  0.5942 -0.6885 -0.6260
10645TIP3    H153426   6.352   0.431   4.443 -1.0294 -0.4842  0.1461
10645TIP3    H253427   6.462   0.336   4.484  0.5524  0.2934 -2.0969
10646TIP3   OH253428   0.395   0.109  12.985 -0.4139 -0.1641  0.2793
10646TIP3    H153429   0.362   0.038  13.040 -0.5093 -1.3538 -1.2480
10646TIP3    H253430   0.316   0.159  12.963 -0.6965 -0.8956 -0.4305
10647TIP3   OH253431   0.391   2.843  11.586 -0.1857 -0.3755  0.4403
10647TIP3    H153432   0.373   2.937  11.591 -0.7967 -0.4831  0.3926
10647TIP3    H253433   0.472   2.831  11.636  0.4040  0.3062 -0.3454
10648TIP3   OH253434   2.195   0.592   5.596  0.1846 -0.1095 -0.1901
10648TIP3    H153435   2.167   0.634   5.677  0.5983  1.2361 -0.7242
10648TIP3    H253436   2.128   0.616   5.532  0.4838 -0.1659 -0.5267
10649TIP3   OH253437   0.880   0.925  11.597 -0.1119  0.3095 -0.0626
10649TIP3    H153438   0.802   0.874  11.617 -1.6790  2.1867 -0.9781
10649TIP3    H253439   0.908   0.960  11.681  0.7527 -1.6547  0.5152
10650TIP3   OH253440   5.983   4.044   4.322  0.1409 -0.4584  0.0480
10650TIP3    H153441   6.039   3.989   4.267  0.8824  1.6311 -1.3982
10650TIP3    H253442   5.916   4.079   4.263 -1.8021 -1.6159  1.4248
10651TIP3   OH253443   5.656   5.988   4.953 -0.0846 -0.2814  0.0114
10651TIP3    H153444   5.615   6.034   4.880 -1.8253 -1.1539  0.3619
10651TIP3    H253445   5.673   6.056   5.018 -4.4419 -0.1049  1.3553
10652TIP3   OH253446   6.400   4.297  17.240 -0.4745  0.2515 -0.0606
10652TIP3    H153447   6.385   4.302  17.146  2.5618  1.5345 -0.5785
10652TIP3    H253448   6.322   4.337  17.279 -0.1443  3.3052 -2.2154
10653TIP3   OH253449   6.053   4.518   5.023 -0.3607 -0.0626 -0.1403
10653TIP3    H153450   6.125   4.519   5.086  0.0152  1.2491 -0.5592
10653TIP3    H253451   6.041   4.425   5.002  0.5680 -0.3794  0.6575
10654TIP3   OH253452   4.519   2.285  13.580  0.2101 -0.3075  0.3048
10654TIP3    H153453   4.458   2.358  13.567  1.2069  0.5902  0.4616
10654TIP3    H253454   4.473   2.208  13.546 -1.7289 -0.0120  2.0201
10655TIP3   OH253455   1.957   6.288   0.752 -0.4755  0.3224  0.1246
10655TIP3    H153456   1.987   6.352   0.687 -0.5217  1.2113  0.9465
10655TIP3    H253457   1.866   6.271   0.729 -0.2451 -0.0267 -0.5488
10656TIP3   OH253458   2.007   4.430   2.473  0.0101  0.9702 -0.2264
10656TIP3    H153459   2.060   4.410   2.396 -0.4028 -0.5561 -0.1472
10656TIP3    H253460   1.949   4.501   2.445 -0.9869 -0.3746 -1.7598
10657TIP3   OH253461   2.410   4.365   3.939 -0.1142  0.3758 -0.0167
10657TIP3    H153462   2.470   4.428   3.900  0.6286 -0.2663  0.0611
10657TIP3    H253463   2.458   4.281   3.937 -0.6138  0.0439  0.9374
10658TIP3   OH253464   1.685   4.120   4.736 -0.0937 -0.1697 -0.7965
10658TIP3    H153465   1.780   4.126   4.727  0.0445 -1.0706 -0.1209
10658TIP3    H253466   1.661   4.040   4.688 -0.4037 -0.3630 -0.3324
10659TIP3   OH253467   6.095   1.427  14.364 -0.1957  0.1841  0.0234
10659TIP3    H153468   6.108   1.356  14.302  2.9835  1.3993 -0.8836
10659TIP3    H253469   6.102   1.385  14.450  1.0180 -0.7480 -0.4942
10660TIP3   OH253470   5.218   4.189  12.035  0.0424 -0.3027 -0.6333
10660TIP3    H153471   5.256   4.234  11.960 -0.3135  0.8075 -0.1796
10660TIP3    H253472   5.157   4.126  11.997  0.0551  0.0692 -1.2863
10661TIP3   OH253473   1.713   4.063   5.162  0.3369  0.3202 -0.2873
10661TIP3    H153474   1.785   4.090   5.106  0.6924  0.8219  0.4091
10661TIP3    H253475   1.639   4.119   5.136  0.6275  0.8665  0.0512
10662TIP3   OH253476   3.021   6.246  16.681 -0.1510 -0.0010 -0.1102
10662TIP3    H153477   3.115   6.241  16.696 -0.2989 -1.8970  0.3794
10662TIP3    H253478   3.010   6.222  16.589 -0.1334  0.7532 -0.3188
10663TIP3   OH253479   6.640   2.361  16.739  0.2146  0.1232  0.0897
10663TIP3    H153480   6.560   2.368  16.792 -1.5543  0.0349 -2.3651
10663TIP3    H253481   6.686   2.443  16.755 -0.7243  0.5076  1.0160
10664TIP3   OH253482   1.471   6.575   2.490 -0.1424 -0.5207  0.2892
10664TIP3    H153483   1.546   6.619   2.529  1.0985 -1.8510 -0.5099
10664TIP3    H253484   1.470   6.487   2.530 -1.9229 -0.2051  1.0632
10665TIP3   OH253485   2.005   5.733   3.231 -0.7593 -0.1037 -0.0204
10665TIP3    H153486   1.916   5.769   3.231 -1.1514 -1.0088  0.8506
10665TIP3    H253487   2.016   5.697   3.319 -1.1521 -3.8352 -1.3110
10666TIP3   OH253488   0.190   5.670  10.278 -0.1015  0.4557  0.0446
10666TIP3    H153489   0.134   5.746  10.262 -0.7533 -0.2195 -0.9665
10666TIP3    H253490   0.134   5.594  10.260  0.7027 -0.2642  0.4729
10667TIP3   OH253491   1.604   1.104   1.834  0.2062  0.0385 -0.1112
10667TIP3    H153492   1.563   1.190   1.824 -0.3196 -0.2227 -0.2608
10667TIP3    H253493   1.546   1.045   1.785  1.7440 -0.0657 -1.9378
10668TIP3   OH253494   5.220   6.728  15.012 -0.2035  0.0635 -0.4644
10668TIP3    H153495   5.141   6.726  14.959 -0.5233  0.4513 -0.0134
10668TIP3    H253496   5.229   6.820  15.039 -0.4490 -0.2431  0.7308
10669TIP3   OH253497   2.896   6.555   6.425  0.2670  0.1793 -0.5008
10669TIP3    H153498   2.835   6.560   6.499 -0.3388 -0.0265 -0.9692
10669TIP3    H253499   2.937   6.642   6.422 -2.4571  1.5499 -2.1845
10670TIP3   OH253500   1.321   4.838   2.963 -0.2731  0.3282 -0.6071
10670TIP3    H153501   1.361   4.757   2.933 -0.5118  0.2962 -0.8465
10670TIP3    H253502   1.394   4.889   2.999  0.2222  0.8013 -2.1989
10671TIP3   OH253503   3.109   1.246   5.467 -0.0977 -0.4954 -0.4346
10671TIP3    H153504   3.044   1.293   5.415 -2.2048  0.4267  2.7744
10671TIP3    H253505   3.183   1.306   5.473  0.4738 -0.8629 -2.7070
10672TIP3   OH253506   0.018   2.609  14.075 -0.4950  0.1153  0.4035
10672TIP3    H153507   0.027   2.671  14.148  0.6570  0.4392  0.0150
10672TIP3    H253508  -0.004   2.526  14.117  2.4458 -0.2766  1.3949
10673TIP3   OH253509   2.630   6.062  12.065  0.2551 -0.0485  0.0567
10673TIP3    H153510   2.551   6.114  12.054  0.2662 -0.3029 -1.3904
10673TIP3    H253511   2.604   5.990  12.122 -0.6307 -0.2775 -0.6181
10674TIP3   OH253512   1.318   0.152   4.927  0.1167  0.2200 -0.3469
10674TIP3    H153513   1.338   0.162   4.834  0.0300  0.5617 -0.3292
10674TIP3    H253514   1.326   0.240   4.963 -0.0986  0.1306 -0.0779
10675TIP3   OH253515   1.105   5.930   1.121  0.5808 -0.0034 -0.4314
10675TIP3    H153516   1.148   5.949   1.038  0.2233  0.3472 -0.5382
10675TIP3    H253517   1.071   5.841   1.111 -0.7140  0.5545 -1.2016
10676TIP3   OH253518   2.543   0.535   3.118  0.3308 -0.0271  0.2757
10676TIP3    H153519   2.464   0.574   3.155  0.7206  1.5305 -0.4717
10676TIP3    H253520   2.614   0.563   3.175  0.6064  0.2968 -0.2202
10677TIP3   OH253521   4.774   1.362  15.204  0.1769 -0.2142 -0.4373
10677TIP3    H153522   4.720   1.442  15.206  0.9458  0.3466 -1.4810
10677TIP3    H253523   4.751   1.320  15.122  0.8645 -0.2941 -0.5927
10678TIP3   OH253524   5.070   2.275   0.478  0.0535  0.2727 -0.2336
10678TIP3    H153525   4.992   2.224   0.500  1.1909 -1.4547  0.0019
10678TIP3    H253526   5.098   2.240   0.393 -0.9298  2.7784 -1.6996
10679TIP3   OH253527   2.976   4.335  14.868  0.3348  0.1390  0.4975
10679TIP3    H153528   3.070   4.345  14.853  0.2718 -0.4662 -0.3770
10679TIP3    H253529   2.968   4.256  14.921  0.2030 -1.1120 -1.3125
10680TIP3   OH253530   5.142   0.402  12.586  0.8550 -0.2880  0.2884
10680TIP3    H153531   5.119   0.434  12.499  0.5563 -1.1502  0.0411
10680TIP3    H253532   5.191   0.321  12.570 -0.9229 -1.5667  0.9358
10681TIP3   OH253533   2.597   2.710  13.170 -0.3945  0.0005  0.0189
10681TIP3    H153534   2.690   2.707  13.147 -0.4384 -0.6781 -0.1031
10681TIP3    H253535   2.561   2.781  13.116 -0.3596 -1.1245 -1.5534
10682TIP3   OH253536   0.951   1.536   6.284 -0.1603  0.2870  0.2228
10682TIP3    H153537   0.866   1.525   6.241 -0.3522  1.4212  0.2828
10682TIP3    H253538   0.932   1.586   6.364  0.7237  1.7319 -0.4344
10683TIP3   OH253539   4.802   2.450   1.793 -0.0308 -0.0614  0.3663
10683TIP3    H153540   4.823   2.372   1.845  0.3823  1.1872  2.1660
10683TIP3    H253541   4.713   2.472   1.818  0.1244  0.4728  0.4659
10684TIP3   OH253542   1.024   5.574   4.588  0.1907  0.5072  0.0389
10684TIP3    H153543   0.970   5.495   4.589  1.5763 -0.4788  0.8449
10684TIP3    H253544   1.099   5.551   4.533  0.2938  1.5053 -0.2618
10685TIP3   OH253545   0.891   6.350   5.334  0.2362  0.1649 -0.3309
10685TIP3    H153546   0.913   6.403   5.411 -0.9345  0.9547 -0.5223
10685TIP3    H253547   0.929   6.398   5.260  1.4952 -0.6730 -0.2582
10686TIP3   OH253548   2.950   3.994  16.849 -0.6705 -0.1137 -0.2493
10686TIP3    H153549   3.041   3.972  16.829 -0.8754 -0.4395 -0.8437
10686TIP3    H253550   2.909   3.910  16.870 -1.6135 -0.4668 -3.1557
10687TIP3   OH253551   0.014   6.703   3.275  0.3883  0.7617  0.0516
10687TIP3    H153552  -0.071   6.680   3.239  1.1937 -0.9501 -0.9221
10687TIP3    H253553   0.032   6.791   3.241 -0.8390  1.0192  0.0259
10688TIP3   OH253554   2.169   1.575  12.365 -0.1123 -0.6594 -0.2460
10688TIP3    H153555   2.112   1.544  12.436  0.3222 -0.7086  0.0877
10688TIP3    H253556   2.252   1.530  12.380  0.4859  0.5339  0.1508
10689TIP3   OH253557   5.872   4.654  15.772 -0.1538 -0.0648  0.2297
10689TIP3    H153558   5.806   4.600  15.815 -0.8474  1.4201  1.1089
10689TIP3    H253559   5.826   4.733  15.746  0.8877  0.2377 -0.8088
10690TIP3   OH253560   4.974   2.080   5.430  0.4343  0.1555  0.0338
10690TIP3    H153561   5.012   2.131   5.359  0.1646  0.0373 -0.1978
10690TIP3    H253562   4.977   1.989   5.398  0.3162  0.1020  0.1734
10691TIP3   OH253563   4.895   6.461  16.572 -0.2299 -0.4780  0.7449
10691TIP3    H153564   4.887   6.509  16.490 -0.7999 -0.7110  0.6602
10691TIP3    H253565   4.970   6.403  16.559 -0.4336 -0.6467  0.3247
10692TIP3   OH253566   4.902   1.615   1.649  0.1962  0.4080 -0.1509
10692TIP3    H153567   4.867   1.667   1.721 -0.8181  1.1074 -1.1162
10692TIP3    H253568   4.997   1.617   1.662  0.1203  1.6929  0.3839
10693TIP3   OH253569   0.965   6.404  16.125  0.0129 -0.5037  0.1470
10693TIP3    H153570   0.909   6.330  16.101  0.5242 -0.4268 -1.4530
10693TIP3    H253571   0.999   6.435  16.041 -0.0809  1.4701  0.7958
10694TIP3   OH253572   6.030   0.211  10.506  0.2520  0.1793 -0.1378
10694TIP3    H153573   6.063   0.168  10.427 -1.4394 -2.2756  0.3718
10694TIP3    H253574   5.937   0.225  10.488 -0.4529 -1.5372  1.7817
10695TIP3   OH253575   0.226   3.053   4.759 -0.0097 -0.6738 -0.2472
10695TIP3    H153576   0.138   3.073   4.727  0.5065 -0.4312 -1.5760
10695TIP3    H253577   0.224   2.959   4.776 -0.5475 -0.6614 -0.2287
10696TIP3   OH253578   6.356   1.937  13.504  0.1601 -0.1083  0.3496
10696TIP3    H153579   6.308   1.917  13.424  0.3056 -0.0737  0.2518
10696TIP3    H253580   6.397   2.022  13.486 -2.0584  1.2880  1.4764
10697TIP3   OH253581   2.561   2.706  16.811  0.2015  0.0544 -0.0855
10697TIP3    H153582   2.608   2.689  16.730  1.2689  0.6243  0.3854
10697TIP3    H253583   2.625   2.687  16.880  0.1174  1.8473  0.5504
10698TIP3   OH253584   4.552   2.524  11.884 -0.0952 -0.2977  0.4716
10698TIP3    H153585   4.554   2.508  11.789  0.8356 -0.9387  0.5861
10698TIP3    H253586   4.588   2.444  11.922  0.9389  0.5429  1.2928
10699TIP3   OH253587   1.440   3.057   3.871 -0.1398  0.1955  0.6431
10699TIP3    H153588   1.447   3.112   3.949 -0.8698  3.2249 -1.2586
10699TIP3    H253589   1.369   3.096   3.820 -1.4841 -3.2306 -0.4449
10700TIP3   OH253590   3.002   5.554   6.356 -0.4292  0.1494  0.0477
10700TIP3    H153591   3.066   5.559   6.427 -0.8393  0.7187  0.3852
10700TIP3    H253592   3.039   5.491   6.295  0.5820  0.6731  0.1034
10701TIP3   OH253593   5.835   6.744   1.664 -0.3493  0.2529  0.2339
10701TIP3    H153594   5.843   6.659   1.707 -0.7661 -0.0701 -0.3117
10701TIP3    H253595   5.876   6.806   1.725  2.6042 -0.7161 -0.5601
10702TIP3   OH253596   0.518   6.551   0.932 -0.0618  0.0205 -0.3973
10702TIP3    H153597   0.444   6.584   0.983  0.9554  0.1189  1.0901
10702TIP3    H253598   0.586   6.534   0.997  0.3577 -2.5428 -1.3753
10703TIP3   OH253599   0.967   2.521   2.962  0.2227 -0.0289  0.3448
10703TIP3    H153600   0.878   2.531   2.930 -0.2894 -1.4606  1.2581
10703TIP3    H253601   1.020   2.507   2.884 -0.0011  2.7139 -0.4042
10704TIP3   OH253602   2.431   4.271   0.213  0.9003  0.0036 -0.1720
10704TIP3    H153603   2.345   4.259   0.174  0.6891 -0.3703  0.3900
10704TIP3    H253604   2.463   4.354   0.177  1.7794 -1.4519 -3.0308
10705TIP3   OH253605   0.752   1.297   0.972  0.6382  0.0833 -0.3411
10705TIP3    H153606   0.752   1.227   1.037  0.2305 -0.6115 -1.0858
10705TIP3    H253607   0.671   1.285   0.923  1.4988 -0.1291 -1.7475
10706TIP3   OH253608   4.558   0.960   5.677 -0.5740  0.4365 -0.2260
10706TIP3    H153609   4.620   0.897   5.714 -1.1013 -0.1270 -0.2785
10706TIP3    H253610   4.500   0.981   5.750 -0.1008  1.2493 -0.0774
10707TIP3   OH253611   6.462   3.588  12.478  0.8897 -0.0152 -0.0248
10707TIP3    H153612   6.397   3.613  12.412 -0.2768 -0.5816  0.8793
10707TIP3    H253613   6.502   3.509  12.443 -0.4091 -0.8755  0.3592
10708TIP3   OH253614   5.964   1.103   3.639 -0.1580  0.6491  0.4151
10708TIP3    H153615   5.982   1.193   3.666 -0.4413  0.9341 -0.3231
10708TIP3    H253616   5.922   1.112   3.554 -0.2732 -0.1817  0.3800
10709TIP3   OH253617   2.972   4.914  11.569 -0.1624  0.1665 -1.0807
10709TIP3    H153618   3.032   4.923  11.643 -1.0832  2.6111 -0.5525
10709TIP3    H253619   3.025   4.872  11.501  1.9068  1.4750 -0.3657
10710TIP3   OH253620   6.316   6.677   5.359  0.3096  0.1634  0.1293
10710TIP3    H153621   6.304   6.655   5.451 -0.7529 -1.1674 -0.2919
10710TIP3    H253622   6.267   6.758   5.347  1.8770  1.3116  1.0799
10711TIP3   OH253623   6.429   1.919  11.756 -0.1526  0.5080 -0.1454
10711TIP3    H153624   6.507   1.973  11.766 -0.5464  1.0013  0.3368
10711TIP3    H253625   6.416   1.877  11.841 -0.2403  0.1885 -0.3124
10712TIP3   OH253626   4.005   6.005  17.014  0.0224  0.0472  0.1378
10712TIP3    H153627   4.094   6.039  17.012 -1.3088  4.1834  0.8054
10712TIP3    H253628   3.966   6.038  16.933 -1.1607 -0.9070  0.2932
10713TIP3   OH253629   6.323   4.759   1.697  0.4453  0.3845  0.1373
10713TIP3    H153630   6.237   4.720   1.678 -0.0292  1.8825 -0.9821
10713TIP3    H253631   6.351   4.715   1.777 -1.4412 -0.0396  0.6355
10714TIP3   OH253632   0.543   5.132   5.953 -0.1337 -0.1031 -0.2158
10714TIP3    H153633   0.615   5.154   6.012 -2.6884  0.2064  3.1039
10714TIP3    H253634   0.519   5.042   5.977 -1.6534  0.2706 -0.2380
10715TIP3   OH253635   0.942   0.008   5.634 -0.1732 -0.7458 -0.2628
10715TIP3    H153636   0.931  -0.026   5.722  2.4202  2.4224  1.5090
10715TIP3    H253637   0.894   0.091   5.634  1.9708  0.5906 -0.8287
10716TIP3   OH253638   2.327   2.977  15.101 -0.1077 -0.4490 -0.1262
10716TIP3    H153639   2.354   3.011  15.186 -0.8138 -0.9897  0.3297
10716TIP3    H253640   2.316   3.055  15.047  2.0888 -0.1916 -0.2832
10717TIP3   OH253641   3.199   4.198   4.977  0.2870  0.5796  0.5046
10717TIP3    H153642   3.176   4.291   4.972  0.5959  0.6765  0.9005
10717TIP3    H253643   3.128   4.159   5.030 -0.1034  0.4993 -0.0688
10718TIP3   OH253644   1.908   5.517  12.719  0.1699  0.8312  0.2891
10718TIP3    H153645   1.909   5.535  12.813  2.0350 -0.6796  0.6165
10718TIP3    H253646   2.001   5.506  12.695 -0.3877 -1.9375 -1.0465
10719TIP3   OH253647   2.331   0.691  13.791 -0.0969  0.0403 -0.0791
10719TIP3    H153648   2.336   0.656  13.702  0.6354  0.9767 -0.4304
10719TIP3    H253649   2.404   0.754  13.796  0.1138 -0.2758  1.3079
10720TIP3   OH253650   2.420   0.067   0.176  1.2066 -0.0859 -0.1485
10720TIP3    H153651   2.422   0.076   0.272 -2.6748 -2.7586  0.4561
10720TIP3    H253652   2.474  -0.010   0.158  1.1163 -0.2022  0.0656
10721TIP3   OH253653   0.250   2.563   5.265 -0.1081  0.1151 -0.1166
10721TIP3    H153654   0.267   2.607   5.349 -0.0603 -0.6239  0.2671
10721TIP3    H253655   0.189   2.493   5.287 -0.1473 -0.0401 -0.7142
10722TIP3   OH253656   0.853   5.128  11.672  0.2992  0.0223  0.2676
10722TIP3    H153657   0.847   5.095  11.762  0.0678 -0.2042  0.1712
10722TIP3    H253658   0.892   5.056  11.622 -0.3395 -0.1711  0.0296
10723TIP3   OH253659   0.406   6.317  17.186 -0.5056  0.3150  0.5248
10723TIP3    H153660   0.324   6.273  17.164 -1.1617  0.3009  2.7218
10723TIP3    H253661   0.413   6.309  17.281  0.2095  3.4681  0.8467
10724TIP3   OH253662   1.840   2.871  15.661  0.5362  0.5793  0.5780
10724TIP3    H153663   1.816   2.834  15.576  1.3203 -1.6594  1.2619
10724TIP3    H253664   1.859   2.963  15.642  2.1108 -0.1616 -1.9691
10725TIP3   OH253665   0.367   4.545  12.933  0.3213  0.2891  0.0037
10725TIP3    H153666   0.367   4.640  12.920 -0.6294  0.3561  0.3929
10725TIP3    H253667   0.276   4.518  12.918  0.4930 -0.4987  0.2986
10726TIP3   OH253668   2.962   4.872  14.590  0.2842  0.0066 -0.4240
10726TIP3    H153669   2.945   4.876  14.684 -0.0128 -0.6385 -0.4447
10726TIP3    H253670   2.971   4.779  14.571  0.2045  0.1227 -1.0555
10727TIP3   OH253671   5.151   5.525  13.353 -0.8286 -0.4137  0.0298
10727TIP3    H153672   5.077   5.584  13.370  0.6273  1.2324  1.0830
10727TIP3    H253673   5.203   5.529  13.434  1.7609  0.6045 -1.5420
10728TIP3   OH253674   0.987   3.952   1.635  0.4888 -0.3067 -0.1022
10728TIP3    H153675   1.035   3.875   1.663  0.9292  1.0452  3.3324
10728TIP3    H253676   1.033   3.982   1.556  0.4107 -3.3200 -1.4263
10729TIP3   OH253677   5.015   2.998  15.420  0.0438 -0.3811 -0.0114
10729TIP3    H153678   5.097   2.950  15.418  0.2845  0.0343 -1.0291
10729TIP3    H253679   4.954   2.941  15.466  0.5724 -1.2356 -0.3527
10730TIP3   OH253680   0.526   4.922  12.785 -0.3604  0.4554  0.2138
10730TIP3    H153681   0.615   4.931  12.817 -0.8106 -1.4851  2.2419
10730TIP3    H253682   0.495   5.012  12.775  2.3139  1.2563 -2.2904
10731TIP3   OH253683   4.476   5.691   4.222 -0.2689  0.4352  0.1506
10731TIP3    H153684   4.498   5.756   4.289 -0.0403 -1.9337  2.5290
10731TIP3    H253685   4.386   5.666   4.242 -1.2574  1.6910 -2.2907
10732TIP3   OH253686   1.351   6.388  13.465 -0.1651  0.5702  0.2866
10732TIP3    H153687   1.302   6.398  13.547  0.0323  0.8335  0.3755
10732TIP3    H253688   1.322   6.304  13.430  0.0340  0.2703  0.8200
10733TIP3   OH253689   6.744   3.466   5.543 -0.4296  0.2450  0.1678
10733TIP3    H153690   6.812   3.401   5.527 -0.0674  0.6362  0.1016
10733TIP3    H253691   6.663   3.424   5.514 -0.0598  0.2150 -0.8654
10734TIP3   OH253692   4.720   5.884  17.192 -0.1280  0.1001  0.2999
10734TIP3    H153693   4.806   5.850  17.171  0.3046  1.9937 -1.3021
10734TIP3    H253694   4.723   5.900  17.287  1.4780  0.6551  0.1837
10735TIP3   OH253695   0.169   4.294  10.890 -0.0705 -0.3587 -0.2909
10735TIP3    H153696   0.140   4.317  10.803 -2.4477  1.9459  0.9970
10735TIP3    H253697   0.138   4.204  10.903 -1.1833 -0.1267 -1.2296
10736TIP3   OH253698   6.585   1.372  15.722 -0.1389  0.2134 -0.1640
10736TIP3    H153699   6.551   1.452  15.762 -0.9746 -0.3875  0.3626
10736TIP3    H253700   6.619   1.322  15.796  0.0654 -0.0701 -0.4511
10737TIP3   OH253701   5.167   5.686  16.169  0.6175  0.6835 -0.5157
10737TIP3    H153702   5.235   5.667  16.234  0.5206 -2.3089 -1.1520
10737TIP3    H253703   5.094   5.720  16.221  0.3510 -2.0901  1.1301
10738TIP3   OH253704   2.273   3.212   0.798 -0.0019 -0.5056  0.4777
10738TIP3    H153705   2.186   3.188   0.831  0.5035  0.6231  2.9192
10738TIP3    H253706   2.317   3.128   0.783 -1.3373 -1.0896 -0.3641
10739TIP3   OH253707   0.138   1.363  13.116 -0.0336 -0.2389 -0.2929
10739TIP3    H153708   0.144   1.453  13.148 -0.7268  0.3066 -1.6078
10739TIP3    H253709   0.184   1.364  13.032 -0.6194 -0.9453 -0.6382
10740TIP3   OH253710   2.581   2.459  17.283  0.0010 -0.2381 -0.2697
10740TIP3    H153711   2.565   2.526  17.216 -1.4095 -1.0485 -0.7761
10740TIP3    H253712   2.565   2.376  17.238 -2.1834 -0.7760  1.3490
10741TIP3   OH253713   1.376   0.796  10.988  0.2790 -0.3636 -0.1772
10741TIP3    H153714   1.402   0.770  10.900 -0.0879  0.3898 -0.5133
10741TIP3    H253715   1.320   0.725  11.019 -1.9832  0.6626 -1.6755
10742TIP3   OH253716   2.212   5.695  13.158  0.2344 -0.5096 -0.3545
10742TIP3    H153717   2.203   5.644  13.238  0.3211  3.1195  2.2179
10742TIP3    H253718   2.306   5.705  13.146  0.2143 -0.7391 -0.7203
10743TIP3   OH253719   5.058   4.323  15.711  0.2647 -0.0746 -0.4010
10743TIP3    H153720   5.039   4.373  15.632  0.1493 -1.7727 -1.5091
10743TIP3    H253721   4.987   4.345  15.771 -1.4189 -1.0350 -1.9321
10744TIP3   OH253722   6.177   1.836   2.597 -0.1282  0.1765  0.3466
10744TIP3    H153723   6.227   1.916   2.611  0.9530 -0.4645  0.2741
10744TIP3    H253724   6.107   1.861   2.537  0.5970  0.9221 -0.2092
10745TIP3   OH253725   2.897   2.864  16.903 -0.1965  0.0149  0.4752
10745TIP3    H153726   2.914   2.958  16.895 -0.0246  0.0470  1.1557
10745TIP3    H253727   2.871   2.837  16.815  1.5005  0.3459 -0.1675
10746TIP3   OH253728   4.333   2.440   6.590 -0.1040 -0.3306  0.7437
10746TIP3    H153729   4.346   2.347   6.607 -1.0339 -0.5622  0.2638
10746TIP3    H253730   4.339   2.448   6.494 -0.6375 -0.0005  0.7341
10747TIP3   OH253731   4.718   1.930   6.237 -0.1019 -0.1673  0.0402
10747TIP3    H153732   4.647   1.928   6.301 -1.2988 -2.2639 -1.2491
10747TIP3    H253733   4.744   1.839   6.226  3.8421  0.5684  1.4688
10748TIP3   OH253734   5.635   6.022  10.751 -0.1587  0.1090 -0.4776
10748TIP3    H153735   5.551   6.002  10.712 -0.0086  1.0688 -1.3527
10748TIP3    H253736   5.694   6.036  10.676  1.1795 -2.0019  0.0889
10749TIP3   OH253737   2.790   4.291   1.466 -0.2929 -0.0535 -0.1235
10749TIP3    H153738   2.865   4.237   1.490 -0.5035 -0.2794  0.0363
10749TIP3    H253739   2.736   4.233   1.411  0.5970  0.7088 -1.8911
10750TIP3   OH253740   1.132   5.066  16.225  0.4063 -0.5728 -0.0488
10750TIP3    H153741   1.204   5.118  16.190  0.6391 -1.4728 -0.9585
10750TIP3    H253742   1.118   4.997  16.160 -2.2823  0.4269 -0.6345
10751TIP3   OH253743   5.987   2.566  12.937  0.4273  0.2554  0.1430
10751TIP3    H153744   5.919   2.503  12.912  0.8467 -0.3532  0.5270
10751TIP3    H253745   5.950   2.613  13.012  0.0698  0.5486 -0.2138
10752TIP3   OH253746   2.119   4.017   5.665  0.1068 -0.1445  0.5080
10752TIP3    H153747   2.098   3.990   5.576 -1.3447  1.5821  0.2662
10752TIP3    H253748   2.144   4.109   5.658  1.3273 -0.3500  1.7275
10753TIP3   OH253749   5.820   3.731   4.295  0.1870  0.5210  0.1005
10753TIP3    H153750   5.738   3.710   4.340  0.1903  0.2065 -0.0395
10753TIP3    H253751   5.801   3.814   4.250  0.0775  0.6616  0.4048
10754TIP3   OH253752   4.875   0.632  15.093  0.0054 -0.6561  0.0179
10754TIP3    H153753   4.942   0.593  15.150 -1.5472 -1.6426  1.2651
10754TIP3    H253754   4.842   0.559  15.041 -2.0768 -0.8887  1.5049
10755TIP3   OH253755   1.309   6.776   2.655  0.0700 -0.7593  0.2285
10755TIP3    H153756   1.222   6.775   2.614  0.6602  0.1318 -1.0947
10755TIP3    H253757   1.351   6.696   2.624 -0.9870 -2.3535  2.5970
10756TIP3   OH253758   6.739   4.512   3.983  0.1021 -0.3085 -0.5603
10756TIP3    H153759   6.808   4.447   3.996 -1.0143 -1.7644 -1.6300
10756TIP3    H253760   6.783   4.586   3.941  0.8193 -1.7559 -2.5139
10757TIP3   OH253761   3.630   1.138   5.964  0.5049  0.1370  0.1147
10757TIP3    H153762   3.666   1.085   5.893  0.2451  0.4525 -0.2515
10757TIP3    H253763   3.546   1.169   5.931 -0.0221 -0.4447  0.8994
10758TIP3   OH253764   4.735   2.870  12.316  0.1894 -0.5942 -0.2274
10758TIP3    H153765   4.746   2.963  12.337 -0.8136 -0.4013 -0.5325
10758TIP3    H253766   4.649   2.848  12.350  0.4366 -1.4378 -0.1218
10759TIP3   OH253767   1.353   2.905  12.307  0.0014 -0.2129  1.1854
10759TIP3    H153768   1.330   2.979  12.363  1.1539 -0.4759  2.0215
10759TIP3    H253769   1.434   2.932  12.264 -0.2888 -0.4653  0.4561
10760TIP3   OH253770   3.466   1.778   5.469 -0.1726  0.1325  0.4515
10760TIP3    H153771   3.443   1.856   5.519 -2.0967 -0.0588 -0.0498
10760TIP3    H253772   3.539   1.806   5.413  0.3250  1.0475  1.5131
10761TIP3   OH253773   0.639   6.636   6.543 -0.1018  0.3270  0.4169
10761TIP3    H153774   0.621   6.589   6.624 -0.6952  1.4629  0.9626
10761TIP3    H253775   0.609   6.725   6.559  1.0900  0.9397 -0.5597
10762TIP3   OH253776   1.238   6.066   5.750 -0.0697  0.0873 -0.6192
10762TIP3    H153777   1.259   5.983   5.707 -0.2006 -0.0557 -0.4154
10762TIP3    H253778   1.145   6.057   5.773  0.3144 -0.3932  0.8667
10763TIP3   OH253779   3.888   5.732  14.955  0.2130  0.2591 -0.0317
10763TIP3    H153780   3.925   5.723  15.043  2.0835 -2.0125 -0.9293
10763TIP3    H253781   3.814   5.671  14.955 -0.6238  1.2568  0.3389
10764TIP3   OH253782   2.519   3.509   3.656  0.2835 -0.4293  0.1178
10764TIP3    H153783   2.541   3.546   3.570  2.6688 -0.4105  0.6843
10764TIP3    H253784   2.504   3.586   3.712 -0.2785 -0.4355 -0.0112
10765TIP3   OH253785   6.707   0.810   4.135 -0.1052 -0.1778  0.3399
10765TIP3    H153786   6.661   0.727   4.151  0.3613 -0.2901  1.1848
10765TIP3    H253787   6.795   0.795   4.170  0.3561  0.2735 -0.6124
10766TIP3   OH253788   5.512   5.185  14.647  0.9541 -0.0432  0.2528
10766TIP3    H153789   5.580   5.172  14.581  0.3332  2.3662 -0.9983
10766TIP3    H253790   5.440   5.128  14.619  1.6118 -0.8965  0.2846
10767TIP3   OH253791   0.008   6.036  16.010 -0.0289  0.1383 -0.3867
10767TIP3    H153792   0.045   6.088  15.938  2.6015 -0.0705  0.6805
10767TIP3    H253793   0.006   6.096  16.084 -0.7252 -0.2242 -0.1070
10768TIP3   OH253794   1.307   6.204   3.212 -0.4100  0.1082 -0.0983
10768TIP3    H153795   1.240   6.158   3.262 -1.7225  0.9325 -1.0446
10768TIP3    H253796   1.262   6.280   3.174  0.6330 -0.1791 -2.0745
10769TIP3   OH253797   0.891   2.815   0.216 -0.4115  0.0636 -0.1796
10769TIP3    H153798   0.884   2.905   0.187  0.2770  0.2373  0.1580
10769TIP3    H253799   0.801   2.784   0.223 -0.6211  0.0811 -2.2089
10770TIP3   OH253800   2.974   0.735  16.118  0.5285 -0.3060 -1.0125
10770TIP3    H153801   3.002   0.801  16.054  0.6339  0.2054 -0.4545
10770TIP3    H253802   2.988   0.778  16.203 -1.1223 -0.3682 -0.6915
10771TIP3   OH253803   0.924   2.772  13.862  0.0639 -0.1373 -0.2323
10771TIP3    H153804   0.946   2.809  13.776 -0.0877 -0.2069 -0.3015
10771TIP3    H253805   0.856   2.707  13.843  0.3306 -0.4515 -0.1108
10772TIP3   OH253806   5.706   0.851   3.730 -0.1169 -0.2292 -0.2985
10772TIP3    H153807   5.786   0.860   3.782  0.8991 -0.9082 -1.6639
10772TIP3    H253808   5.734   0.804   3.652 -1.7493  0.0364 -1.0870
10773TIP3   OH253809   2.103   2.384  16.992  0.4086 -0.2081  0.0789
10773TIP3    H153810   2.171   2.442  16.957  0.0467 -0.4271 -1.0243
10773TIP3    H253811   2.115   2.301  16.945 -0.5981 -0.2599 -0.1120
10774TIP3   OH253812   5.978   1.016  12.890 -0.1024 -0.2471 -0.2905
10774TIP3    H153813   5.964   1.039  12.798 -3.0680 -1.6087 -0.2921
10774TIP3    H253814   5.973   1.099  12.937 -0.5901  0.2304 -1.1660
10775TIP3   OH253815   3.747   6.578   2.817  0.4776  0.9291  0.2632
10775TIP3    H153816   3.837   6.602   2.795  1.0562 -0.9899  0.3650
10775TIP3    H253817   3.707   6.557   2.733  0.2072  1.4474  0.2556
10776TIP3   OH253818   0.006   5.168  11.500  0.4717  0.2995 -0.0543
10776TIP3    H153819   0.075   5.228  11.531  0.2923  0.7816 -0.5678
10776TIP3    H253820  -0.054   5.224  11.451  0.3951 -0.3402 -0.7022
10777TIP3   OH253821   4.642   5.503  11.023 -0.2469  0.2089  0.9088
10777TIP3    H153822   4.560   5.461  10.995 -0.1151  0.5958 -0.1161
10777TIP3    H253823   4.710   5.439  11.003 -0.0170  0.9441 -0.9009
10778TIP3   OH253824   0.983   4.232   6.086 -0.1108  0.1012  0.3490
10778TIP3    H153825   0.893   4.203   6.073  0.0047 -0.2666  0.3635
10778TIP3    H253826   1.002   4.285   6.008 -0.5016  0.5925  0.5842
10779TIP3   OH253827   4.362   4.087   6.228 -0.2227 -0.2476  0.9168
10779TIP3    H153828   4.377   4.005   6.181 -0.4028 -0.7814  1.7801
10779TIP3    H253829   4.283   4.124   6.186 -0.4813 -0.7981  0.9069
10780TIP3   OH253830   4.302   5.366   2.227 -0.4183  0.0178  0.3298
10780TIP3    H153831   4.291   5.335   2.317 -1.2164 -1.0643 -0.1279
10780TIP3    H253832   4.229   5.328   2.179 -0.7512  1.6442 -0.5262
10781TIP3   OH253833   5.031   2.820   2.684 -0.2522 -0.2934 -0.3366
10781TIP3    H153834   4.995   2.791   2.768  1.3044 -0.8287  0.1725
10781TIP3    H253835   4.994   2.759   2.621 -0.5414 -0.6008  0.1194
10782TIP3   OH253836   3.170   5.483   4.086  0.1086  0.3070  0.1164
10782TIP3    H153837   3.101   5.549   4.088 -0.3894 -0.1409 -1.1338
10782TIP3    H253838   3.245   5.526   4.126 -1.2175  0.3784  2.7637
10783TIP3   OH253839   0.768   0.937  16.940 -0.6603  0.1202  0.5520
10783TIP3    H153840   0.829   0.900  17.004 -0.4233  0.7247  0.6823
10783TIP3    H253841   0.806   0.916  16.855 -2.3258 -3.0690  0.4615
10784TIP3   OH253842   4.230   0.076  12.701  0.9327  0.4294  0.2491
10784TIP3    H153843   4.223  -0.002  12.755  0.9650  0.9832  1.0663
10784TIP3    H253844   4.307   0.060  12.647  1.7169  0.4409  1.3277
10785TIP3   OH253845   3.366   6.753   4.104 -0.5141  0.0137 -0.2922
10785TIP3    H153846   3.283   6.715   4.131 -0.0141 -1.0113 -0.1536
10785TIP3    H253847   3.433   6.693   4.137  0.1990 -0.3135 -2.1950
10786TIP3   OH253848   4.283   6.208   5.198  0.1596  0.1308  0.4693
10786TIP3    H153849   4.198   6.166   5.213 -0.5397  0.5238 -1.9671
10786TIP3    H253850   4.271   6.298   5.227 -0.9125  0.6864 -1.5209
10787TIP3   OH253851   1.006   2.849   5.300  0.2400 -0.2425  0.0493
10787TIP3    H153852   0.965   2.880   5.381 -0.3893  1.2182 -0.7924
10787TIP3    H253853   1.063   2.921   5.273  0.6927 -0.8478 -0.6419
10788TIP3   OH253854   5.233   0.320  11.257 -0.1930 -0.0691  0.3492
10788TIP3    H153855   5.257   0.235  11.220 -0.8760 -0.4943  0.8715
10788TIP3    H253856   5.289   0.329  11.334  1.0952  0.7335 -0.6321
10789TIP3   OH253857   2.746   4.291  14.195  0.0422 -0.5448 -0.1784
10789TIP3    H153858   2.830   4.248  14.213  0.2046 -0.7126 -1.2500
10789TIP3    H253859   2.714   4.249  14.116  0.9927  2.3286 -2.2872
10790TIP3   OH253860   0.853   2.397   0.699  0.3113 -0.3705  0.1378
10790TIP3    H153861   0.902   2.369   0.776 -2.0565  0.3756  2.0442
10790TIP3    H253862   0.787   2.328   0.687 -0.7372  0.6036  0.1743
10791TIP3   OH253863   6.234   2.039   1.869  0.0582  0.1731  0.3024
10791TIP3    H153864   6.287   2.100   1.818  0.2319 -0.2065  0.0273
10791TIP3    H253865   6.145   2.073   1.861 -0.0927 -0.5032 -1.2005
10792TIP3   OH253866   1.717   0.926   6.555 -0.1375 -0.2755 -0.2247
10792TIP3    H153867   1.797   0.894   6.596  0.0795 -1.4272 -1.4423
10792TIP3    H253868   1.650   0.919   6.623  0.7039  0.3298  0.6862
10793TIP3   OH253869   2.058   2.274  13.574  0.2086  0.0552  0.0273
10793TIP3    H153870   1.963   2.282  13.581  0.1119 -0.8948 -0.1476
10793TIP3    H253871   2.086   2.355  13.530 -0.3579  0.9886  1.3305
10794TIP3   OH253872   2.272   1.265  10.451  0.3163  0.1001 -0.5630
10794TIP3    H153873   2.274   1.290  10.359 -0.8371  0.8323 -0.4001
10794TIP3    H253874   2.239   1.175  10.452  1.1691 -0.2334 -0.9021
10795TIP3   OH253875   4.153   2.211  13.624 -0.7141 -0.5421 -0.4569
10795TIP3    H153876   4.137   2.284  13.685 -1.0210 -0.0364 -1.1251
10795TIP3    H253877   4.133   2.133  13.674 -0.5569 -0.1550  0.2235
10796TIP3   OH253878   5.047   6.824  10.650  0.5600  0.2909  0.1751
10796TIP3    H153879   5.101   6.760  10.604  0.7254 -0.2233  1.0625
10796TIP3    H253880   5.094   6.907  10.639  0.2497  0.3112 -1.1334
10797TIP3   OH253881   1.199   3.121   2.221 -0.1215 -0.2495 -0.0300
10797TIP3    H153882   1.195   3.216   2.221 -2.3704 -0.2401  1.7269
10797TIP3    H253883   1.242   3.098   2.303  0.7017 -0.7617 -0.5909
10798TIP3   OH253884   6.772   5.050  17.258 -0.0736  0.6196  0.0199
10798TIP3    H153885   6.682   5.083  17.262 -0.9408 -1.5206 -0.3726
10798TIP3    H253886   6.827   5.128  17.261 -1.9563  2.0069 -0.1946
10799TIP3   OH253887   0.870   1.747  16.500 -0.0662  0.0481  0.1973
10799TIP3    H153888   0.853   1.657  16.471  0.7491 -0.6172  1.6395
10799TIP3    H253889   0.965   1.753  16.502  0.0155 -0.4257  3.8060
10800TIP3   OH253890   2.306   5.766   0.863  0.0076  0.0035  0.1554
10800TIP3    H153891   2.301   5.679   0.904  0.7623  0.2615  0.8316
10800TIP3    H253892   2.257   5.823   0.921  1.7352  0.5238  1.1813
10801TIP3   OH253893   3.574   5.891  15.829  0.1388  0.3220 -0.0438
10801TIP3    H153894   3.481   5.878  15.849  0.3003 -1.8816 -0.5192
10801TIP3    H253895   3.617   5.894  15.915 -0.3655  1.6251  0.1878
10802TIP3   OH253896   1.520   5.939  12.096 -0.3842 -0.0123 -0.4596
10802TIP3    H153897   1.471   5.890  12.030  0.3287 -1.5331  0.0917
10802TIP3    H253898   1.598   5.886  12.112  0.9886  1.8537 -0.5977
10803TIP3   OH253899   0.041   1.947   5.712  0.3727 -0.0087  0.2083
10803TIP3    H153900   0.052   1.963   5.805  0.9942 -1.6456  0.4545
10803TIP3    H253901  -0.041   1.897   5.706  0.4304 -0.0712 -0.1049
10804TIP3   OH253902   2.142   2.571  12.754  0.0187  0.1859 -0.2238
10804TIP3    H153903   2.059   2.618  12.742  0.2531  0.6454 -0.0764
10804TIP3    H253904   2.181   2.611  12.831 -0.0856 -0.7199  0.3080
10805TIP3   OH253905   5.835   0.309   4.313  0.2835  0.5828 -0.8576
10805TIP3    H153906   5.802   0.281   4.398  0.5685 -0.7417 -1.1617
10805TIP3    H253907   5.930   0.310   4.323  0.2766  1.6288 -0.8121
10806TIP3   OH253908   0.697   3.825  15.837  0.0791  0.1161 -0.1249
10806TIP3    H153909   0.614   3.783  15.859 -0.0625  0.4619  0.0033
10806TIP3    H253910   0.737   3.766  15.773  1.5016 -2.0717  2.5546
10807TIP3   OH253911   5.051   4.690   5.373 -0.3187 -0.3725 -1.0514
10807TIP3    H153912   5.132   4.724   5.336  1.2919 -1.4467  1.2557
10807TIP3    H253913   5.066   4.596   5.382  0.2432 -0.0732  3.7633
10808TIP3   OH253914   5.913   1.644  13.168  0.1919  0.1885  0.2069
10808TIP3    H153915   5.915   1.689  13.253 -2.8071  0.2049  0.3792
10808TIP3    H253916   5.828   1.599  13.167 -0.0140  0.4566 -2.9241
10809TIP3   OH253917   0.968   3.559   0.821  0.0007  0.3263  0.4933
10809TIP3    H153918   0.884   3.537   0.862  0.7756 -1.1131  1.3582
10809TIP3    H253919   0.944   3.616   0.748 -1.5721  1.6001  1.8987
10810TIP3   OH253920   1.853   1.995   2.550 -0.0306 -0.1254 -0.3712
10810TIP3    H153921   1.925   2.001   2.487  0.3782  0.0135  0.1050
10810TIP3    H253922   1.871   1.914   2.599 -0.7907 -0.6666 -0.9758
10811TIP3   OH253923   2.387   1.112  15.090  0.1191 -0.4978  0.4964
10811TIP3    H153924   2.311   1.062  15.121  0.0895 -1.0149 -0.3836
10811TIP3    H253925   2.413   1.069  15.009  0.8569  0.1759  0.3609
10812TIP3   OH253926   2.391   5.309   1.499 -0.1449 -0.0170  0.1653
10812TIP3    H153927   2.306   5.325   1.459 -0.7480 -1.2667  0.8889
10812TIP3    H253928   2.444   5.270   1.429 -0.6302 -0.5432  0.0810
10813TIP3   OH253929   6.055   1.143   2.216 -0.8797 -0.5967 -0.0196
10813TIP3    H153930   6.021   1.206   2.280  0.4026 -0.4950  0.5924
10813TIP3    H253931   5.981   1.124   2.160 -1.7033  0.2914  0.7285
10814TIP3   OH253932   0.415   2.594  16.730  0.0764 -0.2590  0.5643
10814TIP3    H153933   0.473   2.603  16.655 -0.3831  0.3810  0.2755
10814TIP3    H253934   0.451   2.654  16.796 -0.1388 -0.0077  0.4558
10815TIP3   OH253935   6.122   2.476  11.289  0.0749  0.4493 -0.0465
10815TIP3    H153936   6.082   2.423  11.357  0.6875 -0.4554 -0.3756
10815TIP3    H253937   6.100   2.432  11.207 -0.9574  1.7241 -0.4848
10816TIP3   OH253938   2.990   4.093   5.114 -0.6302 -0.2327 -0.3056
10816TIP3    H153939   3.004   4.108   5.207 -1.3822  0.5662 -0.3128
10816TIP3    H253940   2.925   4.023   5.110  0.6062 -1.4131 -0.2533
10817TIP3   OH253941   3.799   1.210  14.216 -0.0964 -0.1895 -0.1683
10817TIP3    H153942   3.813   1.171  14.130  1.6946 -0.4490  0.2059
10817TIP3    H253943   3.704   1.218  14.223 -0.4642 -3.0250 -0.8909
10818TIP3   OH253944   3.417   6.015   1.315  0.2473 -0.3363 -0.0674
10818TIP3    H153945   3.444   6.049   1.230 -1.4455  0.2342 -0.4287
10818TIP3    H253946   3.322   6.002   1.306 -0.1384  0.5928  1.9900
10819TIP3   OH253947   1.661   3.767  14.683 -0.2087 -0.2876 -0.3852
10819TIP3    H153948   1.743   3.782  14.731  0.5201  0.1698 -1.7163
10819TIP3    H253949   1.669   3.822  14.605 -0.2074 -2.9076 -2.3566
10820TIP3   OH253950   1.778   6.657  13.333  0.0306  0.3406  0.0877
10820TIP3    H153951   1.756   6.716  13.406 -0.4602 -1.8226  1.7944
10820TIP3    H253952   1.873   6.663  13.325  0.2140 -0.0263  1.5616
10821TIP3   OH253953   0.703   3.678   0.443 -0.2394  0.3909 -0.0907
10821TIP3    H153954   0.617   3.684   0.486 -0.2908  2.3386 -0.4086
10821TIP3    H253955   0.710   3.758   0.391  0.9669 -0.6505 -1.6200
10822TIP3   OH253956   3.036   0.738   2.266 -0.5166  0.1993  0.5870
10822TIP3    H153957   3.041   0.682   2.188 -1.7916 -0.7723  1.1635
10822TIP3    H253958   3.111   0.798   2.257 -0.2874 -0.2714 -1.0676
10823TIP3   OH253959   1.035   1.019   4.535  0.5971 -0.2820  0.5851
10823TIP3    H153960   1.050   1.092   4.595  1.8030 -0.2946  0.3258
10823TIP3    H253961   1.113   1.016   4.480  0.1697 -1.2071 -0.0056
10824TIP3   OH253962   1.674   4.387   2.700  0.0806  0.7065 -0.1639
10824TIP3    H153963   1.587   4.404   2.735 -0.2337  0.7006 -0.9154
10824TIP3    H253964   1.693   4.297   2.726  0.3979  1.1239  1.0780
10825TIP3   OH253965   1.735   6.504   6.097  0.2447  0.1055 -0.9649
10825TIP3    H153966   1.757   6.508   6.191  3.0156 -1.1761 -1.4609
10825TIP3    H253967   1.641   6.489   6.096  0.0385  0.6256  1.6127
10826TIP3   OH253968   4.117   1.518  14.948 -0.2784  0.2111  0.5039
10826TIP3    H153969   4.120   1.425  14.925 -1.9524  1.0650 -4.4269
10826TIP3    H253970   4.206   1.549  14.936 -0.3138 -0.2395 -1.1423
10827TIP3   OH253971   5.348   1.199   3.872  0.7552 -0.3140 -0.0371
10827TIP3    H153972   5.439   1.179   3.850  1.3663  1.5133  0.6325
10827TIP3    H253973   5.342   1.184   3.966  0.4141 -0.2189 -0.0423
10828TIP3   OH253974   3.489   3.695   5.621  0.0107 -0.3412 -0.0397
10828TIP3    H153975   3.581   3.672   5.605  1.0714  1.8152  2.3103
10828TIP3    H253976   3.457   3.627   5.679  1.3017  0.7525  2.0643
10829TIP3   OH253977   5.413   2.143  16.455 -0.2528 -0.8451  0.8451
10829TIP3    H153978   5.502   2.129  16.485 -0.0050 -0.3017  0.3886
10829TIP3    H253979   5.376   2.056  16.446  0.9005 -1.1874 -0.9765
10830TIP3   OH253980   1.193   0.471  16.833  0.2388  0.2963  0.1360
10830TIP3    H153981   1.226   0.560  16.825  2.8819 -0.6694 -0.8487
10830TIP3    H253982   1.216   0.429  16.751  0.0947 -1.5950  1.0012
10831TIP3   OH253983   2.490   2.301  17.023 -0.1508 -0.0454 -0.4310
10831TIP3    H153984   2.566   2.263  16.980 -0.8966 -1.5462 -0.5025
10831TIP3    H253985   2.448   2.355  16.956  1.7721  2.2960  0.1171
10832TIP3   OH253986   4.520   3.101   5.094 -0.2692  0.1661  0.2133
10832TIP3    H153987   4.507   3.139   5.007  1.9433 -0.5124 -0.4830
10832TIP3    H253988   4.602   3.051   5.087 -0.2079 -0.2075  2.5914
10833TIP3   OH253989   0.146   2.814  14.249  0.0122 -0.2614  0.2682
10833TIP3    H153990   0.200   2.885  14.214  0.0510 -0.5856 -0.3216
10833TIP3    H253991   0.208   2.758  14.297  0.7949 -2.2616 -2.8177
10834TIP3   OH253992   5.156   6.602   0.345  0.1740  0.0095 -0.1077
10834TIP3    H153993   5.248   6.628   0.334  0.2448 -0.3825 -0.4805
10834TIP3    H253994   5.156   6.508   0.330 -0.3846  0.1024 -0.7197
10835TIP3   OH253995   0.385   4.146  11.165 -0.5279 -0.0772  0.0657
10835TIP3    H153996   0.414   4.058  11.191  1.2423  0.6339  0.6265
10835TIP3    H253997   0.347   4.184  11.244 -0.6009 -0.0727  0.0279
10836TIP3   OH253998   5.542   5.123  10.798 -0.0557  0.4668  0.4575
10836TIP3    H153999   5.516   5.037  10.765 -0.8125  1.3897 -1.5335
10836TIP3    H254000   5.635   5.113  10.819  0.0710 -0.6592 -0.5138
10837TIP3   OH254001   0.055   5.924   3.868  0.2510 -0.0195 -1.0026
10837TIP3    H154002   0.009   6.005   3.845  0.2647  0.0163 -0.9041
10837TIP3    H254003   0.118   5.911   3.798  0.5068  0.2564 -0.8255
10838TIP3   OH254004   1.067   0.498   4.587  0.0771  0.5042  0.0934
10838TIP3    H154005   1.057   0.592   4.604 -1.7506  0.3075  0.3068
10838TIP3    H254006   1.057   0.457   4.673 -0.6592  0.0323 -0.2059
10839TIP3   OH254007   4.379   6.623  13.899  0.4245  0.1829 -0.2532
10839TIP3    H154008   4.417   6.551  13.948 -1.3198 -1.4432 -1.1622
10839TIP3    H254009   4.293   6.638  13.939 -0.8522 -0.8747 -2.3608
10840TIP3   OH254010   0.320   3.988  12.183  0.6864 -0.0735 -0.2263
10840TIP3    H154011   0.407   3.998  12.221  1.3853 -2.6227 -0.9802
10840TIP3    H254012   0.280   3.916  12.232 -1.1480  1.2362  0.2987
10841TIP3   OH254013   0.271   6.809   3.766  0.0921 -0.0239  0.4709
10841TIP3    H154014   0.349   6.851   3.730 -1.5645  2.3478 -0.6663
10841TIP3    H254015   0.214   6.796   3.690 -0.8871 -1.1190  1.3592
10842TIP3   OH254016   3.054   5.377  14.008  0.3620 -0.0750 -0.2905
10842TIP3    H154017   3.024   5.428  13.933 -0.1123  0.8359  0.4987
10842TIP3    H254018   2.978   5.325  14.033  0.3329  0.0675 -0.0796
10843TIP3   OH254019   3.207   2.918  10.279  0.7974  0.1436  0.1633
10843TIP3    H154020   3.211   2.911  10.374  0.9300 -0.1072  0.1404
10843TIP3    H254021   3.299   2.926  10.251  0.6848  1.5968  0.1555
10844TIP3   OH254022   1.909   5.563  12.426  0.6805 -0.1037  0.1725
10844TIP3    H154023   1.924   5.658  12.420 -0.8290  0.2325  1.1555
10844TIP3    H254024   1.924   5.542  12.518 -1.7443 -0.2611  0.5819
10845TIP3   OH254025   5.105   4.464   4.768 -0.7712 -0.4740 -0.1338
10845TIP3    H154026   5.170   4.474   4.837 -0.2785 -0.4376 -0.5959
10845TIP3    H254027   5.059   4.384   4.790 -0.2632 -0.7464 -0.0464
10846TIP3   OH254028   6.564   5.094  11.136 -0.3226  0.0946  0.6458
10846TIP3    H154029   6.575   5.187  11.156  1.0019 -0.0083  0.4368
10846TIP3    H254030   6.560   5.089  11.041 -0.0086 -0.1016  0.6421
10847TIP3   OH254031   3.465   1.736  14.257 -0.8688 -0.1996 -0.5529
10847TIP3    H154032   3.496   1.646  14.265  1.7843  0.5410 -1.3366
10847TIP3    H254033   3.476   1.773  14.344 -1.2154 -0.4048 -0.4197
10848TIP3   OH254034   4.469   1.579  17.070  0.0856  0.2253  0.1003
10848TIP3    H154035   4.468   1.604  16.978 -1.0262  0.1268  0.0639
10848TIP3    H254036   4.376   1.576  17.094  0.3516 -0.1512  1.1090
10849TIP3   OH254037   5.061   3.248  12.901 -0.6504  0.0353  0.2958
10849TIP3    H154038   5.021   3.164  12.877 -0.0708 -0.2399  0.2838
10849TIP3    H254039   5.091   3.284  12.818  1.6327 -1.0575  0.5610
10850TIP3   OH254040   0.432   1.444  10.770  0.4976  0.6671  0.9859
10850TIP3    H154041   0.498   1.421  10.705  1.6038  0.6582  2.0616
10850TIP3    H254042   0.377   1.366  10.777  0.1403  0.8085 -0.1991
10851TIP3   OH254043   6.083   4.891  10.811 -0.5253 -0.5481 -0.0142
10851TIP3    H154044   6.074   4.986  10.814 -0.4709 -0.5409 -0.0795
10851TIP3    H254045   6.174   4.876  10.785 -0.6760 -0.6133 -0.5097
10852TIP3   OH254046   4.210   4.367   5.254 -0.3777  0.0493  0.5351
10852TIP3    H154047   4.252   4.315   5.185 -1.0137  0.2772 -0.0362
10852TIP3    H254048   4.258   4.450   5.254 -1.1926  0.5445 -0.5403
10853TIP3   OH254049   1.482   5.301  11.423 -0.0299  0.7134  0.1686
10853TIP3    H154050   1.407   5.359  11.428 -0.7444 -0.2598  2.5405
10853TIP3    H254051   1.550   5.346  11.474  0.0329  0.3457  0.4156
10854TIP3   OH254052   3.545   0.365   6.242  0.2604  0.0505  0.3069
10854TIP3    H154053   3.634   0.349   6.210  0.3879  1.4020 -0.0647
10854TIP3    H254054   3.498   0.283   6.225  0.6825  0.2458 -2.1517
10855TIP3   OH254055   0.628   3.916  16.248 -0.1040 -0.7408 -0.5393
10855TIP3    H154056   0.547   3.937  16.294 -0.6324  0.0867 -1.7946
10855TIP3    H254057   0.694   3.974  16.288 -0.2246 -1.0463  0.1251
10856TIP3   OH254058   5.545   3.525   2.184  0.5499  0.1285 -0.0687
10856TIP3    H154059   5.453   3.526   2.211  0.9043  0.7289  1.1876
10856TIP3    H254060   5.593   3.510   2.265  1.6345  1.3926 -0.4465
10857TIP3   OH254061   3.675   3.460  11.854  0.2663  0.2459 -0.9546
10857TIP3    H154062   3.758   3.505  11.841  0.9590 -1.0647 -1.2965
10857TIP3    H254063   3.634   3.460  11.768 -0.8052  2.1925 -0.4782
10858TIP3   OH254064   3.322   5.661   0.778 -0.2790  0.1141  0.2409
10858TIP3    H154065   3.234   5.690   0.801 -0.1880 -0.3627  1.2519
10858TIP3    H254066   3.368   5.740   0.753 -1.3101  0.2353 -1.4224
10859TIP3   OH254067   3.811   4.813   3.399  0.4255 -0.2501 -0.0368
10859TIP3    H154068   3.866   4.734   3.396  0.8288 -0.0400  1.5028
10859TIP3    H254069   3.848   4.866   3.469 -1.4460  0.1129  0.7330
10860TIP3   OH254070   2.638   0.975   2.717  0.2396 -0.5899  0.3984
10860TIP3    H154071   2.667   1.029   2.791  0.2462 -0.7643  0.5240
10860TIP3    H254072   2.700   0.995   2.647  0.2434 -0.4370  0.4453
10861TIP3   OH254073   6.573   4.771   2.234  0.3722 -0.0790 -0.2755
10861TIP3    H154074   6.479   4.784   2.230  0.1019 -1.8766 -0.9639
10861TIP3    H254075   6.601   4.818   2.313 -1.0196  0.7974 -0.2738
10862TIP3   OH254076   1.078   0.244   2.607  0.0717 -0.1938  0.0228
10862TIP3    H154077   1.080   0.279   2.696  0.3084 -0.2709  0.0501
10862TIP3    H254078   1.113   0.155   2.616 -0.5853 -0.4636 -0.0354
10863TIP3   OH254079   0.067   2.685  15.788  0.2428  0.6740 -0.0954
10863TIP3    H154080   0.002   2.683  15.859  0.8993 -1.3023  0.5375
10863TIP3    H254081   0.148   2.712  15.831  0.4772  0.2140 -0.2395
10864TIP3   OH254082   5.385   5.481   4.961  0.3287 -0.0247 -0.1842
10864TIP3    H154083   5.466   5.449   4.921  1.3728  0.6124  1.2874
10864TIP3    H254084   5.375   5.428   5.040 -0.6960 -0.0720 -0.3336
10865TIP3   OH254085   2.265   4.193  16.472  0.2476  0.4883 -0.2032
10865TIP3    H154086   2.346   4.230  16.508  0.3442  0.0375  0.0557
10865TIP3    H254087   2.285   4.100  16.461 -0.5090  0.2090  0.6634
10866TIP3   OH254088   1.868   5.528  11.267 -0.1681 -0.4993  0.2057
10866TIP3    H154089   1.888   5.449  11.318  0.4714 -0.2384  0.3630
10866TIP3    H254090   1.863   5.497  11.176  0.0271 -0.7357  0.2736
10867TIP3   OH254091   6.680   0.947  14.672 -0.4627 -0.3535 -0.1791
10867TIP3    H154092   6.696   1.041  14.678 -2.3205  0.0968 -1.4320
10867TIP3    H254093   6.746   0.907  14.730 -0.0475  1.7285  0.8609
10868TIP3   OH254094   5.421   4.933  17.118  0.1428 -0.2014  0.2196
10868TIP3    H154095   5.371   4.950  17.198  0.6821 -1.5669  0.8828
10868TIP3    H254096   5.469   4.852  17.137  0.3678 -0.4866 -1.4585
10869TIP3   OH254097   3.258   5.105  15.217  0.0237 -0.3952 -0.4103
10869TIP3    H154098   3.269   5.097  15.312  1.4084  1.0369 -0.4251
10869TIP3    H254099   3.226   5.194  15.203 -0.0834 -0.5602 -1.2951
10870TIP3   OH254100   3.039   2.235  11.214 -0.3846 -0.2622  0.0960
10870TIP3    H154101   2.999   2.250  11.300  1.0030 -0.9902  0.8933
10870TIP3    H254102   3.099   2.309  11.202  0.7656 -1.0984  0.5827
10871TIP3   OH254103   4.525   3.015  15.614  0.3224 -0.2670  0.3126
10871TIP3    H154104   4.445   2.962  15.616  0.2608 -0.3131 -1.7953
10871TIP3    H254105   4.495   3.104  15.631 -0.0012 -0.4638  0.7949
10872TIP3   OH254106   0.137   4.784   5.406 -0.0938  0.0337 -0.0977
10872TIP3    H154107   0.042   4.769   5.411  0.0679 -0.6693  2.1580
10872TIP3    H254108   0.159   4.824   5.490  1.6622 -0.0451 -0.4813
10873TIP3   OH254109   3.514   1.369   1.312  0.2023 -0.1094 -0.1082
10873TIP3    H154110   3.482   1.391   1.225 -1.7953 -1.0270  0.3519
10873TIP3    H254111   3.437   1.373   1.369  0.7145 -2.9651  0.9647
10874TIP3   OH254112   0.851   4.862   2.266 -0.0440  0.0578 -0.3161
10874TIP3    H154113   0.881   4.813   2.342  0.2588 -1.0603 -1.1276
10874TIP3    H254114   0.837   4.795   2.198 -2.7818  0.7021 -0.4901
10875TIP3   OH254115   2.434   2.558  10.764  0.1265 -0.1600  0.3329
10875TIP3    H154116   2.433   2.593  10.852  0.2558  0.5448  0.0603
10875TIP3    H254117   2.472   2.628  10.710  1.7484 -1.2223 -0.0000
10876TIP3   OH254118   4.173   0.398  16.647  0.0296 -0.5202  0.2851
10876TIP3    H154119   4.246   0.354  16.690 -0.5115  0.1593  1.9749
10876TIP3    H254120   4.194   0.491  16.652 -1.2435 -0.2587  1.4433
10877TIP3   OH254121   2.367   5.487   3.284  0.1960  0.1847 -0.5046
10877TIP3    H154122   2.301   5.417   3.281  1.1046 -0.6679 -1.9620
10877TIP3    H254123   2.445   5.446   3.321  0.4707  0.6658 -0.5432
10878TIP3   OH254124   4.876   2.769  16.915  0.3182  0.0934  0.5306
10878TIP3    H154125   4.805   2.833  16.915  0.1224 -0.1202  0.2670
10878TIP3    H254126   4.835   2.688  16.884  0.7442  0.0360  0.1070
10879TIP3   OH254127   2.060   0.730   4.432  0.7708  0.0592  0.0583
10879TIP3    H154128   2.105   0.705   4.512  0.0441  0.7302  0.6862
10879TIP3    H254129   2.049   0.648   4.384  1.4788 -0.3018  0.4948
10880TIP3   OH254130   4.712   4.890  12.091 -0.0767  0.0616 -0.0865
10880TIP3    H154131   4.733   4.973  12.049  1.9621 -1.7259 -3.0053
10880TIP3    H254132   4.647   4.850  12.034 -1.5545 -0.1292  1.6537
10881TIP3   OH254133   1.336   3.118   4.728  0.0410  0.0003  0.2539
10881TIP3    H154134   1.370   3.109   4.818 -0.1143  0.9142  0.4203
10881TIP3    H254135   1.413   3.106   4.673  0.7537  2.2880  0.6391
10882TIP3   OH254136   5.811   5.591   4.728 -0.2288  0.1513  0.2825
10882TIP3    H154137   5.862   5.515   4.702 -1.1721  0.1713 -1.8423
10882TIP3    H254138   5.724   5.556   4.750  0.0592  0.3527  1.9176
10883TIP3   OH254139   5.739   2.546   2.268  0.1896 -0.6929 -0.2998
10883TIP3    H154140   5.784   2.473   2.311 -1.6714 -1.0332  1.1917
10883TIP3    H254141   5.666   2.506   2.222 -0.0749  0.0949 -0.5908
10884TIP3   OH254142   3.446   2.449  10.816  0.0929 -0.4308 -0.5055
10884TIP3    H154143   3.525   2.502  10.817  0.4713 -0.9496 -1.5136
10884TIP3    H254144   3.383   2.501  10.766  0.0571 -0.3844 -0.4129
10885TIP3   OH254145   4.384   2.089   4.472 -0.3145 -0.4469 -0.8036
10885TIP3    H154146   4.407   2.054   4.386 -2.2237  0.3075 -1.6602
10885TIP3    H254147   4.289   2.085   4.475 -0.2611 -1.2789  1.6608
10886TIP3   OH254148   3.253   6.635  15.234 -0.3765  0.1350 -0.0017
10886TIP3    H154149   3.199   6.566  15.274  1.3395 -0.8730  0.6678
10886TIP3    H254150   3.239   6.625  15.140  1.6058 -2.7222 -0.0862
10887TIP3   OH254151   0.991   6.550  12.484 -0.5187  1.1389 -0.3493
10887TIP3    H154152   1.036   6.495  12.420  0.1260  0.7252  0.4253
10887TIP3    H254153   1.058   6.568  12.551 -1.0626  1.8595  0.0230
10888TIP3   OH254154   0.823   5.866   0.766  0.2539  0.6646 -0.9797
10888TIP3    H154155   0.907   5.853   0.811 -0.5735 -1.7800  0.0336
10888TIP3    H254156   0.763   5.892   0.836 -0.9242 -2.6376 -0.5934
10889TIP3   OH254157   3.438   1.213   0.548  0.1746 -0.3936  0.1156
10889TIP3    H154158   3.532   1.228   0.534  0.0007  1.2642  0.5208
10889TIP3    H254159   3.414   1.148   0.482  1.9187 -2.0945  1.0417
10890TIP3   OH254160   6.628   1.274   5.468  0.3153  0.0179  0.4800
10890TIP3    H154161   6.658   1.183   5.470  0.7749  0.1481 -0.4214
10890TIP3    H254162   6.542   1.270   5.427 -0.6476 -0.2643  2.4155
10891TIP3   OH254163   6.740   4.176  13.789  0.4518  0.5601  0.1985
10891TIP3    H154164   6.771   4.182  13.879 -0.9578  0.8775  0.6815
10891TIP3    H254165   6.684   4.098  13.788  1.1220  0.0717 -0.6211
10892TIP3   OH254166   6.674   0.518   0.633  0.6037 -0.3726  0.1814
10892TIP3    H154167   6.740   0.495   0.569 -0.4847 -1.5435 -0.5538
10892TIP3    H254168   6.641   0.603   0.604 -0.6592 -1.3854 -1.5035
10893TIP3   OH254169   6.391   6.641   3.917 -0.0503 -0.2575 -0.4192
10893TIP3    H154170   6.321   6.617   3.857  0.4083  0.1346 -1.1239
10893TIP3    H254171   6.470   6.601   3.879  0.1250 -0.6399  0.3260
10894TIP3   OH254172   4.302   6.351  14.458  0.4381 -0.3732 -0.6185
10894TIP3    H154173   4.362   6.390  14.395  2.0725 -0.9780  0.5108
10894TIP3    H254174   4.313   6.257  14.447  0.6403 -0.4845  0.4564
10895TIP3   OH254175   5.718   3.069   5.235  0.0431 -0.0661 -0.4235
10895TIP3    H154176   5.750   3.138   5.178  0.3484 -1.3774 -1.8925
10895TIP3    H254177   5.655   3.021   5.182 -0.1798 -0.9259  0.5749
10896TIP3   OH254178   1.654   5.164   0.318  0.1585 -0.4391 -0.6133
10896TIP3    H154179   1.563   5.157   0.347  0.5703  0.5697  1.0828
10896TIP3    H254180   1.651   5.219   0.240 -0.6355  0.1296 -0.1961
10897TIP3   OH254181   2.647   4.725   4.104 -0.6621  0.1744  0.1396
10897TIP3    H154182   2.588   4.771   4.164 -0.1463  1.4402 -0.3029
10897TIP3    H254183   2.706   4.676   4.162 -2.1781 -1.2206  0.5905
10898TIP3   OH254184   1.091   5.102  15.151 -0.0858  0.1263  0.0237
10898TIP3    H154185   1.153   5.162  15.108  0.7888  1.3046  2.7097
10898TIP3    H254186   1.004   5.137  15.127  0.3278  0.3462 -1.2445
10899TIP3   OH254187   1.597   4.199   3.504 -0.5836  0.1261 -0.9372
10899TIP3    H154188   1.632   4.284   3.529 -1.2107 -0.0308  0.6167
10899TIP3    H254189   1.611   4.193   3.410  0.8227  1.3015 -0.8244
10900TIP3   OH254190   0.912   2.204   0.205 -0.3787 -0.1800 -0.5141
10900TIP3    H154191   0.991   2.245   0.170 -1.2271  0.2914 -1.9178
10900TIP3    H254192   0.858   2.277   0.236 -0.1419 -0.5221  0.7998
10901TIP3   OH254193   4.685   0.666   1.151  0.0412  0.1877  0.2298
10901TIP3    H154194   4.639   0.701   1.227 -1.2442  0.0377 -0.4638
10901TIP3    H254195   4.617   0.626   1.097  0.8117  0.8981 -1.3480
10902TIP3   OH254196   1.271   3.001  13.078  0.0284 -0.0197 -0.3906
10902TIP3    H154197   1.209   2.931  13.099  0.9816 -1.0475 -0.9046
10902TIP3    H254198   1.221   3.062  13.024 -1.4370  0.8376  1.7637
10903TIP3   OH254199   3.718   0.475   4.274  0.3098  0.4669 -0.6428
10903TIP3    H154200   3.742   0.403   4.216 -0.4803 -2.3586  2.2192
10903TIP3    H254201   3.721   0.437   4.362 -2.4836  3.2765  0.8905
10904TIP3   OH254202   0.614   0.942   3.908  0.7591  0.2266  0.1648
10904TIP3    H154203   0.700   0.933   3.866 -0.4282  0.2979 -2.5000
10904TIP3    H254204   0.577   1.022   3.869 -0.7850 -0.1868  0.7139
10905TIP3   OH254205   3.081   1.246  14.445  0.6104 -0.5989 -0.2307
10905TIP3    H154206   3.121   1.272  14.362  1.1794  0.9854  0.4900
10905TIP3    H254207   3.150   1.261  14.510  0.3611 -2.3606  0.4768
10906TIP3   OH254208   3.459   4.746   1.781  0.2688 -0.0282  0.2241
10906TIP3    H154209   3.437   4.758   1.689  1.2690 -0.5742 -0.0998
10906TIP3    H254210   3.553   4.728   1.781 -0.2171 -3.1376  1.0596
10907TIP3   OH254211   4.811   1.823  15.741  0.0432 -0.0415 -0.6057
10907TIP3    H154212   4.784   1.910  15.711  0.6599  0.1739 -0.5673
10907TIP3    H254213   4.730   1.772  15.746 -0.3575  0.6100 -0.3787
10908TIP3   OH254214   6.544   0.072   3.008 -0.2266  0.4666 -0.3143
10908TIP3    H154215   6.572   0.051   2.919 -1.9707 -0.9962 -0.5752
10908TIP3    H254216   6.586   0.006   3.063 -1.8592 -0.8069 -0.5264
10909TIP3   OH254217   0.046   3.000   2.507  0.3767 -1.0070  0.1317
10909TIP3    H154218   0.016   3.066   2.446  1.5175 -1.3825 -0.8871
10909TIP3    H254219   0.063   2.923   2.453  0.9442 -1.5066  0.9878
10910TIP3   OH254220   6.671   1.871   1.553 -0.2179  0.3848  0.3123
10910TIP3    H154221   6.601   1.813   1.582 -1.7080  1.4120 -1.0275
10910TIP3    H254222   6.658   1.951   1.604 -1.0517  1.1423 -1.0172
10911TIP3   OH254223   1.532   6.534   0.385  0.3418  0.2479 -0.8873
10911TIP3    H154224   1.453   6.479   0.388  0.8194 -0.4456 -0.5209
10911TIP3    H254225   1.533   6.579   0.470  0.2407  0.4013 -0.9675
10912TIP3   OH254226   2.749   6.443  11.499  0.0663  0.0284 -0.0990
10912TIP3    H154227   2.801   6.384  11.445 -0.7846  0.0869 -0.9976
10912TIP3    H254228   2.716   6.509  11.439 -1.6406 -0.4128  0.3049
10913TIP3   OH254229   6.567   4.429   6.158 -0.1291  0.9616 -0.2924
10913TIP3    H154230   6.473   4.448   6.165  0.4033  3.2105  2.0649
10913TIP3    H254231   6.595   4.477   6.080 -0.6773  1.3657 -0.2448
10914TIP3   OH254232   0.000   5.359   2.557  0.9052 -0.1560  0.3447
10914TIP3    H154233  -0.048   5.420   2.501  0.7963  0.3507  0.9791
10914TIP3    H254234  -0.052   5.278   2.554  1.8862 -0.7820 -1.7739
10915TIP3   OH254235   4.382   5.292  15.410  0.4152 -0.1739 -0.3825
10915TIP3    H154236   4.447   5.245  15.462 -0.4016 -2.5079 -1.3465
10915TIP3    H254237   4.304   5.236  15.414 -0.6561  1.1721 -1.5123
10916TIP3   OH254238   0.751   2.186  16.267  0.7847  0.5209 -0.3623
10916TIP3    H154239   0.818   2.123  16.294 -0.7956 -1.1751 -0.2213
10916TIP3    H254240   0.800   2.267  16.251  2.8841 -0.6728 -0.4237
10917TIP3   OH254241   2.599   1.574  14.862  0.1996 -0.3964  0.0355
10917TIP3    H154242   2.660   1.502  14.878  0.7888  0.3288  1.1651
10917TIP3    H254243   2.640   1.626  14.793 -0.1035 -0.9791 -0.5963
10918TIP3   OH254244   1.703   4.508   5.652  0.2398  0.2235  0.3760
10918TIP3    H154245   1.624   4.528   5.601  0.3633  2.5189  0.9827
10918TIP3    H254246   1.681   4.535   5.741  0.8477 -1.5550  1.1119
10919TIP3   OH254247   3.801   5.006   0.490  0.1182  0.0526  0.0510
10919TIP3    H154248   3.862   4.966   0.428 -0.4003 -0.7708  0.0602
10919TIP3    H254249   3.727   5.035   0.435  0.3173  0.6725  0.0956
10920TIP3   OH254250   1.767   6.269   4.792  0.1180 -0.0501  0.0204
10920TIP3    H154251   1.804   6.303   4.711 -1.0440  0.3646 -0.3527
10920TIP3    H254252   1.760   6.346   4.849 -0.4707 -0.0634 -0.0309
10921TIP3   OH254253   4.191   0.776   4.959  0.3497 -0.3650  0.1786
10921TIP3    H154254   4.128   0.710   4.928  0.2669 -0.5264  0.6671
10921TIP3    H254255   4.200   0.757   5.053  2.0771 -1.1472 -0.0996
10922TIP3   OH254256   1.669   6.743  15.762 -0.1290 -0.7235  0.7346
10922TIP3    H154257   1.753   6.696  15.767 -0.6237 -1.5088  2.4652
10922TIP3    H254258   1.637   6.725  15.674  1.6680 -0.1198 -0.0899
10923TIP3   OH254259   4.205   0.578   3.418 -0.2664 -0.5514 -0.4516
10923TIP3    H154260   4.196   0.515   3.490 -1.6490  0.4469  0.2866
10923TIP3    H254261   4.295   0.566   3.388  0.4097 -0.8974  1.5521
10924TIP3   OH254262   1.266   3.545   5.038  0.1925 -0.4084 -0.1275
10924TIP3    H154263   1.345   3.562   5.089  0.6916  0.3495 -1.1016
10924TIP3    H254264   1.263   3.618   4.975 -0.0032 -1.6541 -1.6287
10925TIP3   OH254265   6.158   5.085  14.969  0.0089 -0.3568 -0.2030
10925TIP3    H154266   6.120   5.041  15.045  1.7991  0.5908  1.3488
10925TIP3    H254267   6.198   5.014  14.918 -0.6948 -0.9486  0.0563
10926TIP3   OH254268   2.920   1.553  15.265  0.4277 -0.1062  0.3751
10926TIP3    H154269   2.886   1.537  15.353  0.6355  1.2251  0.7216
10926TIP3    H254270   3.013   1.530  15.271  1.0694  2.4116  1.2745
10927TIP3   OH254271   5.973   0.137  11.696 -0.6906 -0.0884  0.1070
10927TIP3    H154272   5.880   0.124  11.678 -0.7680  0.2530  0.2475
10927TIP3    H254273   6.006   0.186  11.620 -0.6020 -0.2940  0.0111
10928TIP3   OH254274   4.224   5.079  13.364  0.1701 -0.3260  0.2919
10928TIP3    H154275   4.203   5.048  13.452  2.0727 -0.2692  0.8122
10928TIP3    H254276   4.279   5.010  13.326  1.2481  0.6458  0.0227
10929TIP3   OH254277   5.328   1.700   3.110  0.2027  0.1989  0.5920
10929TIP3    H154278   5.414   1.661   3.126  0.4773  0.6202  0.1636
10929TIP3    H254279   5.299   1.661   3.027 -0.6759 -1.0535  1.4577
10930TIP3   OH254280   5.596   0.833  11.492  0.2311  0.0385 -0.1157
10930TIP3    H154281   5.592   0.927  11.476 -1.3393  0.2005  0.9836
10930TIP3    H254282   5.607   0.794  11.406  1.5538  1.2395 -0.5230
10931TIP3   OH254283   2.026   4.407  14.527 -0.5110 -0.4365 -0.1975
10931TIP3    H154284   1.991   4.335  14.579 -0.8793 -1.0564 -1.2737
10931TIP3    H254285   2.027   4.374  14.437 -0.6860  0.8940 -0.7178
10932TIP3   OH254286   0.881   4.779   0.111 -0.0181  0.2738  0.2004
10932TIP3    H154287   0.968   4.793   0.073  0.2778 -0.9681  0.3555
10932TIP3    H254288   0.825   4.760   0.035 -0.2691  1.5041  0.0579
10933TIP3   OH254289   4.425   1.691  14.209 -0.0268  0.0120  0.2245
10933TIP3    H154290   4.391   1.777  14.185 -0.0859  0.3454  1.3993
10933TIP3    H254291   4.419   1.690  14.305 -1.2910 -1.8136  0.1687
10934TIP3   OH254292   2.652   6.297  11.083  0.1117 -0.3897  0.3764
10934TIP3    H154293   2.686   6.333  11.002 -0.0575  0.1257  0.5316
10934TIP3    H254294   2.565   6.335  11.092  0.0437 -0.6133  0.6867
10935TIP3   OH254295   2.849   1.009  15.071 -0.0365 -0.0725 -0.5319
10935TIP3    H154296   2.766   1.035  15.110  0.8183  1.3368  0.4673
10935TIP3    H254297   2.843   0.914  15.061 -0.5664 -0.4668  2.5681
10936TIP3   OH254298   3.108   5.059   0.876  0.1003 -0.1913 -0.1420
10936TIP3    H154299   3.192   5.033   0.838 -0.4010 -0.9951 -0.7241
10936TIP3    H254300   3.130   5.091   0.963  0.9528 -0.9056 -0.0811
10937TIP3   OH254301   1.881   0.190   6.667 -0.9843 -0.5254 -0.0703
10937TIP3    H154302   1.939   0.132   6.715 -1.7247 -1.9386 -0.8144
10937TIP3    H254303   1.931   0.271   6.655  0.9857 -1.8235 -1.0598
10938TIP3   OH254304   4.154   3.462  16.446  0.0203  0.2668  0.0091
10938TIP3    H154305   4.140   3.523  16.518  0.4273 -1.5954  1.7489
10938TIP3    H254306   4.249   3.451  16.443 -0.0533 -0.2766 -0.3052
10939TIP3   OH254307   4.443   2.977  17.276  0.1448  0.0864  0.3686
10939TIP3    H154308   4.534   3.006  17.274  0.0165  0.4564 -0.9100
10939TIP3    H254309   4.448   2.884  17.253 -0.0099  0.8413 -3.3121
10940TIP3   OH254310   1.689   2.771  12.757  0.5634  0.1975  0.3247
10940TIP3    H154311   1.627   2.806  12.821  1.8477  2.4584  0.4227
10940TIP3    H254312   1.636   2.757  12.678 -0.5246 -0.1942  1.0929
10941TIP3   OH254313   1.840   6.727  14.114 -0.4830  0.4581  0.1958
10941TIP3    H154314   1.753   6.717  14.154 -1.0943  0.5517 -1.0476
10941TIP3    H254315   1.829   6.691  14.025  1.1710 -0.9781  0.5184
10942TIP3   OH254316   6.383   5.698  15.664 -0.6363  0.9160  0.1318
10942TIP3    H154317   6.393   5.751  15.586  1.9712  0.4451  0.0623
10942TIP3    H254318   6.292   5.668  15.662 -1.3803  3.0903 -1.2451
10943TIP3   OH254319   3.284   0.019   1.698 -0.0645 -0.0891 -0.1571
10943TIP3    H154320   3.248  -0.028   1.773  0.6176 -1.5843 -0.7284
10943TIP3    H254321   3.352   0.075   1.735  0.6325 -1.2092  0.3093
10944TIP3   OH254322   3.374   4.179  15.478 -0.0947  0.8529 -0.4899
10944TIP3    H154323   3.387   4.085  15.466  3.7484  1.2548 -0.7954
10944TIP3    H254324   3.320   4.205  15.403 -0.1208 -0.8874 -1.1303
10945TIP3   OH254325   6.757   2.763  16.029 -0.0233 -0.1513  0.0388
10945TIP3    H154326   6.720   2.848  16.052  1.5876  1.1744 -1.8491
10945TIP3    H254327   6.851   2.775  16.037  0.3471 -1.1272 -2.0586
10946TIP3   OH254328   5.251   0.822  13.151  0.0394  0.0504 -0.4253
10946TIP3    H154329   5.290   0.882  13.087  0.4948 -0.2651 -0.4545
10946TIP3    H254330   5.326   0.775  13.188 -0.1537  0.6109  0.7454
10947TIP3   OH254331   2.469   2.858  17.182 -0.6980 -0.2092 -0.0806
10947TIP3    H154332   2.414   2.929  17.149 -0.8442 -0.1541  0.2746
10947TIP3    H254333   2.418   2.779  17.164 -1.1689 -0.1166  0.7689
10948TIP3   OH254334   0.864   3.472   5.360  0.4952  0.5459 -0.0280
10948TIP3    H154335   0.955   3.482   5.330  0.8586  0.4647  1.0289
10948TIP3    H254336   0.835   3.390   5.321  0.8507  0.6011 -0.4204
10949TIP3   OH254337   4.664   1.182   2.266  0.3210  0.3774  0.3698
10949TIP3    H154338   4.722   1.111   2.295 -0.4512 -0.0422  0.9207
10949TIP3    H254339   4.577   1.143   2.266  0.0147  1.0524 -0.2890
10950TIP3   OH254340   0.406   3.495  12.141 -0.2771 -0.3790 -0.2827
10950TIP3    H154341   0.472   3.530  12.201 -1.5975 -1.2847  1.7864
10950TIP3    H254342   0.340   3.456  12.197 -0.9711 -2.4433 -2.3804
10951TIP3   OH254343   5.484   1.529   0.941  0.1759 -0.2759 -0.3771
10951TIP3    H154344   5.464   1.482   0.860  1.9284 -2.5254  0.3710
10951TIP3    H254345   5.399   1.558   0.973 -0.6078  0.2301 -2.7282
10952TIP3   OH254346   2.821   1.964  13.088 -0.0803  0.0516 -0.0026
10952TIP3    H154347   2.760   2.035  13.106  0.4938  1.0612 -1.8217
10952TIP3    H254348   2.906   1.999  13.115  0.2234  0.1222 -1.0252
10953TIP3   OH254349   1.719   1.929   3.619 -0.3676  0.3227  0.0596
10953TIP3    H154350   1.764   1.888   3.545 -2.0646  0.5911 -1.1723
10953TIP3    H254351   1.637   1.963   3.582 -0.8268  1.3126  1.8705
10954TIP3   OH254352   6.045   3.617  13.826 -0.1153 -0.1328  0.0524
10954TIP3    H154353   6.116   3.556  13.813 -0.7630 -1.3966  2.0286
10954TIP3    H254354   6.074   3.674  13.897 -1.1990 -0.9535  1.1981
10955TIP3   OH254355   4.651   1.249   6.698  0.2747  0.1822 -0.5845
10955TIP3    H154356   4.592   1.317   6.665 -0.3465  0.6296  1.3134
10955TIP3    H254357   4.720   1.298   6.743 -0.6812 -0.3926  1.6399
10956TIP3   OH254358   1.801   1.917  12.612 -0.9314 -0.0692 -0.2044
10956TIP3    H154359   1.895   1.917  12.593 -0.9451 -2.2192 -0.4665
10956TIP3    H254360   1.760   1.930  12.527 -0.8913 -0.2491 -0.2508
10957TIP3   OH254361   2.403   3.974   0.118 -0.1876 -0.4613  0.0283
10957TIP3    H154362   2.434   4.063   0.099 -0.9129 -0.0892  0.5282
10957TIP3    H254363   2.396   3.971   0.213 -2.1731 -0.3297 -0.0545
10958TIP3   OH254364   4.857   2.178   3.131  0.1961 -0.4013  0.1208
10958TIP3    H154365   4.792   2.194   3.200 -1.2174  1.0751 -1.4473
10958TIP3    H254366   4.901   2.097   3.157 -1.4039 -0.7656  1.8930
10959TIP3   OH254367   4.659   3.169  14.119 -0.2535 -0.3184  0.8373
10959TIP3    H154368   4.688   3.234  14.054  0.0030  0.9682  2.1753
10959TIP3    H254369   4.635   3.092  14.067  0.7151  0.3687 -0.7142
10960TIP3   OH254370   5.086   4.028  15.456 -0.7427  0.0497  0.3887
10960TIP3    H154371   5.108   3.942  15.420  0.9005  0.8272 -0.5708
10960TIP3    H254372   5.043   4.008  15.540 -1.7688 -1.7171 -0.4848
10961TIP3   OH254373   5.411   6.619   3.563  0.3075  0.0031  0.0512
10961TIP3    H154374   5.431   6.531   3.529  0.0028  0.1707 -0.5737
10961TIP3    H254375   5.334   6.606   3.618 -1.3963  0.2786 -2.1486
10962TIP3   OH254376   0.865   3.532   2.985 -0.1973 -0.1424 -0.1137
10962TIP3    H154377   0.902   3.461   2.933  0.2468 -0.6847  0.9175
10962TIP3    H254378   0.936   3.559   3.043 -0.1818  1.5311 -0.8558
10963TIP3   OH254379   0.497   6.049   5.631  0.6734  0.0448  0.3489
10963TIP3    H154380   0.507   5.999   5.550 -0.2441 -2.8423  1.8353
10963TIP3    H254381   0.438   6.120   5.608 -1.5971 -2.1178 -1.0803
10964TIP3   OH254382   3.698   3.788  13.753  0.1753 -0.5703  0.9295
10964TIP3    H154383   3.623   3.837  13.786  0.6286  1.9694 -1.4170
10964TIP3    H254384   3.765   3.855  13.737  1.8168 -2.3286  0.0294
10965TIP3   OH254385   4.418   4.703  13.410  0.1507 -0.3603  0.0860
10965TIP3    H154386   4.486   4.651  13.453 -1.4725 -1.5338  1.3657
10965TIP3    H254387   4.358   4.637  13.375 -1.7048  0.6164  1.3027
10966TIP3   OH254388   6.075   5.830   3.382 -0.3396 -0.1620 -0.6611
10966TIP3    H154389   6.083   5.808   3.289 -0.1434  0.5408 -0.8233
10966TIP3    H254390   6.043   5.750   3.423 -0.6134 -0.4280 -1.3637
10967TIP3   OH254391   2.245   1.068   3.644 -0.0797  0.3641  0.3150
10967TIP3    H154392   2.245   1.153   3.600  0.8121  2.0722  3.2965
10967TIP3    H254393   2.155   1.059   3.676 -0.0909  0.3686  0.2846
10968TIP3   OH254394   5.180   3.651   4.783  0.0230  0.2907  0.3129
10968TIP3    H154395   5.111   3.596   4.820  0.1599  0.6583  1.1603
10968TIP3    H254396   5.168   3.646   4.689 -0.9254  0.0435  0.4390
10969TIP3   OH254397   6.094   6.574   2.138 -0.3452 -0.2158  0.1085
10969TIP3    H154398   6.061   6.617   2.217 -0.1155  1.0253 -0.4382
10969TIP3    H254399   6.109   6.646   2.076 -0.6124 -1.1601 -1.1064
10970TIP3   OH254400   3.259   2.041   4.492  0.0315 -0.2481  0.3603
10970TIP3    H154401   3.306   2.113   4.534 -0.0902  0.7138 -1.0825
10970TIP3    H254402   3.172   2.077   4.473 -0.0106 -0.7395 -0.4417
10971TIP3   OH254403   2.507   4.834  12.090  0.2629  0.0614  0.7022
10971TIP3    H154404   2.531   4.899  12.025 -1.3981 -0.5767 -0.6328
10971TIP3    H254405   2.569   4.762  12.077 -0.6739 -0.5039 -0.9519
10972TIP3   OH254406   0.330   5.757  11.938  0.3516  0.0587 -0.0522
10972TIP3    H154407   0.283   5.839  11.921  0.3894  0.7939  2.8568
10972TIP3    H254408   0.421   5.784  11.952  0.7086 -0.7239 -0.7631
10973TIP3   OH254409   1.556   6.169  12.991  0.0009  0.4820 -0.1927
10973TIP3    H154410   1.567   6.166  13.086 -1.8963 -0.8528  0.0559
10973TIP3    H254411   1.605   6.246  12.963  1.8382  0.0830  1.6654
10974TIP3   OH254412   3.265   4.673  13.785  0.4859 -0.3776 -0.3304
10974TIP3    H154413   3.284   4.731  13.859  0.7625  0.4547 -1.0279
10974TIP3    H254414   3.222   4.730  13.721  0.4720 -1.0259 -0.9117
10975TIP3   OH254415   3.825   0.668   4.963 -0.6518  0.3150 -0.0383
10975TIP3    H154416   3.800   0.577   4.975  0.0923 -0.0763 -1.2350
10975TIP3    H254417   3.837   0.703   5.051 -0.2128 -0.9553  0.4162
10976TIP3   OH254418   3.739   3.627  13.269 -0.5823  0.1091  0.4798
10976TIP3    H154419   3.806   3.676  13.316 -0.1657  0.6569 -0.6443
10976TIP3    H254420   3.695   3.692  13.215 -1.4645 -0.3970  0.5609
10977TIP3   OH254421   1.170   5.640  14.323 -0.2924  0.5640 -0.1177
10977TIP3    H154422   1.256   5.636  14.281  0.1977 -0.3070  0.9231
10977TIP3    H254423   1.181   5.703  14.394  0.5941 -2.0890  2.2946
10978TIP3   OH254424   6.746   4.251   4.722 -0.0104 -0.0773 -0.1952
10978TIP3    H154425   6.716   4.221   4.808 -1.3740 -0.6569 -0.8294
10978TIP3    H254426   6.666   4.279   4.677  0.3320 -1.7271 -2.0067
10979TIP3   OH254427   5.406   5.043  11.251  0.2407  0.2072 -0.2217
10979TIP3    H154428   5.344   5.053  11.322  1.0673 -0.7914  0.6579
10979TIP3    H254429   5.359   4.993  11.184 -0.5163  1.1037 -0.3846
10980TIP3   OH254430   0.203   6.204  16.366 -0.4983  0.6156  0.4760
10980TIP3    H154431   0.269   6.169  16.307 -1.5396  1.0797 -1.0135
10980TIP3    H254432   0.249   6.215  16.450  0.2939 -2.7398  0.6113
10981TIP3   OH254433   1.287   2.524   1.287  0.0472 -0.6448  0.1361
10981TIP3    H154434   1.309   2.434   1.266 -1.7320 -1.1451  0.2185
10981TIP3    H254435   1.321   2.576   1.214 -1.4175 -1.7371 -1.3799
10982TIP3   OH254436   1.351   3.610  13.415  0.7482  0.2662 -0.2199
10982TIP3    H154437   1.412   3.537  13.412  0.3915 -0.0263 -2.6344
10982TIP3    H254438   1.268   3.573  13.384 -0.8754  0.5669  3.2255
10983TIP3   OH254439   0.917   0.982   5.543 -0.1289 -0.1054 -0.3016
10983TIP3    H154440   0.998   0.949   5.505 -0.7267  0.0516 -1.7537
10983TIP3    H254441   0.925   1.077   5.541  0.0863 -0.0931  0.5625
10984TIP3   OH254442   4.281   6.514   4.974  0.1817 -0.0877 -0.1815
10984TIP3    H154443   4.336   6.565   5.034 -0.1740 -0.8773  0.8551
10984TIP3    H254444   4.342   6.454   4.930  0.0388 -2.3630  2.3994
10985TIP3   OH254445   6.312   0.653  16.602  0.3624  0.0703  0.3620
10985TIP3    H154446   6.320   0.747  16.622  1.1335  0.4109 -1.3212
10985TIP3    H254447   6.304   0.611  16.687  2.7165  1.4461  1.3802
10986TIP3   OH254448   1.286   5.321   3.368 -0.3989 -0.2283  0.0356
10986TIP3    H154449   1.262   5.229   3.361  0.2453 -0.3401 -0.9616
10986TIP3    H254450   1.256   5.360   3.286 -0.8080  0.4907  0.5188
10987TIP3   OH254451   1.385   0.579   0.027 -0.8896 -0.1698 -0.0253
10987TIP3    H154452   1.472   0.586   0.065 -0.6688 -0.4772 -0.4753
10987TIP3    H254453   1.353   0.669   0.025  0.0160  0.1487 -1.2566
10988TIP3   OH254454   1.205   0.836  14.549  0.2913 -0.3503  0.1806
10988TIP3    H154455   1.112   0.853  14.533  0.0844  1.0077  2.3691
10988TIP3    H254456   1.249   0.918  14.524  0.7093 -0.4638  0.5310
10989TIP3   OH254457   2.762   4.251   1.080  0.4530 -0.1964 -0.1553
10989TIP3    H154458   2.843   4.222   1.122  0.2503  0.2756  0.5940
10989TIP3    H254459   2.751   4.193   1.005  0.5485 -1.4383  0.7587
10990TIP3   OH254460   3.675   2.965  13.279  0.5855  0.2293  0.3060
10990TIP3    H154461   3.621   3.020  13.336  0.4812  0.6821 -0.2167
10990TIP3    H254462   3.700   3.023  13.207  0.1179 -0.5295 -0.4910
10991TIP3   OH254463   1.394   0.681   3.221  0.0827 -0.3069  0.4192
10991TIP3    H154464   1.480   0.639   3.210 -0.0303 -0.1755 -1.2366
10991TIP3    H254465   1.410   0.774   3.203 -0.0560  0.0728  2.0777
10992TIP3   OH254466   3.649   6.465   6.023  0.3114  0.1720 -0.1675
10992TIP3    H154467   3.603   6.384   6.002 -0.8633  1.0866 -1.3309
10992TIP3    H254468   3.731   6.437   6.063  0.2478 -1.6010 -1.1774
10993TIP3   OH254469   6.767   3.504  14.133  0.8426  0.5462 -0.4499
10993TIP3    H154470   6.727   3.418  14.120  1.1141  0.4614 -0.7338
10993TIP3    H254471   6.713   3.564  14.083  0.3880  0.6140  0.1108
10994TIP3   OH254472   0.222   5.775   0.426 -0.3438 -0.4098 -0.3321
10994TIP3    H154473   0.216   5.751   0.333 -1.8051  2.8017 -1.2036
10994TIP3    H254474   0.134   5.760   0.461 -0.5846  1.0420 -0.2555
10995TIP3   OH254475   0.746   4.968  11.283  0.1719 -0.4811 -0.4564
10995TIP3    H154476   0.816   5.033  11.285 -0.1117 -0.1257 -1.5120
10995TIP3    H254477   0.771   4.907  11.214 -1.5920  0.8933 -2.4387
10996TIP3   OH254478   4.876   3.426  14.646 -0.2354  0.5157 -0.2673
10996TIP3    H154479   4.874   3.433  14.742  1.9630  0.2437 -0.1532
10996TIP3    H254480   4.880   3.516  14.615  0.2585  0.5672 -0.0517
10997TIP3   OH254481   3.276   4.572   0.539 -0.3631  0.0009  0.1746
10997TIP3    H154482   3.326   4.550   0.461 -0.6679  0.8092 -0.2731
10997TIP3    H254483   3.295   4.665   0.554 -2.2094  0.5317 -0.4137
10998TIP3   OH254484   5.032   0.625  11.719  0.2339 -0.0363  0.1660
10998TIP3    H154485   5.089   0.660  11.650  0.8299  1.2605  1.2652
10998TIP3    H254486   4.956   0.683  11.720 -0.2908 -0.6945 -0.0892
10999TIP3   OH254487   5.822   1.486  12.379  0.0097 -0.2495 -0.8587
10999TIP3    H154488   5.913   1.458  12.390  0.3574  0.1469 -2.5093
10999TIP3    H254489   5.793   1.506  12.468  1.9211  0.8205 -0.4206
11000TIP3   OH254490   6.292   2.682   5.863 -0.9477  0.5199  0.6373
11000TIP3    H154491   6.203   2.649   5.869 -0.4015 -0.7929  2.3864
11000TIP3    H254492   6.321   2.691   5.954  0.7808  0.6855  0.1065
11001TIP3   OH254493   2.496   2.420  14.573 -0.3436 -0.5598 -0.0154
11001TIP3    H154494   2.425   2.365  14.540 -0.5525  0.2187 -0.9006
11001TIP3    H254495   2.467   2.510  14.555  0.4288 -0.1945  0.5091
11002TIP3   OH254496   5.997   3.173  12.136  0.5872 -0.2770 -0.4960
11002TIP3    H154497   5.943   3.097  12.158  0.2285  0.8699  3.4001
11002TIP3    H254498   5.948   3.247  12.170  3.1084  1.1486  0.2724
11003TIP3   OH254499   0.782   0.003  16.707 -0.3105 -0.0783  0.0939
11003TIP3    H154500   0.715   0.071  16.708  0.0692  0.3027  0.6774
11003TIP3    H254501   0.823   0.009  16.621 -1.9119 -1.2219 -0.7978
11004TIP3   OH254502   4.704   2.847  11.255 -0.3968  0.1732 -0.1331
11004TIP3    H154503   4.789   2.889  11.246  0.7983 -1.5821  1.9616
11004TIP3    H254504   4.690   2.801  11.172  0.4990  0.8335 -0.6567
11005TIP3   OH254505   2.356   4.621   5.927 -0.0473 -0.1623  0.0255
11005TIP3    H154506   2.285   4.607   5.990  0.4357 -1.4929  0.3106
11005TIP3    H254507   2.326   4.693   5.872 -0.5078  1.0314  1.7512
11006TIP3   OH254508   4.159   5.394  15.048 -0.5055  0.4281 -0.0660
11006TIP3    H154509   4.138   5.453  15.120  2.1778  0.8060  0.5254
11006TIP3    H254510   4.075   5.357  15.021 -1.6588  0.6390  2.9273
11007TIP3   OH254511   4.166   1.683   4.353  0.1338 -0.5063  0.2590
11007TIP3    H154512   4.110   1.687   4.430  2.0208 -1.1744  1.7279
11007TIP3    H254513   4.247   1.641   4.383  1.8022  1.2052 -1.5402
11008TIP3   OH254514   1.397   3.972   1.405 -0.5421 -0.0561 -0.0717
11008TIP3    H154515   1.361   3.884   1.420  0.0766 -0.1449  1.0003
11008TIP3    H254516   1.461   3.960   1.335 -0.4241 -0.4739  0.1026
11009TIP3   OH254517   1.128   4.783   2.098 -0.5927 -0.1193  0.0183
11009TIP3    H154518   1.076   4.796   2.018 -0.6052  1.9346  0.3118
11009TIP3    H254519   1.145   4.872   2.130 -1.0177 -0.8897  2.5860
11010TIP3   OH254520   1.022   2.626   5.140  0.7099  0.4976 -0.5493
11010TIP3    H154521   1.012   2.708   5.187  0.0551 -0.5025  1.1440
11010TIP3    H254522   0.974   2.639   5.058 -0.8239  1.2652  0.4237
11011TIP3   OH254523   6.207   0.070  14.216  0.5864  0.3522  0.3020
11011TIP3    H154524   6.226   0.155  14.176 -1.4553  0.2947 -0.9227
11011TIP3    H254525   6.226   0.007  14.147  0.2830 -0.0360  0.5723
11012TIP3   OH254526   0.975   5.263  15.749  0.0361  0.1485 -0.2716
11012TIP3    H154527   0.999   5.317  15.674 -0.3465  1.0936  0.2642
11012TIP3    H254528   0.941   5.325  15.813 -1.0539 -0.8148  0.1137
11013TIP3   OH254529   4.900   5.993  14.616  0.2554  0.1772 -0.0328
11013TIP3    H154530   4.839   6.039  14.558  1.1424  0.2166 -0.9570
11013TIP3    H254531   4.987   6.018  14.585  0.7527 -0.9441  0.4052
11014TIP3   OH254532   2.930   1.858  14.129  0.6890 -0.0098 -0.3525
11014TIP3    H154533   2.894   1.938  14.167  1.3010 -0.4052  1.1591
11014TIP3    H254534   2.974   1.815  14.203 -0.5120 -2.2609 -0.8770
11015TIP3   OH254535   3.772   1.928  14.653 -0.4507  0.1624 -0.6059
11015TIP3    H154536   3.808   2.003  14.698 -4.0071  0.3080  2.4519
11015TIP3    H254537   3.758   1.863  14.721 -1.9730 -1.4105 -2.2925
11016TIP3   OH254538   2.996   5.294   0.565 -0.1469  0.1428 -0.7712
11016TIP3    H154539   2.919   5.266   0.613  0.2240 -2.8978 -1.7701
11016TIP3    H254540   2.961   5.337   0.486 -0.8408 -0.9780 -1.0916
11017TIP3   OH254541   5.087   3.776  17.130 -0.3191 -0.7416  0.3803
11017TIP3    H154542   5.169   3.761  17.177 -0.5884 -0.5258  0.9227
11017TIP3    H254543   5.105   3.745  17.041  1.2044  1.7287 -0.2586
11018TIP3   OH254544   2.536   6.450   2.774  0.0387  0.7286 -0.1845
11018TIP3    H154545   2.544   6.520   2.709 -1.2386  0.9599 -0.1336
11018TIP3    H254546   2.510   6.373   2.724 -2.5242  1.2832  0.1612
11019TIP3   OH254547   1.514   4.840  13.165  0.1914  0.0513 -0.3395
11019TIP3    H154548   1.445   4.905  13.150 -2.4183 -2.6015 -0.8889
11019TIP3    H254549   1.532   4.846  13.258 -2.7382 -0.8028  0.4064
11020TIP3   OH254550   5.363   5.479  11.482 -0.2045  0.1259  0.3376
11020TIP3    H154551   5.393   5.555  11.531 -0.1460  0.6974 -0.5659
11020TIP3    H254552   5.389   5.404  11.536  2.2593  0.5980 -0.0707
11021TIP3   OH254553   0.178   3.832  13.509 -0.5690  0.5070  0.8519
11021TIP3    H154554   0.100   3.790  13.544 -0.5415 -0.2438  0.0548
11021TIP3    H254555   0.249   3.802  13.565 -0.7077  0.3505  0.9445
11022TIP3   OH254556   4.127   5.861   5.141  0.3085 -0.1408 -0.1780
11022TIP3    H154557   4.223   5.869   5.142  0.2972  0.1484  1.5475
11022TIP3    H254558   4.111   5.767   5.149  0.4270 -0.2749 -1.3347
11023TIP3   OH254559   1.593   3.896  14.233 -0.1039  0.0947 -0.4683
11023TIP3    H154560   1.609   3.952  14.157 -0.2593  0.3095 -0.3434
11023TIP3    H254561   1.660   3.923  14.297 -0.1694  0.1311 -0.4143
11024TIP3   OH254562   2.024   3.602   2.458  0.0856  0.2379 -0.3702
11024TIP3    H154563   1.967   3.529   2.434 -0.3094  0.4288 -0.0367
11024TIP3    H254564   2.107   3.561   2.481 -0.8170 -0.3589  2.0928
11025TIP3   OH254565   0.332   6.629   6.148  0.1282  0.0969 -0.6374
11025TIP3    H154566   0.339   6.666   6.061 -0.0599 -0.1335 -0.7512
11025TIP3    H254567   0.346   6.535   6.136  0.9931  0.1782 -0.2978
11026TIP3   OH254568   4.511   4.021  13.125 -0.6258  0.4735 -0.0836
11026TIP3    H154569   4.556   4.105  13.113  1.0477 -0.3109  0.4790
11026TIP3    H254570   4.480   4.023  13.215  2.0817 -0.6698  0.9805
11027TIP3   OH254571   2.350   3.161  13.521  0.9187 -0.6824 -0.0542
11027TIP3    H154572   2.346   3.067  13.541  0.1485 -0.8484 -0.8873
11027TIP3    H254573   2.434   3.189  13.555  1.1701 -1.6889  0.1981
11028TIP3   OH254574   3.526   4.101   2.915  0.2987  0.1641 -0.2265
11028TIP3    H154575   3.516   4.129   3.007  2.4152  1.8569 -0.4486
11028TIP3    H254576   3.602   4.044   2.916  0.7278  0.7066 -0.9988
11029TIP3   OH254577   3.218   6.500   4.241 -0.5078 -0.8055 -0.4183
11029TIP3    H154578   3.180   6.447   4.171 -0.7509  1.9168 -2.5506
11029TIP3    H254579   3.311   6.507   4.219 -0.7327  0.7386 -1.0555
11030TIP3   OH254580   5.687   6.732  13.827  0.5326 -0.2795 -0.2641
11030TIP3    H154581   5.764   6.674  13.831  0.2097 -0.6937  0.0196
11030TIP3    H254582   5.618   6.683  13.871  0.6274  0.9214  1.2820
11031TIP3   OH254583   6.526   3.862   4.646 -0.3406 -0.0013 -0.2712
11031TIP3    H154584   6.602   3.882   4.700 -0.1314 -0.3824 -0.4209
11031TIP3    H254585   6.516   3.938   4.589 -1.6069  1.2169  1.4469
11032TIP3   OH254586   1.123   5.088   1.660  0.1227  0.0991 -0.3018
11032TIP3    H154587   1.042   5.136   1.677  0.4463 -0.1177  2.3207
11032TIP3    H254588   1.191   5.141   1.701  0.7935 -1.4578  0.6753
11033TIP3   OH254589   5.666   5.034   5.036  0.1902  0.2077  0.2695
11033TIP3    H154590   5.731   5.001   4.975 -0.4830 -1.8546  0.5962
11033TIP3    H254591   5.607   4.960   5.051 -1.8486  1.7876  0.5009
11034TIP3   OH254592   5.005   5.199  11.592 -0.0589  0.0620  0.2026
11034TIP3    H154593   4.923   5.163  11.557 -0.1083  0.9927 -0.6657
11034TIP3    H254594   5.015   5.283  11.548 -0.2651  1.4639  2.6389
11035TIP3   OH254595   0.118   4.359   5.140  0.3734  0.4461  0.5313
11035TIP3    H154596   0.139   4.432   5.198 -1.9980  1.2214  0.5022
11035TIP3    H254597   0.030   4.332   5.166  0.0378 -0.4890 -1.3924
11036TIP3   OH254598   4.600   3.088   3.636  0.2314 -0.5944 -0.6151
11036TIP3    H154599   4.604   3.008   3.583 -3.3755 -1.6841  0.4494
11036TIP3    H254600   4.653   3.069   3.713  4.3304  0.4673 -2.8665
11037TIP3   OH254601   5.247   5.458  11.254  0.3630 -0.3832  0.0693
11037TIP3    H154602   5.313   5.473  11.322  0.4747 -1.3843  0.1913
11037TIP3    H254603   5.285   5.495  11.175 -0.2231  1.8012  0.7418
11038TIP3   OH254604   3.581   1.990  14.857 -0.4253 -0.2400  0.4007
11038TIP3    H154605   3.501   2.042  14.856 -0.0857  0.3528  1.6466
11038TIP3    H254606   3.637   2.032  14.790 -1.1333 -0.6490 -0.4587
11039TIP3   OH254607   4.794   0.236   1.513  0.0445  0.0479 -0.6083
11039TIP3    H154608   4.868   0.262   1.458 -0.8369  0.9448 -1.4024
11039TIP3    H254609   4.733   0.193   1.453 -0.0906 -0.6876  0.0427
11040TIP3   OH254610   5.654   3.998  14.800  0.2581 -0.0129  0.1636
11040TIP3    H154611   5.583   4.057  14.775 -0.6724 -1.1179  0.1568
11040TIP3    H254612   5.611   3.916  14.824  1.5669 -0.9391 -0.5063
11041TIP3   OH254613   5.648   6.281  17.128  0.6337  1.0820  0.0194
11041TIP3    H154614   5.717   6.224  17.162 -1.2462 -1.5786 -0.3228
11041TIP3    H254615   5.666   6.288  17.034  0.4535  0.4021 -0.0683
11042TIP3   OH254616   6.372   1.131   2.044 -0.2775  0.9647 -0.2302
11042TIP3    H154617   6.418   1.162   1.966 -0.0035 -0.7873 -0.8038
11042TIP3    H254618   6.439   1.082   2.093 -1.4643 -1.7222 -1.1272
11043TIP3   OH254619   5.217   0.832   2.078 -0.8051  0.0985  0.6285
11043TIP3    H154620   5.269   0.752   2.088 -0.3962 -0.0543 -1.9049
11043TIP3    H254621   5.174   0.844   2.163  2.4110 -0.4078  2.4895
11044TIP3   OH254622   2.683   5.409   1.495  0.2249 -0.5672 -0.3635
11044TIP3    H154623   2.599   5.435   1.455 -0.2219 -1.5945 -0.1406
11044TIP3    H254624   2.660   5.386   1.585  1.0921  0.9610  0.2603
11045TIP3   OH254625   1.671   0.773  12.547 -0.5890 -0.1671 -0.7416
11045TIP3    H154626   1.740   0.764  12.481 -0.3129  1.7479 -0.7718
11045TIP3    H254627   1.679   0.695  12.601  1.3582 -0.1703 -0.9772
11046TIP3   OH254628   5.849   4.654  11.290 -0.0404 -0.0967 -0.1098
11046TIP3    H154629   5.878   4.628  11.203  1.9417 -1.5920  0.9089
11046TIP3    H254630   5.921   4.705  11.326 -0.4462 -0.2611  0.9919
11047TIP3   OH254631   2.447   3.061   5.228 -0.3350 -0.6827  0.0396
11047TIP3    H154632   2.440   3.015   5.311 -0.3045 -0.2062  0.3066
11047TIP3    H254633   2.470   2.992   5.165  1.7571 -0.7085  0.7680
11048TIP3   OH254634   6.623   6.825   0.571 -0.3135  0.3990  0.4049
11048TIP3    H154635   6.621   6.736   0.536  0.7925 -0.2677  1.9426
11048TIP3    H254636   6.565   6.874   0.513  0.2025 -0.9722 -1.3831
11049TIP3   OH254637   6.550   0.691   0.451  0.0705  0.5014  0.3230
11049TIP3    H154638   6.512   0.743   0.381 -0.0550  1.6853  1.2312
11049TIP3    H254639   6.482   0.628   0.476 -0.0036  0.3059 -0.3728
11050TIP3   OH254640   1.639   2.854   6.035 -0.0804  0.3515  0.4720
11050TIP3    H154641   1.588   2.781   6.072  1.4300 -0.9891 -0.0066
11050TIP3    H254642   1.712   2.866   6.096  0.7804  0.1222 -0.4896
11051TIP3   OH254643   0.364   4.104   2.546  0.0497 -0.2133 -0.2435
11051TIP3    H154644   0.399   4.090   2.458  1.0279  1.4889 -0.1772
11051TIP3    H254645   0.350   4.016   2.581  1.3293 -0.9436 -1.4547
11052TIP3   OH254646   4.735   1.553  16.084  0.1438  0.4377 -0.5956
11052TIP3    H154647   4.676   1.561  16.008 -0.4360 -1.6947 -0.4306
11052TIP3    H254648   4.807   1.613  16.065 -0.3252  0.4497 -2.5064
11053TIP3   OH254649   3.068   4.681  15.389  0.0843  0.3259  0.3425
11053TIP3    H154650   3.008   4.748  15.421 -1.2468 -0.1363 -1.0591
11053TIP3    H254651   3.011   4.610  15.360  1.3726 -0.6248  0.0660
11054TIP3   OH254652   4.742   5.109  16.898 -0.0843  0.2272  0.1435
11054TIP3    H154653   4.804   5.045  16.933 -0.5784 -0.2599  0.1479
11054TIP3    H254654   4.767   5.192  16.940  1.5732  0.3875 -1.0704
11055TIP3   OH254655   3.536   1.118   1.650 -0.6177  1.0380  0.4712
11055TIP3    H154656   3.482   1.039   1.652 -0.5785  0.9087 -1.6035
11055TIP3    H254657   3.475   1.189   1.631 -0.0249  0.6743 -3.7078
11056TIP3   OH254658   6.706   1.417  15.074  0.1793  0.2106  0.4175
11056TIP3    H154659   6.633   1.477  15.059  0.2555  0.3018  0.4080
11056TIP3    H254660   6.769   1.438  15.005  0.8141  1.0739  1.2346
11057TIP3   OH254661   1.711   4.032  17.171 -0.3564  0.2817  0.3044
11057TIP3    H154662   1.696   3.967  17.239 -2.4042 -0.0781 -0.4225
11057TIP3    H254663   1.807   4.039  17.165 -0.0415 -2.8235  0.2220
11058TIP3   OH254664   6.335   1.569  11.779  0.2026  1.2716 -0.1325
11058TIP3    H154665   6.400   1.536  11.841  0.9272  2.7226 -0.0889
11058TIP3    H254666   6.283   1.632  11.829  0.8786  2.5618 -0.9847
11059TIP3   OH254667   4.161   5.603   5.828 -0.3716  0.3109  0.1375
11059TIP3    H154668   4.113   5.606   5.910  2.2339  4.4336  1.8361
11059TIP3    H254669   4.100   5.635   5.762 -1.6449 -0.2854  0.9961
11060TIP3   OH254670   5.680   5.587  14.902  0.5386 -0.3224  0.1896
11060TIP3    H154671   5.708   5.496  14.916  0.1669 -0.2842  1.3132
11060TIP3    H254672   5.616   5.582  14.831 -0.1195 -1.0614  0.8162
11061TIP3   OH254673   5.647   1.699   0.766 -0.3360  0.5165  0.2811
11061TIP3    H154674   5.597   1.643   0.826  0.9929  0.9671  1.8742
11061TIP3    H254675   5.583   1.762   0.734 -1.2028 -0.0858  0.7637
11062TIP3   OH254676   3.559   1.860   2.240  0.7462 -0.4173 -0.0158
11062TIP3    H154677   3.534   1.930   2.181 -2.0179 -1.4915 -0.2608
11062TIP3    H254678   3.620   1.806   2.189  0.0579 -0.1563 -1.1568
11063TIP3   OH254679   4.926   2.030   4.812 -0.3672  0.7464  0.1794
11063TIP3    H154680   4.865   2.083   4.760 -0.5364  0.9709  0.6033
11063TIP3    H254681   4.874   1.955   4.840 -0.3154  0.7010  0.1551
11064TIP3   OH254682   1.546   4.413   1.758  0.0104  0.4835  0.3625
11064TIP3    H154683   1.641   4.422   1.751 -0.0178  1.6024  1.1264
11064TIP3    H254684   1.511   4.496   1.725 -0.7515 -0.2205 -0.6649
11065TIP3   OH254685   0.270   0.121  16.429 -0.4532  0.1966  0.0669
11065TIP3    H154686   0.204   0.164  16.375  0.5437  1.8684  0.0919
11065TIP3    H254687   0.247   0.029  16.427 -2.2887  0.6304 -0.5930
11066TIP3   OH254688   2.117   5.400   2.935  0.0425  0.2230 -0.1940
11066TIP3    H154689   2.045   5.403   2.998  0.0271  1.4217 -0.2423
11066TIP3    H254690   2.195   5.418   2.986  0.6547 -3.0184  0.2297
11067TIP3   OH254691   3.272   4.091  12.264 -0.2530 -0.4127  0.2154
11067TIP3    H154692   3.312   4.019  12.214  0.2771 -0.5884  0.8752
11067TIP3    H254693   3.238   4.150  12.197  0.8128 -0.4367 -0.3807
11068TIP3   OH254694   1.619   5.526  12.726  0.5558  0.0962  0.0103
11068TIP3    H154695   1.657   5.614  12.723  1.3464 -0.2565 -1.6641
11068TIP3    H254696   1.692   5.468  12.703 -0.0328 -0.9877  0.7626
11069TIP3   OH254697   0.499   2.329  12.389 -0.0116  0.3716  0.3495
11069TIP3    H154698   0.405   2.321  12.406  0.0240 -3.5697 -0.3325
11069TIP3    H254699   0.540   2.313  12.474  0.0399  0.1931  0.2914
11070TIP3   OH254700   4.612   2.483  17.162  0.2705 -0.1877 -0.4729
11070TIP3    H154701   4.537   2.539  17.144 -0.3841 -0.8261  0.1983
11070TIP3    H254702   4.588   2.437  17.243  1.3368 -0.4801 -0.3151
11071TIP3   OH254703   5.542   1.404  13.331 -0.0150 -0.0421 -0.3360
11071TIP3    H154704   5.615   1.436  13.278  0.1143 -0.7158 -0.5798
11071TIP3    H254705   5.469   1.395  13.269 -0.3629  0.7775 -0.0639
11072TIP3   OH254706   3.147   0.552   4.692  0.4871 -0.6368 -0.3423
11072TIP3    H154707   3.181   0.607   4.621  0.3859 -1.6989 -1.2595
11072TIP3    H254708   3.068   0.596   4.722  1.1912  0.4574 -0.0457
11073TIP3   OH254709   2.255   4.933  14.630  1.0138 -0.6029  0.6328
11073TIP3    H154710   2.161   4.934  14.651  0.5628 -0.6628 -1.2019
11073TIP3    H254711   2.260   4.967  14.540  2.8284  0.0242  0.9292
11074TIP3   OH254712   3.131   2.369  16.519 -0.3244 -0.0259 -0.0757
11074TIP3    H154713   3.064   2.355  16.453  0.4956  2.1485 -1.4983
11074TIP3    H254714   3.183   2.288  16.519 -0.9517 -0.4463 -1.3824
11075TIP3   OH254715   2.223   3.741   5.675 -0.2891  0.3078  0.3706
11075TIP3    H154716   2.183   3.828   5.665 -1.0340  0.0764  1.2047
11075TIP3    H254717   2.241   3.713   5.585  1.0107  1.7841  0.1225
11076TIP3   OH254718   0.815   2.475   0.307 -0.7883  0.2660  0.0327
11076TIP3    H154719   0.868   2.499   0.382  0.8379  0.7045 -1.2105
11076TIP3    H254720   0.746   2.541   0.304 -1.3184 -0.1776  1.5349
11077TIP3   OH254721   0.580   5.464  15.538  0.1376  0.1661  0.0395
11077TIP3    H154722   0.650   5.448  15.474  1.4556  0.4732  1.3549
11077TIP3    H254723   0.508   5.498  15.486  1.4835  1.2505 -1.2010
11078TIP3   OH254724   2.993   2.000   1.074 -0.2541  0.0941 -0.4613
11078TIP3    H154725   3.007   1.911   1.042 -0.1808  0.1766 -0.6630
11078TIP3    H254726   3.072   2.047   1.049  0.0774  0.0047  0.4202
11079TIP3   OH254727   2.441   1.851  12.811 -0.9751 -0.2815 -0.2057
11079TIP3    H154728   2.398   1.926  12.769 -1.4541 -0.4212  0.0201
11079TIP3    H254729   2.376   1.781  12.807  0.1654 -1.3020 -2.1549
11080TIP3   OH254730   4.928   3.215   3.767  0.3206  0.1068 -0.0109
11080TIP3    H154731   4.837   3.207   3.797  0.2813  1.3740  0.2694
11080TIP3    H254732   4.971   3.265   3.836  0.8281  0.9476 -0.9232
11081TIP3   OH254733   2.004   6.297   4.615 -0.2230  0.0568 -0.6132
11081TIP3    H154734   1.965   6.302   4.528  1.9448  0.0937 -1.6382
11081TIP3    H254735   2.091   6.259   4.601  0.7038  1.2865  1.3438
11082TIP3   OH254736   4.927   3.586   2.691  0.0126  0.1570  0.4150
11082TIP3    H154737   4.979   3.654   2.648  1.7958 -0.5402  1.3702
11082TIP3    H254738   4.976   3.505   2.676 -0.3902 -0.4163  1.9621
11083TIP3   OH254739   6.748   0.597   1.407  0.4089  0.3226 -0.8756
11083TIP3    H154740   6.656   0.618   1.422  0.7313  1.2909 -0.1195
11083TIP3    H254741   6.747   0.522   1.348 -0.8586  0.4163 -0.9879
11084TIP3   OH254742   2.940   5.452  13.755  0.3889  0.4021  0.1811
11084TIP3    H154743   2.994   5.475  13.680  0.9559 -2.5642 -0.4656
11084TIP3    H254744   2.850   5.469  13.726  0.6577  0.0180 -0.9147
11085TIP3   OH254745   3.323   6.026  13.611 -0.2587 -0.1664  0.2825
11085TIP3    H154746   3.241   5.980  13.625 -0.4272  0.1432  0.3147
11085TIP3    H254747   3.312   6.069  13.526 -0.8822  1.4770  1.1540
11086TIP3   OH254748   0.832   2.663  16.339  0.5360 -0.2488  0.0478
11086TIP3    H154749   0.819   2.611  16.418 -2.3446 -0.8308 -0.6944
11086TIP3    H254750   0.765   2.731  16.343 -0.2543 -0.7935 -2.2240
11087TIP3   OH254751   4.400   4.431  12.063  0.2432  0.2141 -0.1306
11087TIP3    H154752   4.480   4.457  12.109 -0.3602  2.1799 -0.1170
11087TIP3    H254753   4.374   4.348  12.104  3.9190 -2.2689 -2.2287
11088TIP3   OH254754   0.881   0.295   5.282  0.0998  0.3794 -0.5224
11088TIP3    H154755   0.946   0.228   5.300  0.5305  0.5843 -1.3084
11088TIP3    H254756   0.888   0.355   5.356  1.0590  0.5934 -0.7807
11089TIP3   OH254757   6.519   6.433  11.603 -0.2014  0.1262  0.0584
11089TIP3    H154758   6.613   6.425  11.620  0.2914  1.8916 -1.4646
11089TIP3    H254759   6.501   6.363  11.539  0.9391  1.9022 -2.3803
11090TIP3   OH254760   2.480   6.009  16.636 -0.1285 -0.2215 -0.7751
11090TIP3    H154761   2.476   6.094  16.679  2.2365  0.5075 -1.7855
11090TIP3    H254762   2.397   5.967  16.657 -1.6899  2.6074 -0.8406
11091TIP3   OH254763   1.624   5.859   1.445  0.2992 -0.6499 -0.0406
11091TIP3    H154764   1.572   5.806   1.506 -0.6624  0.6071  0.2790
11091TIP3    H254765   1.712   5.821   1.450  0.9573  0.8707  4.1077
11092TIP3   OH254766   4.653   5.624  13.956  0.2297 -0.5119 -0.0089
11092TIP3    H154767   4.570   5.650  13.995 -0.1764 -0.2130 -1.0487
11092TIP3    H254768   4.645   5.529  13.944  0.2379 -0.5582  0.3311
11093TIP3   OH254769   5.391   4.907  12.772 -0.4841  0.3867  0.2375
11093TIP3    H154770   5.332   4.939  12.840 -0.3536  0.4033  0.3434
11093TIP3    H254771   5.372   4.962  12.696 -2.3543 -1.1966 -0.5262
11094TIP3   OH254772   2.192   4.715  16.539 -0.1234 -0.4452 -0.4064
11094TIP3    H154773   2.121   4.695  16.600 -0.7350  0.1741 -0.8932
11094TIP3    H254774   2.255   4.644  16.550  1.0280  0.8856  2.7870
11095TIP3   OH254775   3.600   0.863   5.349  0.3906  0.4682  0.4417
11095TIP3    H154776   3.657   0.908   5.411 -0.5254  0.7983  1.0620
11095TIP3    H254777   3.518   0.848   5.397 -0.3946  0.8516 -0.7229
11096TIP3   OH254778   0.175   4.967   4.001 -0.2419 -0.0665  0.1992
11096TIP3    H154779   0.212   5.047   3.962  2.1333 -0.3426  1.6478
11096TIP3    H254780   0.193   4.977   4.095 -1.4375 -1.5630  0.6170
11097TIP3   OH254781   3.686   6.424   4.363  0.1558 -0.6506 -0.0643
11097TIP3    H154782   3.695   6.329   4.361  1.9202 -0.5862  1.6875
11097TIP3    H254783   3.671   6.444   4.456 -1.6119  0.7220 -0.5737
11098TIP3   OH254784   5.068   0.482  14.699 -0.0332  0.4021 -0.1503
11098TIP3    H154785   5.125   0.492  14.623 -1.7227  1.1818 -1.3867
11098TIP3    H254786   5.057   0.387  14.708 -1.0726  0.3003 -1.9299
11099TIP3   OH254787   1.637   2.686   5.617 -0.2660  0.0659  0.1842
11099TIP3    H154788   1.578   2.741   5.668 -0.4358  0.7103 -0.6894
11099TIP3    H254789   1.579   2.633   5.562 -0.1218  3.1118 -3.2461
11100TIP3   OH254790   2.059   0.575  16.292  0.1158  0.1845  0.4929
11100TIP3    H154791   2.109   0.623  16.358  0.5752 -0.7816  0.8716
11100TIP3    H254792   2.087   0.613  16.208  2.8832 -1.4537  0.5309
11101TIP3   OH254793   1.727   3.861  13.118 -0.5349 -0.6381  0.1567
11101TIP3    H154794   1.679   3.899  13.045  1.2333  0.1113 -0.6761
11101TIP3    H254795   1.775   3.787  13.080  0.2651 -0.3482  0.5656
11102TIP3   OH254796   3.746   0.102   4.905  0.2455  0.1019  0.1800
11102TIP3    H154797   3.666   0.133   4.863  0.5676  0.4747 -0.1690
11102TIP3    H254798   3.744   0.140   4.992 -0.6188 -0.9850  0.6674
11103TIP3   OH254799   2.901   2.231  14.967  0.2092 -0.2333  0.0001
11103TIP3    H154800   2.980   2.280  14.946 -0.4849  1.0235  0.2235
11103TIP3    H254801   2.931   2.142  14.982  1.3623 -0.1594 -1.5945
11104TIP3   OH254802   6.048   2.348   4.323  0.9459  0.1604 -0.2164
11104TIP3    H154803   6.043   2.425   4.266 -0.0160  0.2545 -0.0204
11104TIP3    H254804   6.012   2.378   4.407 -1.5973 -1.0956 -0.7952
11105TIP3   OH254805   2.050   6.682  17.207  0.1861 -0.7605 -0.2428
11105TIP3    H154806   2.039   6.770  17.172  0.0752 -0.8349 -0.3937
11105TIP3    H254807   1.967   6.663  17.251  0.7480 -0.1842  1.1404
11106TIP3   OH254808   0.772   2.469   1.932 -0.1617  0.3901  0.0076
11106TIP3    H154809   0.756   2.383   1.971 -1.0368  1.2357  1.6341
11106TIP3    H254810   0.849   2.457   1.877 -1.7767 -2.0550 -1.9652
11107TIP3   OH254811   1.742   3.458   2.564  0.3847 -0.2762 -0.6392
11107TIP3    H154812   1.781   3.534   2.607  0.4884 -0.6656 -0.0382
11107TIP3    H254813   1.722   3.397   2.635  0.3581 -0.8393 -1.1185
11108TIP3   OH254814   5.916   5.523  12.056 -0.2421  0.0134  0.0416
11108TIP3    H154815   5.851   5.591  12.043 -2.6844 -2.1722  0.0156
11108TIP3    H254816   5.919   5.511  12.151 -0.6681 -0.5837 -0.0156
11109TIP3   OH254817   2.741   1.625  14.616  0.0588  0.0289  0.2624
11109TIP3    H154818   2.715   1.555  14.556 -1.0719  0.7728 -0.1445
11109TIP3    H254819   2.818   1.590  14.662 -0.4615 -1.4586  0.0525
11110TIP3   OH254820   1.243   0.547  15.554 -0.1067  0.0149  0.9651
11110TIP3    H154821   1.238   0.608  15.627 -1.2184  0.6090  0.4251
11110TIP3    H254822   1.237   0.603  15.476  0.8470 -0.6196  0.4167
11111TIP3   OH254823   5.421   2.830   2.438  0.0389  0.0115  0.0703
11111TIP3    H154824   5.411   2.924   2.424  0.5900 -0.3939 -4.7917
11111TIP3    H254825   5.504   2.809   2.395  0.5538 -2.5990  2.1117
11112TIP3   OH254826   1.892   0.174   0.785  0.2502 -0.2985  0.2096
11112TIP3    H154827   1.881   0.269   0.786 -1.2895 -0.4299 -1.1735
11112TIP3    H254828   1.814   0.140   0.830  1.2193 -0.9183  1.5066
11113TIP3   OH254829   0.187   6.289   1.447  0.4401 -0.7141  0.1948
11113TIP3    H154830   0.144   6.302   1.532  1.3159 -0.0416  0.5575
11113TIP3    H254831   0.167   6.199   1.423 -0.8315 -0.5412  0.5298
11114TIP3   OH254832   0.568   0.105  15.092  0.4142 -0.8040  0.5605
11114TIP3    H154833   0.621   0.116  15.171  1.2630  2.8021 -0.3124
11114TIP3    H254834   0.479   0.123  15.121  0.7367  0.6306  0.7639
11115TIP3   OH254835   1.499   1.498  11.889 -0.1085  0.2534  0.0353
11115TIP3    H154836   1.539   1.437  11.828  0.1426 -0.2765  0.7157
11115TIP3    H254837   1.558   1.499  11.965 -0.8973  0.1639  0.6707
11116TIP3   OH254838   2.180   2.234   5.739  0.2329  0.7428 -0.0092
11116TIP3    H154839   2.126   2.159   5.715  2.1285 -0.6613 -0.1465
11116TIP3    H254840   2.234   2.250   5.662  4.6690 -2.2481  2.0350
11117TIP3   OH254841   4.532   2.454  14.004 -0.2668  0.3338  0.2114
11117TIP3    H154842   4.462   2.486  13.948 -1.1852 -2.1941 -0.1980
11117TIP3    H254843   4.594   2.527  14.009 -1.9126  1.9065 -1.0790
11118TIP3   OH254844   4.171   4.045  15.195  0.4164 -1.0327 -0.8528
11118TIP3    H154845   4.209   4.042  15.283  0.9767  0.2265 -1.0357
11118TIP3    H254846   4.079   4.022  15.209 -0.0449  1.2531  0.4234
11119TIP3   OH254847   1.526   3.040  14.411 -0.2053 -0.1959  0.8671
11119TIP3    H154848   1.550   2.955  14.448 -1.4022 -0.0643  2.0182
11119TIP3    H254849   1.461   3.075  14.472  0.3201  1.5880  0.4535
11120TIP3   OH254850   6.140   6.195  16.433 -0.1513  0.4889  0.7153
11120TIP3    H154851   6.118   6.102  16.446 -0.4614  0.5773  0.8359
11120TIP3    H254852   6.229   6.194  16.397 -0.1248  0.1473  0.7866
11121TIP3   OH254853   5.676   6.092  15.688 -0.1922 -0.1982  0.7612
11121TIP3    H154854   5.762   6.133  15.699 -1.1455  1.8786  0.9567
11121TIP3    H254855   5.636   6.098  15.775 -1.1450  0.3216  0.2948
11122TIP3   OH254856   3.807   4.632  13.763  0.2875 -0.7824 -0.5284
11122TIP3    H154857   3.795   4.543  13.730 -3.0337 -0.6390 -0.0190
11122TIP3    H254858   3.767   4.631  13.850 -0.5657  1.3589 -0.8360
11123TIP3   OH254859   1.179   1.428   0.631  0.2624  0.2255  0.3450
11123TIP3    H154860   1.087   1.440   0.653 -0.2298 -2.3452 -0.0262
11123TIP3    H254861   1.179   1.385   0.546  1.7188 -1.2582  1.0282
11124TIP3   OH254862   0.079   2.579  12.905 -0.2957  0.7383  0.5378
11124TIP3    H154863   0.032   2.502  12.938 -0.7943  0.5388 -0.5940
11124TIP3    H254864   0.019   2.652  12.919  0.0339  0.8713  1.2849
11125TIP3   OH254865   3.095   1.899   1.878  0.2481 -0.0897  0.0529
11125TIP3    H154866   3.030   1.893   1.947  1.3962 -2.0784  1.0539
11125TIP3    H254867   3.079   1.823   1.822  1.7468 -0.7129  0.4087
11126TIP3   OH254868   0.044   3.014  13.489  0.1431  0.3528 -0.1301
11126TIP3    H154869   0.075   3.074  13.421  0.2566  1.2615  0.7063
11126TIP3    H254870  -0.018   2.957  13.444 -1.6012  2.4406 -0.5248
11127TIP3   OH254871   3.633   0.302  14.258  0.0395  0.0298 -0.5704
11127TIP3    H154872   3.639   0.225  14.314 -0.6538  1.3748  1.5069
11127TIP3    H254873   3.540   0.307  14.235 -0.3703  1.3246  1.0962
11128TIP3   OH254874   0.537   2.886  13.994  0.1265  0.0485  0.1308
11128TIP3    H154875   0.624   2.895  14.034  0.4061 -0.4263 -0.3634
11128TIP3    H254876   0.553   2.902  13.901 -0.4805  0.9119  0.1628
11129TIP3   OH254877   6.618   6.245   1.493 -0.4092  0.5634 -1.1589
11129TIP3    H154878   6.628   6.174   1.430 -1.8193 -0.3052 -0.4567
11129TIP3    H254879   6.566   6.207   1.564 -0.4451  2.0473 -0.3540
11130TIP3   OH254880   3.719   1.747  11.990  0.2304  0.7193  0.4304
11130TIP3    H154881   3.710   1.805  11.915  0.8379  1.1175  0.6506
11130TIP3    H254882   3.757   1.803  12.059  3.0038 -0.4132 -0.0244
11131TIP3   OH254883   3.321   5.104   5.658 -0.6260 -0.0602 -0.6693
11131TIP3    H154884   3.380   5.180   5.659 -2.5781  1.5699 -1.5653
11131TIP3    H254885   3.275   5.108   5.742 -0.9299 -0.0988 -0.8342
11132TIP3   OH254886   5.126   5.012  17.196  0.9602 -0.1746  0.2625
11132TIP3    H154887   5.034   4.993  17.213  1.0224 -1.5703 -0.7413
11132TIP3    H254888   5.125   5.098  17.154  0.2479  0.3750  1.3710
11133TIP3   OH254889   4.473   2.066  13.158  0.3716 -0.1265  0.0488
11133TIP3    H154890   4.494   2.132  13.091  0.9642  0.8775  1.1973
11133TIP3    H254891   4.536   1.996  13.142  0.7959  0.2985 -0.1706
11134TIP3   OH254892   0.399   0.381   4.698  0.3116  0.0606  0.0268
11134TIP3    H154893   0.453   0.338   4.764  1.4760  0.6524 -0.5196
11134TIP3    H254894   0.321   0.326   4.692  0.6778 -0.6057  1.0979
11135TIP3   OH254895   1.838   5.118   0.719  0.1322  0.3612  0.4287
11135TIP3    H154896   1.862   5.060   0.646  1.2949 -2.4666  2.8685
11135TIP3    H254897   1.746   5.140   0.702  0.8568  1.4581 -2.8387
11136TIP3   OH254898   4.336   1.366   2.522  0.0999  0.0326 -0.1795
11136TIP3    H154899   4.405   1.300   2.512  0.1307  0.1144 -0.5392
11136TIP3    H254900   4.352   1.405   2.608 -0.1426 -0.6753  0.1857
11137TIP3   OH254901   4.249   4.660  11.356  0.0144  0.8415 -0.2830
11137TIP3    H154902   4.298   4.617  11.426 -0.7268  1.8839  0.9231
11137TIP3    H254903   4.180   4.599  11.333  0.3230  0.4508 -0.1712
11138TIP3   OH254904   3.766   1.162   5.221  0.3901 -0.5842 -0.3189
11138TIP3    H154905   3.765   1.103   5.146  1.3374  0.3010 -1.0484
11138TIP3    H254906   3.682   1.207   5.216  0.4812 -0.4656 -0.9136
11139TIP3   OH254907   6.412   4.915  16.169  0.2330  0.1637 -0.1078
11139TIP3    H154908   6.361   4.860  16.229  2.3353 -0.8864  0.7987
11139TIP3    H254909   6.415   4.866  16.087 -1.8268  1.1591 -0.8512
11140TIP3   OH254910   2.389   4.421  13.668 -0.5659 -0.5998 -0.6177
11140TIP3    H154911   2.342   4.494  13.708 -0.1260 -0.8395  0.3801
11140TIP3    H254912   2.454   4.396  13.734  0.3273 -0.8859 -1.5744
11141TIP3   OH254913   6.426   3.181  11.172 -0.5617  0.2175  0.1957
11141TIP3    H154914   6.476   3.116  11.221  1.2968 -0.0827 -1.9226
11141TIP3    H254915   6.389   3.131  11.098 -1.8644  0.9602  0.3269
11142TIP3   OH254916   0.182   0.470  13.521 -0.6260 -0.9565 -0.8455
11142TIP3    H154917   0.153   0.548  13.568 -0.7945 -1.2465 -0.4600
11142TIP3    H254918   0.247   0.503  13.459 -1.7288 -0.3107 -1.6828
11143TIP3   OH254919   3.487   5.830  11.463  1.0774  0.1438  0.0238
11143TIP3    H154920   3.473   5.840  11.557  1.4334 -1.7987  0.3364
11143TIP3    H254921   3.582   5.828  11.453  1.0405  0.0702 -0.3386
11144TIP3   OH254922   6.713   6.141  14.892 -0.5227  0.5137 -0.2246
11144TIP3    H154923   6.735   6.211  14.954 -2.8046  0.0318  1.2324
11144TIP3    H254924   6.696   6.187  14.809 -1.3709  1.6418  0.5494
11145TIP3   OH254925   0.219   3.355   3.601  0.1768  0.3116 -0.2864
11145TIP3    H154926   0.182   3.303   3.529 -0.3167  0.1150  0.1055
11145TIP3    H254927   0.274   3.420   3.557 -1.4673  1.3096 -0.9589
11146TIP3   OH254928   3.873   6.729  16.143  0.2850  0.3257 -0.0495
11146TIP3    H154929   3.924   6.652  16.118 -0.4794 -0.2566  0.1632
11146TIP3    H254930   3.869   6.725  16.238  0.3045  0.6799 -0.0316
11147TIP3   OH254931   5.251   5.575  10.514  0.2936 -0.5214 -0.3003
11147TIP3    H154932   5.163   5.548  10.540  0.4126 -0.7113 -0.0956
11147TIP3    H254933   5.307   5.500  10.536  0.6479 -0.0667  0.3856
11148TIP3   OH254934   6.501   3.517   5.836  0.5423  0.5692 -0.2318
11148TIP3    H154935   6.501   3.429   5.799 -2.2617  0.5464 -0.3799
11148TIP3    H254936   6.525   3.574   5.763  1.4030  0.0325 -0.3807
11149TIP3   OH254937   0.347   0.571  11.909 -0.1189  0.1120 -0.4541
11149TIP3    H154938   0.277   0.509  11.891 -0.0389  0.2934 -1.4358
11149TIP3    H254939   0.403   0.567  11.832  0.0985  1.1107 -0.3634
11150TIP3   OH254940   0.547   4.321  16.776  0.6112 -0.0852 -0.3338
11150TIP3    H154941   0.533   4.393  16.715 -4.1857  0.7663  1.3327
11150TIP3    H254942   0.533   4.359  16.863  0.8761 -2.4404  0.8459
11151TIP3   OH254943   2.718   5.443  15.021  0.3348 -0.3375 -0.5615
11151TIP3    H154944   2.742   5.531  14.993 -2.4979  0.3156 -1.2809
11151TIP3    H254945   2.690   5.400  14.940 -0.6104 -1.0573  0.1297
11152TIP3   OH254946   3.281   2.937   1.277  0.2104  0.2082  0.3106
11152TIP3    H154947   3.346   2.874   1.246  0.3676  0.4210  0.1991
11152TIP3    H254948   3.250   2.980   1.197  1.5272  1.6396  0.5110
11153TIP3   OH254949   6.010   0.473   5.626  0.0847  0.3856 -0.2427
11153TIP3    H154950   5.936   0.415   5.643  0.8031 -0.2071  1.0157
11153TIP3    H254951   6.026   0.464   5.532 -1.9657  1.2047 -0.7238
11154TIP3   OH254952   3.206   3.592   1.988  0.6715  0.5807 -0.6334
11154TIP3    H154953   3.127   3.638   1.960  0.4296  0.3268 -0.3698
11154TIP3    H254954   3.179   3.542   2.065  1.3421  1.3235  0.1070
11155TIP3   OH254955   2.600   0.554   2.478  0.6496  0.3675  0.8959
11155TIP3    H154956   2.653   0.556   2.398 -2.7180  0.5358 -1.5697
11155TIP3    H254957   2.566   0.643   2.486 -0.1669 -0.0065  1.7184
11156TIP3   OH254958   0.672   2.785   1.560 -0.3444  0.4087 -0.3618
11156TIP3    H154959   0.656   2.814   1.650 -0.2957  0.9202 -0.5161
11156TIP3    H254960   0.739   2.846   1.527  1.1756 -1.0263 -0.0670
11157TIP3   OH254961   4.651   1.000   4.989  0.4984  0.3849 -0.0199
11157TIP3    H154962   4.723   0.985   5.049  0.4793  0.3735  0.0004
11157TIP3    H254963   4.626   1.092   5.002 -1.9215 -0.5057  2.6636
11158TIP3   OH254964   0.780   5.047   2.749  0.1367  0.0923 -0.7045
11158TIP3    H154965   0.860   5.097   2.763 -0.8327  1.3521  0.5519
11158TIP3    H254966   0.764   5.054   2.655  2.3252 -1.5692 -1.3015
11159TIP3   OH254967   1.996   1.714  13.342 -0.2905 -0.2079 -0.4078
11159TIP3    H154968   1.941   1.639  13.317  2.8424 -2.2714 -1.7113
11159TIP3    H254969   2.010   1.702  13.436 -0.6790 -0.6321 -0.3983
11160TIP3   OH254970   2.488   1.929   4.657  0.3232 -0.8501  0.8055
11160TIP3    H154971   2.562   1.873   4.680  0.7438 -1.9919 -2.6496
11160TIP3    H254972   2.415   1.868   4.644 -0.0624 -0.2570  0.0936
11161TIP3   OH254973   0.759   5.777   3.723  0.0113  0.5002 -0.1261
11161TIP3    H154974   0.798   5.731   3.797 -0.3124 -0.1831 -0.3768
11161TIP3    H254975   0.814   5.855   3.711 -0.4445  1.0843  1.3847
11162TIP3   OH254976   1.650   6.039   0.139 -0.2525  0.4093 -0.2593
11162TIP3    H154977   1.559   6.055   0.115 -0.6967 -1.3874  0.0865
11162TIP3    H254978   1.660   6.081   0.225 -1.0662 -0.2244  0.1646
11163TIP3   OH254979   4.737   5.257   5.056 -0.0238 -0.4291  0.4919
11163TIP3    H154980   4.764   5.295   5.140 -1.2390  0.0973  0.6609
11163TIP3    H254981   4.789   5.178   5.048  0.4397 -0.2449  1.5320
11164TIP3   OH254982   5.377   5.865   1.059 -0.0442  0.2081 -0.2195
11164TIP3    H154983   5.393   5.957   1.037  1.2761 -0.2341 -1.2214
11164TIP3    H254984   5.448   5.842   1.119 -0.3332 -0.1879 -0.0180
11165TIP3   OH254985   6.277   5.802  13.612 -0.1144 -0.4652 -0.1622
11165TIP3    H154986   6.293   5.708  13.599 -1.6527 -0.7472 -0.2191
11165TIP3    H254987   6.182   5.808  13.626  0.2116  0.8458  1.9584
11166TIP3   OH254988   3.148   3.822  13.947  0.4405 -0.4785  0.1276
11166TIP3    H154989   3.068   3.782  13.914  0.3104  1.4517 -2.1574
11166TIP3    H254990   3.215   3.755  13.936 -0.4538 -1.3606 -0.0345
11167TIP3   OH254991   0.956   5.728   4.964 -0.6360 -0.1470 -0.2772
11167TIP3    H154992   0.869   5.746   4.928 -0.8336 -0.1378  0.1856
11167TIP3    H254993   0.987   5.653   4.914  1.5919  3.1922 -4.5157
11168TIP3   OH254994   5.239   5.396   5.741 -0.0936  0.4519 -0.5471
11168TIP3    H154995   5.165   5.361   5.790  0.1144  1.4290  0.4874
11168TIP3    H254996   5.208   5.479   5.706  0.0798  0.2220 -1.2803
11169TIP3   OH254997   1.597   4.282  11.315  0.4981 -0.0000  0.0913
11169TIP3    H154998   1.601   4.362  11.263 -0.4697 -0.6546 -1.0350
11169TIP3    H254999   1.611   4.212  11.251  0.1180 -0.7874  0.8592
11170TIP3   OH255000   6.663   0.193  15.883 -0.3440 -0.2675 -0.3379
11170TIP3    H155001   6.686   0.262  15.821 -0.4056  1.2189  1.2359
11170TIP3    H255002   6.593   0.144  15.840 -0.3054  0.6451 -1.4701
11171TIP3   OH255003   4.868   1.763  16.868  0.1793 -0.2619 -0.1132
11171TIP3    H155004   4.797   1.727  16.923 -0.3054  0.4350 -0.2711
11171TIP3    H255005   4.823   1.808  16.797  0.7739 -3.0085 -2.3937
11172TIP3   OH255006   3.183   6.014   3.536  0.1383 -0.1148  0.0118
11172TIP3    H155007   3.181   6.084   3.601 -1.4615 -1.5218  1.5793
11172TIP3    H255008   3.201   6.059   3.453  2.7687  1.6830  1.4168
11173TIP3   OH255009   0.998   2.934   3.688  0.7074 -0.2687 -0.1134
11173TIP3    H155010   1.000   2.887   3.605  0.2001  0.1447 -0.3640
11173TIP3    H255011   1.027   2.870   3.753 -0.8354 -1.2140 -0.3188
11174TIP3   OH255012   5.082   0.312   2.272  0.0835 -0.0802  0.0062
11174TIP3    H155013   5.127   0.269   2.200  0.5466 -1.2676  0.9731
11174TIP3    H255014   5.067   0.243   2.337 -0.4367  0.9180  0.9962
11175TIP3   OH255015   5.940   6.221   6.479  0.0655 -0.1261 -0.2549
11175TIP3    H155016   5.907   6.160   6.545  0.4265  0.9826  0.9926
11175TIP3    H255017   6.011   6.268   6.523 -1.4076  2.4997 -0.5036
11176TIP3   OH255018   0.205   4.028   5.366  0.4556 -0.2850  0.6321
11176TIP3    H155019   0.231   3.956   5.308  3.2450  0.8555  0.3141
11176TIP3    H255020   0.224   3.996   5.454  1.4287 -0.0648  0.5105
11177TIP3   OH255021   4.722   1.156  16.521  0.2771  0.0864  0.2194
11177TIP3    H155022   4.779   1.204  16.581  0.2515  0.2625  0.1040
11177TIP3    H255023   4.772   1.150  16.440 -0.5030  1.6867 -0.4259
11178TIP3   OH255024   5.878   3.437   5.862 -0.1181  0.3755 -0.1552
11178TIP3    H155025   5.936   3.453   5.788  0.2589  0.4866  0.1566
11178TIP3    H255026   5.905   3.351   5.895  1.3318  1.3165  1.2831
11179TIP3   OH255027   3.778   6.266  16.969 -0.1363 -0.3153  0.2277
11179TIP3    H155028   3.739   6.208  17.034 -0.4801  0.2050  0.4861
11179TIP3    H255029   3.862   6.292  17.008 -0.4676  0.2178  0.5851
11180TIP3   OH255030   3.765   1.296  15.365 -0.1552 -0.4116 -0.6298
11180TIP3    H155031   3.729   1.223  15.415  1.2643 -2.9733 -3.0381
11180TIP3    H255032   3.732   1.283  15.276  0.1861  1.9320 -1.1820
11181TIP3   OH255033   1.399   6.685  13.440 -0.4338  0.2788  0.0009
11181TIP3    H155034   1.320   6.739  13.447 -0.6074  0.7162 -3.4664
11181TIP3    H255035   1.368   6.596  13.456 -1.1663  0.6563  0.8048
11182TIP3   OH255036   2.748   1.588   3.460  0.4108  0.5166  0.3244
11182TIP3    H155037   2.658   1.603   3.491  0.2467 -0.2254  0.2042
11182TIP3    H255038   2.738   1.534   3.382  0.9297  0.9936 -0.0750
11183TIP3   OH255039   2.556   2.758  10.645  0.5485 -0.4632 -0.3028
11183TIP3    H155040   2.550   2.853  10.638  1.7413 -0.4277 -1.0929
11183TIP3    H255041   2.638   2.736  10.602  0.4256 -1.8328  0.1200
11184TIP3   OH255042   0.859   3.740   1.085 -0.5082 -0.0176 -0.3277
11184TIP3    H155043   0.919   3.681   1.040 -2.3447 -1.2645 -1.2572
11184TIP3    H255044   0.910   3.820   1.099  1.7231 -1.4261  0.0375
11185TIP3   OH255045   3.647   0.879  14.455  0.5139 -0.2401 -0.3915
11185TIP3    H155046   3.610   0.793  14.475  1.5365 -0.7513 -0.6171
11185TIP3    H255047   3.677   0.913  14.540  0.1041 -0.0924 -0.3018
11186TIP3   OH255048   3.517   3.415   5.308 -0.4545 -0.3659 -0.4197
11186TIP3    H155049   3.461   3.345   5.274 -1.5933  0.4641 -0.2980
11186TIP3    H255050   3.582   3.369   5.362  0.4941 -1.5638 -2.4714
11187TIP3   OH255051   4.673   1.614  12.915  0.5203  0.7141  0.4958
11187TIP3    H155052   4.672   1.636  12.822 -0.9920 -0.3841  0.1972
11187TIP3    H255053   4.724   1.533  12.919  2.4256  1.8869  0.9680
11188TIP3   OH255054   3.848   1.587   4.889  0.1132  0.0479  0.2206
11188TIP3    H155055   3.828   1.586   4.982  0.0349  0.4881  0.2109
11188TIP3    H255056   3.865   1.496   4.867 -1.4480 -0.3051  0.3303
11189TIP3   OH255057   4.217   3.591   1.969  0.6299 -0.7110  0.0185
11189TIP3    H155058   4.186   3.670   1.925  0.7584 -1.2638 -1.1084
11189TIP3    H255059   4.186   3.519   1.914  0.5205 -1.4524  1.0192
11190TIP3   OH255060   6.717   5.198   1.323  0.3362  0.0816  0.0375
11190TIP3    H155061   6.634   5.187   1.369  1.5057 -2.5129  1.7625
11190TIP3    H255062   6.762   5.269   1.370 -0.2867  0.4925  0.0204
11191TIP3   OH255063   2.660   0.685  13.918 -0.3215  0.4867 -0.2620
11191TIP3    H155064   2.668   0.607  13.863 -1.3744  0.2628 -0.1033
11191TIP3    H255065   2.619   0.750  13.861 -2.1594  0.0111  0.4654
11192TIP3   OH255066   6.147   1.769   0.630  0.3904 -0.4859  0.2582
11192TIP3    H155067   6.100   1.843   0.668 -1.2941 -1.8975  1.1090
11192TIP3    H255068   6.107   1.756   0.544  0.6143 -0.4640  0.1504
11193TIP3   OH255069   0.171   2.401   6.049  0.0949 -0.0737 -0.3244
11193TIP3    H155070   0.110   2.395   6.122  1.4640 -1.5392  0.7575
11193TIP3    H255071   0.209   2.488   6.056  1.4736 -0.7804  1.8136
11194TIP3   OH255072   5.210   3.803  15.636  0.6057  0.5306  0.3877
11194TIP3    H155073   5.283   3.749  15.605 -0.2400  0.9357 -2.6819
11194TIP3    H255074   5.245   3.892  15.637  1.0322  0.3663  2.1130
11195TIP3   OH255075   6.363   5.583  12.847  0.5111  0.1551  0.2306
11195TIP3    H155076   6.310   5.638  12.905  1.6794  0.8368  0.7079
11195TIP3    H255077   6.407   5.646  12.789 -1.2424 -0.5525 -1.9876
11196TIP3   OH255078   1.528   5.886   5.226  0.4269 -0.7639 -0.5317
11196TIP3    H155079   1.538   5.821   5.295  1.2623  0.2688  0.3578
11196TIP3    H255080   1.616   5.899   5.191  0.1676 -0.5787 -1.1426
11197TIP3   OH255081   0.305   6.568  15.960 -0.1754  0.2749  0.1994
11197TIP3    H155082   0.327   6.653  16.000 -3.3759  0.6587  1.4770
11197TIP3    H255083   0.379   6.511  15.982  0.6142  1.9120  2.1179
11198TIP3   OH255084   6.201   3.223   4.978  0.1092  0.1266  0.1871
11198TIP3    H155085   6.174   3.228   4.887 -0.0326  0.8048  0.2637
11198TIP3    H255086   6.268   3.155   4.979 -1.8182 -1.9224  0.0525
11199TIP3   OH255087   5.303   5.499   2.382 -0.0003  0.7012 -0.0220
11199TIP3    H155088   5.361   5.575   2.372  1.2928  0.0916  2.1811
11199TIP3    H255089   5.322   5.444   2.306 -0.3804  2.1714 -1.2290
11200TIP3   OH255090   1.672   2.849   2.554  0.3403 -0.6816  0.3060
11200TIP3    H155091   1.715   2.764   2.559  0.9351 -0.3237  1.8797
11200TIP3    H255092   1.699   2.894   2.634 -1.9008  0.0658  0.7187
11201TIP3   OH255093   4.952   6.305  11.497 -0.6467 -0.0664  0.2594
11201TIP3    H155094   4.882   6.254  11.537 -0.0276 -0.2822  1.0817
11201TIP3    H255095   4.921   6.321  11.407 -2.5882  1.4138  1.0992
11202TIP3   OH255096   0.373   0.332   1.555  0.3501  0.5957  0.1837
11202TIP3    H155097   0.456   0.368   1.586 -0.1791  0.9188  1.2805
11202TIP3    H255098   0.395   0.291   1.471  1.5198  1.0638  0.2333
11203TIP3   OH255099   4.012   3.697  16.157 -0.1453 -0.5243  0.2967
11203TIP3    H155100   3.949   3.708  16.228 -0.4050  1.0152 -0.1177
11203TIP3    H255101   4.003   3.606  16.130 -2.1397 -0.3836  0.3211
11204TIP3   OH255102   5.008   0.920  12.031  0.2826  0.6837 -0.5418
11204TIP3    H155103   5.039   0.830  12.026 -3.7037 -1.0208  0.9786
11204TIP3    H255104   5.027   0.947  12.120  1.0504  1.2150 -0.8572
11205TIP3   OH255105   4.396   5.047  16.593  0.0717  1.0263 -0.6489
11205TIP3    H155106   4.434   5.118  16.646  1.1737  0.4276 -0.6181
11205TIP3    H255107   4.463   5.026  16.529  0.2355 -0.7978  0.0868
11206TIP3   OH255108   6.528   4.335  13.696 -0.2998 -0.0684  0.0658
11206TIP3    H155109   6.484   4.290  13.624 -0.4334 -0.4520  0.3825
11206TIP3    H255110   6.607   4.284  13.711 -0.4328 -0.1793  0.4031
11207TIP3   OH255111   0.464   1.068   1.205 -0.4212  0.2701  0.1601
11207TIP3    H155112   0.402   1.049   1.275 -1.8216  0.1505 -1.0612
11207TIP3    H255113   0.425   1.141   1.157 -0.7476 -1.1586 -1.9183
11208TIP3   OH255114   2.722   5.915  12.673 -0.0140 -0.4315 -0.3834
11208TIP3    H155115   2.786   5.844  12.673 -0.6439 -1.0359  1.1078
11208TIP3    H255116   2.660   5.891  12.742 -1.4288  0.5087 -1.2730
11209TIP3   OH255117   3.407   5.515   4.221 -0.0112 -0.6920  0.4827
11209TIP3    H155118   3.380   5.424   4.218 -0.4277 -0.6378  1.7227
11209TIP3    H255119   3.502   5.512   4.228 -0.0818 -1.0898  1.5245
11210TIP3   OH255120   6.741   1.055   1.858 -0.4659  0.3373 -0.2207
11210TIP3    H155121   6.796   1.055   1.779 -0.2018 -1.3570 -0.0817
11210TIP3    H255122   6.653   1.074   1.826 -0.6910 -2.0811 -1.2295
11211TIP3   OH255123   4.232   5.534   5.445  0.2121 -0.0973  0.7009
11211TIP3    H155124   4.163   5.580   5.494 -0.0333 -0.6120  0.8533
11211TIP3    H255125   4.202   5.443   5.442 -0.5499  0.1634 -1.7500
11212TIP3   OH255126   2.150   5.424   1.645  0.1162  0.3006 -0.6203
11212TIP3    H155127   2.138   5.383   1.559 -0.2635 -0.4109 -0.2429
11212TIP3    H255128   2.161   5.350   1.705  1.3984  0.8095 -0.1939
11213TIP3   OH255129   1.016   0.148  14.572 -0.5465 -0.0257 -0.1108
11213TIP3    H155130   0.985   0.122  14.659 -0.6878  0.3972 -0.0344
11213TIP3    H255131   1.106   0.115  14.568  0.7208  2.9041  1.5274
11214TIP3   OH255132   3.452   3.033  16.385 -0.3768 -0.2200 -0.0081
11214TIP3    H155133   3.532   2.983  16.396 -0.6580 -0.5436  0.6345
11214TIP3    H255134   3.432   3.067  16.472 -0.7143  0.2096 -0.2431
11215TIP3   OH255135   1.424   0.647   6.189  0.1763 -0.1857 -0.5347
11215TIP3    H155136   1.360   0.684   6.129  1.9199  0.9208 -1.8309
11215TIP3    H255137   1.397   0.557   6.201 -1.0471 -0.0281 -1.8543
11216TIP3   OH255138   6.492   1.403  16.622 -0.3689  0.4882  0.0404
11216TIP3    H155139   6.416   1.411  16.679 -1.1337  2.5891 -1.1740
11216TIP3    H255140   6.486   1.314  16.587 -2.0107  0.4493  0.3434
11217TIP3   OH255141   5.235   3.682  14.313  0.0751 -0.3613 -0.6992
11217TIP3    H155142   5.311   3.637  14.349  2.6569  2.1449 -2.5669
11217TIP3    H255143   5.202   3.736  14.385  0.6635 -0.7346 -0.1477
11218TIP3   OH255144   4.405   3.405   2.862  0.0567  0.4137 -0.3950
11218TIP3    H155145   4.482   3.414   2.805  1.0988 -3.6508  0.0401
11218TIP3    H255146   4.331   3.419   2.804  1.1313 -0.0773 -1.9706
11219TIP3   OH255147   6.138   2.968   3.247 -0.2075 -0.2527 -0.3236
11219TIP3    H155148   6.091   3.036   3.294 -0.6525 -0.3793 -0.5724
11219TIP3    H255149   6.096   2.886   3.275  0.8452 -0.5029  0.5840
11220TIP3   OH255150   5.481   0.013   2.334  0.5253 -0.6635 -0.0108
11220TIP3    H155151   5.522  -0.062   2.291 -1.0757 -1.3956 -0.3374
11220TIP3    H255152   5.467   0.076   2.264 -1.5069 -1.6052 -0.5475
11221TIP3   OH255153   0.188   4.238   4.482  0.2798  0.8409  0.4731
11221TIP3    H155154   0.216   4.147   4.486 -1.7632  0.0445 -1.3669
11221TIP3    H255155   0.139   4.252   4.562  0.1996  0.1715  0.5417
11222TIP3   OH255156   1.941   2.262   5.426 -0.2056  0.1028  0.1298
11222TIP3    H155157   2.022   2.262   5.478 -0.8776  0.0863  1.2234
11222TIP3    H255158   1.894   2.340   5.455  0.0362  0.8939 -1.5380
11223TIP3   OH255159   3.371   2.446   1.867 -0.0691 -0.0975  0.1611
11223TIP3    H155160   3.431   2.520   1.858  0.2881 -0.3592  0.3687
11223TIP3    H255161   3.374   2.423   1.960  0.0419 -0.5555  0.0486
11224TIP3   OH255162   2.432   2.021  16.645 -0.0588 -0.1934 -0.2918
11224TIP3    H155163   2.375   1.945  16.633  0.2672 -0.7317  1.3595
11224TIP3    H255164   2.520   1.986  16.647  0.2090  0.4198 -1.0018
11225TIP3   OH255165   5.559   4.771   3.632 -0.1584 -0.1959  0.3619
11225TIP3    H155166   5.564   4.860   3.667 -0.0322  0.9534 -2.3337
11225TIP3    H255167   5.473   4.766   3.590 -1.1108 -2.1729  2.3360
11226TIP3   OH255168   2.043   5.243   1.138 -0.4075  0.9043 -0.2006
11226TIP3    H155169   2.038   5.237   1.042  1.4398 -2.1739 -0.2454
11226TIP3    H255170   1.967   5.193   1.168 -0.2461  0.7164 -0.1008
11227TIP3   OH255171   0.121   2.377  15.016 -0.0084 -0.1825  0.2800
11227TIP3    H155172   0.185   2.390  14.947 -0.1498  1.0887  0.3721
11227TIP3    H255173   0.061   2.451  15.008 -1.2062 -1.0904  0.4925
11228TIP3   OH255174   6.229   1.907   5.161 -0.4626  0.2242 -0.1482
11228TIP3    H155175   6.308   1.896   5.108  0.1795  1.0147  0.6269
11228TIP3    H255176   6.196   1.993   5.138 -0.7653  0.1446 -0.0221
11229TIP3   OH255177   3.839   1.825   1.915  0.3147 -0.0773 -0.1021
11229TIP3    H155178   3.885   1.842   1.997  0.4293 -0.0596 -0.1702
11229TIP3    H255179   3.894   1.761   1.869  1.2629  1.3619 -1.0386
11230TIP3   OH255180   3.731   5.362   4.632 -0.0785 -0.5346 -0.3469
11230TIP3    H155181   3.765   5.279   4.666 -1.7424 -0.9060  0.5305
11230TIP3    H255182   3.637   5.360   4.653  0.1692  2.5301  1.7682
11231TIP3   OH255183   2.812   6.076  11.052  0.9348 -0.2272 -0.3650
11231TIP3    H155184   2.761   6.157  11.059 -0.9757 -1.5167  1.8502
11231TIP3    H255185   2.903   6.106  11.055  0.3009  1.8538  0.5903
11232TIP3   OH255186   4.743   5.657  10.611 -0.5702  0.3087 -0.7412
11232TIP3    H155187   4.663   5.710  10.607 -0.0385  1.1505 -0.3984
11232TIP3    H255188   4.712   5.569  10.633 -1.4091  0.6250 -0.6195
11233TIP3   OH255189   5.759   5.357   1.122  0.2371 -0.2731 -0.1557
11233TIP3    H155190   5.668   5.383   1.132 -0.0222 -0.4735 -1.7967
11233TIP3    H255191   5.775   5.359   1.028  2.0633  0.2139  0.1187
11234TIP3   OH255192   2.136   6.255   2.361  0.2305 -0.4929 -0.2748
11234TIP3    H155193   2.082   6.242   2.439  0.5759 -0.3940 -0.0164
11234TIP3    H255194   2.219   6.212   2.381 -0.0282 -1.3451 -0.9902
11235TIP3   OH255195   1.297   6.465  16.177  0.3446  0.2744 -0.1989
11235TIP3    H155196   1.356   6.509  16.238 -1.5030  1.4683  0.8253
11235TIP3    H255197   1.212   6.507  16.191 -1.1515 -2.4258 -0.4405
11236TIP3   OH255198   2.526   1.482  13.249  0.2687  0.2606 -0.1326
11236TIP3    H155199   2.535   1.548  13.317 -0.8794  1.8816 -1.4785
11236TIP3    H255200   2.615   1.450  13.233  0.9405  1.9450  0.1080
11237TIP3   OH255201   5.360   4.805  12.214  0.0771  0.0195  0.2902
11237TIP3    H155202   5.428   4.748  12.179 -0.8630  0.8413 -3.2708
11237TIP3    H255203   5.357   4.784  12.308  1.9749 -3.3684 -0.2469
11238TIP3   OH255204   0.441   3.067  11.957 -0.0259  0.2627 -0.1264
11238TIP3    H155205   0.359   3.097  11.919  0.0710 -0.2722 -0.7844
11238TIP3    H255206   0.416   3.004  12.025 -0.1514 -0.5006 -0.8629
11239TIP3   OH255207   3.854   4.348   0.172 -0.1072 -0.5156 -0.0860
11239TIP3    H155208   3.834   4.260   0.205 -0.0979  0.4539  2.8133
11239TIP3    H255209   3.849   4.340   0.077 -0.0751 -3.6438  0.0776
11240TIP3   OH255210   3.468   3.269  15.734 -0.4605  0.1000  0.7379
11240TIP3    H155211   3.472   3.235  15.645 -0.0595 -1.8926  1.4512
11240TIP3    H255212   3.514   3.353  15.730  2.0559 -1.1999 -0.4269
11241TIP3   OH255213   2.621   1.404   3.918  0.2815  0.2375 -0.0414
11241TIP3    H155214   2.676   1.448   3.853  1.9867 -3.2895 -1.3184
11241TIP3    H255215   2.682   1.382   3.988 -0.0634 -1.3789 -0.2118
11242TIP3   OH255216   0.857   6.372  11.841  0.3220  0.1975 -0.3478
11242TIP3    H155217   0.781   6.416  11.880  1.4895  1.0474  1.0271
11242TIP3    H255218   0.872   6.296  11.897  0.9615  0.4698 -0.1433
11243TIP3   OH255219   4.771   1.750   1.850 -0.3358  0.5699 -0.5929
11243TIP3    H155220   4.704   1.735   1.917 -0.9158  0.9038 -1.0884
11243TIP3    H255221   4.839   1.800   1.895 -0.0369 -0.4464  0.1247
11244TIP3   OH255222   2.112   2.124   3.897  0.3434  0.2936  0.2207
11244TIP3    H155223   2.175   2.142   3.966  0.9460 -0.7493 -0.0289
11244TIP3    H255224   2.148   2.048   3.851 -0.4100  0.5169 -0.7812
11245TIP3   OH255225   4.929   1.277   6.510  0.7966 -0.7458  0.0667
11245TIP3    H155226   4.904   1.364   6.478  1.4831 -0.8132 -0.6817
11245TIP3    H255227   4.845   1.233   6.526  0.3869 -0.8426 -2.0582
11246TIP3   OH255228   1.898   4.864   4.617 -0.2109  0.7901 -0.0226
11246TIP3    H155229   1.910   4.840   4.525 -2.6820  1.0609 -0.4935
11246TIP3    H255230   1.881   4.780   4.661 -0.4914  0.8058 -0.0982
11247TIP3   OH255231   4.438   2.520  14.934 -0.4209  0.6740  0.6861
11247TIP3    H155232   4.410   2.533  15.025 -0.5312 -0.6247  0.8582
11247TIP3    H255233   4.373   2.459  14.898 -0.0061  0.6721 -0.0772
11248TIP3   OH255234   6.612   5.357  15.624 -0.2011  0.0992  0.4728
11248TIP3    H155235   6.518   5.343  15.626 -0.4071  1.0907 -0.9340
11248TIP3    H255236   6.649   5.273  15.598 -0.8603  0.2003 -0.8693
11249TIP3   OH255237   0.240   4.444  11.814 -0.3023 -0.1925 -0.2971
11249TIP3    H155238   0.171   4.385  11.843 -0.3831  0.0038 -0.0852
11249TIP3    H255239   0.201   4.531  11.821  0.9414  0.2274  2.8125
11250TIP3   OH255240   6.677   3.012  13.255 -0.2148 -0.5223  0.7851
11250TIP3    H155241   6.649   3.003  13.164  1.6669 -0.3567  0.1425
11250TIP3    H255242   6.638   2.937  13.300 -1.3987 -0.4473 -0.0835
11251TIP3   OH255243   6.286   4.568   4.173 -0.3101  0.4627  0.6350
11251TIP3    H155244   6.236   4.650   4.169  0.5641  0.9856 -1.1997
11251TIP3    H255245   6.359   4.583   4.112 -0.2291 -1.7504  0.1094
11252TIP3   OH255246   5.251   2.557  14.334 -0.2071 -0.2110  0.7653
11252TIP3    H155247   5.175   2.507  14.306 -0.3454 -0.2361  1.1763
11252TIP3    H255248   5.216   2.639  14.369 -0.1253 -0.5683  1.7383
11253TIP3   OH255249   1.051   4.958   4.098 -0.4385  0.1765  0.4313
11253TIP3    H155250   1.043   4.875   4.145  0.8746  0.1997  0.7476
11253TIP3    H255251   1.132   4.997   4.131  0.4202  0.3224 -1.6413
11254TIP3   OH255252   2.025   3.882   1.832 -0.0684  0.8484  0.0339
11254TIP3    H155253   2.037   3.958   1.888 -0.4593 -0.1757  1.5789
11254TIP3    H255254   2.114   3.860   1.803  0.0980  1.6089 -0.0473
11255TIP3   OH255255   4.801   6.117  11.612 -0.4159 -0.0038 -1.1709
11255TIP3    H155256   4.836   6.045  11.560 -0.7766 -1.1299  0.0848
11255TIP3    H255257   4.769   6.076  11.692  1.7343  1.8262  0.8083
11256TIP3   OH255258   4.858   0.973   2.379 -0.3540 -0.7019 -0.1394
11256TIP3    H155259   4.834   0.913   2.450  1.0076 -1.1410 -0.0240
11256TIP3    H255260   4.906   0.918   2.317  0.4050  0.1314 -0.3111
11257TIP3   OH255261   2.506   6.157   0.129 -0.3884  0.2518  0.3862
11257TIP3    H155262   2.571   6.103   0.175 -0.1948 -0.0539 -0.2341
11257TIP3    H255263   2.553   6.194   0.055 -1.0556 -0.4632 -0.4290
11258TIP3   OH255264   4.948   0.184   2.600 -0.2475 -0.0891 -0.0345
11258TIP3    H155265   4.859   0.151   2.612 -0.9484  1.0198 -1.8325
11258TIP3    H255266   4.976   0.148   2.516  0.7322  0.1814  0.1560
11259TIP3   OH255267   1.443   3.752  12.567  0.4972  0.1509 -0.3277
11259TIP3    H155268   1.461   3.727  12.476  1.2856 -0.0125 -0.1356
11259TIP3    H255269   1.386   3.683  12.600  1.7458 -0.8156 -0.1383
11260TIP3   OH255270   5.394   2.971   1.262 -0.3901 -0.3863  0.0743
11260TIP3    H155271   5.314   3.015   1.292 -1.1121 -1.4971 -0.1723
11260TIP3    H255272   5.366   2.916   1.189  0.5635 -0.9481  0.1085
11261TIP3   OH255273   6.205   3.986   2.048  0.0693  0.0212  0.4676
11261TIP3    H155274   6.248   3.905   2.077  1.0854  0.5121  0.3900
11261TIP3    H255275   6.122   3.987   2.096  0.0617 -1.0339  0.5141
11262TIP3   OH255276   6.449   1.798   0.132 -0.2615 -0.0516  0.6643
11262TIP3    H155277   6.373   1.855   0.120 -0.0694  0.1687  0.5044
11262TIP3    H255278   6.514   1.831   0.071 -0.2064 -0.5404  0.4510
11263TIP3   OH255279   4.540   6.605   1.884  0.2938 -0.0654  0.1165
11263TIP3    H155280   4.614   6.637   1.833  1.1246 -1.2440  0.5538
11263TIP3    H255281   4.476   6.676   1.880  1.0606  0.5870 -1.0523
11264TIP3   OH255282   2.508   2.182  13.880  0.4589 -0.7929 -0.1364
11264TIP3    H155283   2.438   2.198  13.817 -0.3297 -2.7629  0.1831
11264TIP3    H255284   2.496   2.091  13.907  1.5550 -0.3870  1.9033
11265TIP3   OH255285   5.983   1.392  12.695  0.4455 -0.6465 -0.1227
11265TIP3    H155286   6.002   1.417  12.785 -1.4341 -1.1790  0.4686
11265TIP3    H255287   5.936   1.467  12.658  0.7889 -0.6199 -0.5190
11266TIP3   OH255288   6.422   0.172   4.224  0.2274  0.3274 -0.0839
11266TIP3    H155289   6.413   0.150   4.131  0.9265 -2.1677  0.3626
11266TIP3    H255290   6.345   0.134   4.266  0.6070  0.1958  0.5212
11267TIP3   OH255291   3.957   4.816  15.279 -0.0667  0.3306  1.2081
11267TIP3    H155292   3.876   4.862  15.257  0.8013  1.0744 -0.6091
11267TIP3    H255293   3.994   4.866  15.352  0.3958  2.0341 -0.1238
11268TIP3   OH255294   0.998   5.572   4.199 -0.3612  0.1636 -0.1862
11268TIP3    H155295   0.984   5.590   4.292  0.5418 -0.8593  0.1537
11268TIP3    H255296   1.092   5.556   4.191 -0.4102  0.3531 -1.3005
11269TIP3   OH255297   2.789   2.089   4.725 -0.0058 -0.2581  0.2435
11269TIP3    H155298   2.847   2.118   4.795  0.4175  0.0633 -0.2280
11269TIP3    H255299   2.709   2.060   4.769  0.6221 -0.9683  0.9169
11270TIP3   OH255300   5.580   3.260  11.716 -0.6693 -0.4579 -0.4747
11270TIP3    H155301   5.625   3.186  11.677 -1.7300 -1.2808 -0.1938
11270TIP3    H255302   5.492   3.258  11.678 -0.5896  0.9401 -0.8068
11271TIP3   OH255303   5.970   5.383   1.812  0.2428 -0.2578 -0.4007
11271TIP3    H155304   5.918   5.308   1.841 -1.0565  0.1090 -1.6021
11271TIP3    H255305   5.984   5.435   1.891 -0.2665 -0.9384  0.1517
11272TIP3   OH255306   6.378   4.165   5.050  0.5188  0.1155 -0.9402
11272TIP3    H155307   6.314   4.196   4.986 -0.1833 -1.1216 -0.8560
11272TIP3    H255308   6.351   4.076   5.072  0.3047  0.7207  1.6379
11273TIP3   OH255309   5.496   2.004   4.211 -0.3343 -0.2690 -0.4310
11273TIP3    H155310   5.501   2.061   4.134 -0.4773 -0.1000 -0.3175
11273TIP3    H255311   5.552   1.929   4.190  2.2027  1.2221  0.5575
11274TIP3   OH255312   1.481   0.076   5.425 -0.1389  0.1509 -0.0078
11274TIP3    H155313   1.540   0.025   5.481 -0.5872 -0.4962 -0.1032
11274TIP3    H255314   1.419   0.011   5.392 -1.1598  0.8831  0.4336
11275TIP3   OH255315   0.192   0.262  17.072 -0.5538 -0.3556  0.9964
11275TIP3    H155316   0.233   0.187  17.114  1.3076 -0.0196 -0.1098
11275TIP3    H255317   0.156   0.314  17.144  0.8568 -0.7611  2.0136
11276TIP3   OH255318   3.756   0.308   3.599  0.0667  0.6466 -0.3988
11276TIP3    H155319   3.845   0.314   3.566  0.0148  1.8610 -0.3749
11276TIP3    H255320   3.765   0.274   3.688  0.5973  1.6377 -0.0574
11277TIP3   OH255321   2.679   1.778   5.566  0.2326 -0.2336 -0.3252
11277TIP3    H155322   2.624   1.706   5.598 -1.3242  0.2972 -1.6715
11277TIP3    H255323   2.722   1.812   5.645 -1.5426 -0.5603  0.8366
11278TIP3   OH255324   1.110   2.726  14.761 -0.4179 -0.0273  0.0202
11278TIP3    H155325   1.132   2.799  14.819  0.4606  0.3558 -0.7771
11278TIP3    H255326   1.014   2.720  14.766 -0.5963  1.7793 -0.5978
11279TIP3   OH255327   4.431   1.698   2.438 -0.3261  0.3032 -0.3580
11279TIP3    H155328   4.411   1.654   2.521 -3.2292  0.7890 -0.6867
11279TIP3    H255329   4.506   1.650   2.403  0.0717 -0.8208  1.8667
11280TIP3   OH255330   3.309   3.502   4.208  0.4083 -0.2975  0.2238
11280TIP3    H155331   3.393   3.490   4.163 -0.5273  0.3561 -1.8497
11280TIP3    H255332   3.320   3.583   4.258  0.5658  0.6253 -1.2479
11281TIP3   OH255333   4.828   2.173   4.424 -0.1442  0.1766  0.2104
11281TIP3    H155334   4.762   2.205   4.485  1.0766  0.8973  1.1933
11281TIP3    H255335   4.912   2.188   4.468  0.6895 -0.8213 -0.9471
11282TIP3   OH255336   0.753   6.367   3.310 -0.0779 -0.2921  0.3885
11282TIP3    H155337   0.784   6.389   3.222  0.4667 -0.5886  0.4997
11282TIP3    H255338   0.815   6.411   3.369 -0.7079  0.2907  0.6357
11283TIP3   OH255339   5.799   0.320   5.710  0.9645 -0.0407  0.4732
11283TIP3    H155340   5.805   0.334   5.804  0.2337  0.4909  0.4512
11283TIP3    H255341   5.734   0.250   5.700  0.6696  0.2454  0.3509
11284TIP3   OH255342   4.028   3.645   5.365 -0.1353  0.4830 -0.0386
11284TIP3    H155343   4.053   3.689   5.446  0.3431  0.0626  0.0401
11284TIP3    H255344   4.042   3.711   5.297 -0.2711  0.7429  0.1829
11285TIP3   OH255345   5.377   2.774   1.058 -0.4540 -0.2256  0.5812
11285TIP3    H155346   5.289   2.749   1.031  0.0458 -2.9643  1.2460
11285TIP3    H255347   5.422   2.796   0.975 -1.5653  0.6900  0.1968
11286TIP3   OH255348   6.573   0.014   5.445  0.4637 -0.0728 -0.5015
11286TIP3    H155349   6.502   0.068   5.410  0.3002 -0.1153 -0.2425
11286TIP3    H255350   6.557  -0.073   5.410 -0.9513 -0.6282  1.3609
11287TIP3   OH255351   1.761   1.186   0.069  0.5069 -0.2748  0.1739
11287TIP3    H155352   1.835   1.130   0.043 -0.9318 -2.0198 -0.3159
11287TIP3    H255353   1.763   1.259   0.006  0.8512 -1.1538 -0.8642
11288TIP3   OH255354   5.712   6.569   3.919 -0.1320  0.3117 -0.0461
11288TIP3    H155355   5.622   6.574   3.886  0.3081 -0.7557 -1.5327
11288TIP3    H255356   5.719   6.481   3.956  0.1095  0.6491  0.7367
11289TIP3   OH255357   2.108   6.076  13.029  0.1838 -0.3978  0.0555
11289TIP3    H155358   2.019   6.056  12.999 -0.0936 -0.8086  1.0763
11289TIP3    H255359   2.127   6.162  12.993 -0.8682 -0.0497  0.2877
11290TIP3   OH255360   5.905   6.522   6.430 -0.2373  0.0900  0.2422
11290TIP3    H155361   5.861   6.596   6.472  1.2884  2.2843 -1.7649
11290TIP3    H255362   5.970   6.492   6.494 -1.5886 -0.3021  1.4900
11291TIP3   OH255363   1.320   5.849  16.171 -0.1737 -0.1959  0.2996
11291TIP3    H155364   1.256   5.899  16.119 -0.6011 -1.8830 -0.8834
11291TIP3    H255365   1.276   5.766  16.190  1.0835 -0.7600  0.8833
11292TIP3   OH255366   2.578   1.019  12.284  0.4960  0.3603 -0.2276
11292TIP3    H155367   2.547   1.092  12.230  1.0121 -0.3319 -1.4973
11292TIP3    H255368   2.516   0.949  12.266  0.1491  0.3765  0.7992
11293TIP3   OH255369   1.030   0.770   4.641 -0.8376  0.4947  0.1499
11293TIP3    H155370   0.942   0.741   4.665 -0.2632 -2.1197 -0.5535
11293TIP3    H255371   1.017   0.851   4.592 -2.8372  0.2106  0.1562
11294TIP3   OH255372   4.813   3.301  16.423 -0.0334 -0.0889  1.0983
11294TIP3    H155373   4.729   3.256  16.415  0.0835 -0.6024  2.4847
11294TIP3    H255374   4.878   3.235  16.399  0.0101  0.1564  0.5233
11295TIP3   OH255375   1.403   2.308  12.094  0.4037 -0.4947  0.4041
11295TIP3    H155376   1.412   2.404  12.089  0.0905 -0.4264  1.1043
11295TIP3    H255377   1.360   2.292  12.178  1.5532 -1.3319  0.8655
11296TIP3   OH255378   5.425   2.768   0.378  0.6233 -0.0441 -0.7087
11296TIP3    H155379   5.517   2.763   0.403  0.4458 -1.2225 -0.2433
11296TIP3    H255380   5.378   2.776   0.461  0.3834  2.9920 -1.0075
11297TIP3   OH255381   2.220   0.500  12.856 -0.4906 -0.2118  0.2693
11297TIP3    H155382   2.291   0.561  12.879 -1.1620  0.2231  1.2577
11297TIP3    H255383   2.264   0.429  12.810  0.4976  0.3797  0.2596
11298TIP3   OH255384   5.014   3.366  14.055  0.2017  0.2868  0.4696
11298TIP3    H155385   4.924   3.363  14.023  0.3379  0.6177  0.0291
11298TIP3    H255386   5.067   3.356  13.976  0.5638 -1.1356  0.8628
11299TIP3   OH255387   2.347   5.949  16.124 -0.5783  0.2266 -0.6341
11299TIP3    H155388   2.417   6.000  16.164 -1.5212  1.4790 -0.4945
11299TIP3    H255389   2.390   5.870  16.091  0.9676  1.1508 -0.9301
11300TIP3   OH255390   3.383   6.222   1.626  0.3074 -0.0573 -0.2364
11300TIP3    H155391   3.354   6.188   1.541  0.1528 -1.9385  0.5178
11300TIP3    H255392   3.340   6.165   1.690 -2.7100  3.5887  1.3815
11301TIP3   OH255393   3.362   5.121  14.205  0.1569 -0.0922  0.0713
11301TIP3    H155394   3.346   5.133  14.299  1.4640 -0.1383  0.3216
11301TIP3    H255395   3.444   5.071  14.201  0.3348  0.2690 -1.0985
11302TIP3   OH255396   2.768   3.083  16.159 -0.0000  0.1707  0.6588
11302TIP3    H155397   2.825   3.121  16.225  1.2297 -0.2119 -0.1484
11302TIP3    H255398   2.723   3.159  16.119  1.5829  0.7257 -0.1686
11303TIP3   OH255399   3.808   1.436   5.899  0.5293 -0.2273  0.3925
11303TIP3    H155400   3.716   1.412   5.888  0.1963  0.0081  2.3492
11303TIP3    H255401   3.856   1.356   5.879  0.2166  0.4105 -3.8116
11304TIP3   OH255402   2.349   0.295  14.253 -0.1349 -0.0311  0.5425
11304TIP3    H155403   2.406   0.227  14.217  1.3537  1.1535  0.5348
11304TIP3    H255404   2.361   0.288  14.348  0.3556  0.4702  0.5243
11305TIP3   OH255405   2.243   1.228   4.179 -0.1615 -0.0363 -0.3273
11305TIP3    H155406   2.320   1.240   4.124  0.4062 -1.8276  0.0217
11305TIP3    H255407   2.184   1.174   4.127 -0.6154  0.1993 -0.0695
11306TIP3   OH255408   5.331   2.985   6.405 -0.5238 -0.5192  0.2069
11306TIP3    H155409   5.350   3.049   6.474  0.2640  0.1530 -0.6018
11306TIP3    H255410   5.317   3.038   6.327 -2.8085 -1.1778  0.0968
11307TIP3   OH255411   1.768   3.436   3.168  0.0097  0.2712  0.1675
11307TIP3    H155412   1.688   3.454   3.119 -0.6275 -1.3928  0.5469
11307TIP3    H255413   1.831   3.410   3.101 -0.3911 -0.4569  0.0716
11308TIP3   OH255414   1.315   1.305  15.828 -0.2977  0.0282 -0.9769
11308TIP3    H155415   1.334   1.277  15.918  2.1065 -0.0872 -1.4466
11308TIP3    H255416   1.236   1.257  15.804 -2.1967  1.5551  1.6926
11309TIP3   OH255417   4.665   2.632   5.343  0.1569  0.1007 -0.6810
11309TIP3    H155418   4.736   2.646   5.406 -1.3440  3.0454  0.5865
11309TIP3    H255419   4.707   2.633   5.258  1.5733  3.1541 -0.0601
11310TIP3   OH255420   2.549   3.621  15.438 -0.1177 -0.1985  0.2551
11310TIP3    H155421   2.611   3.688  15.411 -0.3049 -0.6719 -1.4309
11310TIP3    H255422   2.546   3.629  15.534  1.4440  0.7808  0.2613
11311TIP3   OH255423   6.024   1.733  17.294  0.0843 -0.2735 -0.0106
11311TIP3    H155424   5.963   1.731  17.367  1.6755 -1.4625  1.3773
11311TIP3    H255425   5.990   1.800  17.236 -3.3246 -1.8359 -0.0636
11312TIP3   OH255426   5.453   0.430  14.036  0.1837 -0.2671  0.4946
11312TIP3    H155427   5.402   0.481  13.973 -1.2209 -1.1181  0.8751
11312TIP3    H255428   5.529   0.399  13.987 -1.5338 -2.0408 -1.2692
11313TIP3   OH255429   1.124   4.845   2.557 -0.4051 -0.2557 -0.0501
11313TIP3    H155430   1.071   4.769   2.581  0.0340 -0.6824 -0.4266
11313TIP3    H255431   1.204   4.809   2.520  0.8652  0.3603  1.9362
11314TIP3   OH255432   6.368   0.624   5.542 -0.2894  0.0760 -0.4596
11314TIP3    H155433   6.463   0.633   5.554 -0.1720  0.2269 -1.3896
11314TIP3    H255434   6.336   0.594   5.627  0.8207 -1.6552 -0.5932
11315TIP3   OH255435   4.566   4.207  11.239 -0.0488 -0.0614  0.3399
11315TIP3    H155436   4.631   4.256  11.290 -0.8124  2.0338 -0.5877
11315TIP3    H255437   4.617   4.138  11.195  1.1483  0.1190  1.3841
11316TIP3   OH255438   5.804   3.033  11.812 -0.4137  0.3389  0.1805
11316TIP3    H155439   5.810   3.072  11.725 -2.3768  1.0257  0.2987
11316TIP3    H255440   5.724   2.982  11.810 -0.2568  0.0132  1.4511
11317TIP3   OH255441   0.145   6.731  15.003 -0.0665  0.5681  0.3130
11317TIP3    H155442   0.089   6.732  14.926  2.5753  0.5891 -1.7889
11317TIP3    H255443   0.148   6.639  15.030 -1.0732  0.5730  0.4530
11318TIP3   OH255444   4.081   5.123  11.599 -0.7381  0.2487  0.6101
11318TIP3    H155445   4.117   5.042  11.563 -0.5960  0.5026  0.1705
11318TIP3    H255446   4.064   5.178  11.522 -2.2664  0.0593  0.7938
11319TIP3   OH255447   1.640   5.082  11.847  0.6209  0.2521 -0.5549
11319TIP3    H155448   1.636   5.163  11.897  1.7655  0.8063 -1.3074
11319TIP3    H255449   1.690   5.105  11.768  1.8244 -1.4041 -0.3352
11320TIP3   OH255450   4.606   1.005  12.832  0.4552 -0.4189  0.0858
11320TIP3    H155451   4.621   1.054  12.913 -0.0845 -0.1069  0.0035
11320TIP3    H255452   4.692   1.001  12.790  0.3655  1.2741 -0.3466
11321TIP3   OH255453   4.155   1.964   3.659 -0.6461  0.1196 -0.0682
11321TIP3    H155454   4.136   1.939   3.749 -0.8023 -0.9467 -0.3856
11321TIP3    H255455   4.249   1.952   3.650 -0.8042 -0.9954 -0.3944
11322TIP3   OH255456   1.934   1.122  12.366 -0.2376  0.4777  0.1456
11322TIP3    H155457   2.021   1.096  12.397 -0.0200  0.4238 -0.4942
11322TIP3    H255458   1.947   1.212  12.333 -0.4408  0.4963  0.1164
11323TIP3   OH255459   5.872   1.715   0.987  0.5421 -0.0278 -0.3639
11323TIP3    H155460   5.915   1.793   1.021 -0.4515  0.1234  0.5991
11323TIP3    H255461   5.788   1.746   0.954 -0.1936 -0.7995  0.7477
11324TIP3   OH255462   4.628   4.948  16.386 -0.2405 -0.5593  0.1596
11324TIP3    H155463   4.572   4.874  16.410 -0.3575 -0.8112 -0.8374
11324TIP3    H255464   4.682   4.915  16.315 -0.0691  0.2180 -0.0800
11325TIP3   OH255465   1.484   2.573   5.899  0.5624  0.0494  0.7636
11325TIP3    H155466   1.472   2.653   5.847  1.5179 -0.1043  0.2847
11325TIP3    H255467   1.413   2.515   5.871  0.9520  0.0397 -0.2556
11326TIP3   OH255468   5.921   5.742  14.814 -0.3352  0.4192 -0.1157
11326TIP3    H155469   5.847   5.715  14.868  0.2633  0.8271  0.9544
11326TIP3    H255470   5.917   5.686  14.737 -0.0521 -1.6364  1.2830
11327TIP3   OH255471   2.160   2.620  16.335 -0.3889 -0.0892  0.4267
11327TIP3    H155472   2.193   2.569  16.261 -2.2382  1.1797 -1.3881
11327TIP3    H255473   2.234   2.675  16.362  1.3376 -2.8870  1.7901
11328TIP3   OH255474   1.495   2.153  16.180  0.5139 -0.0527 -0.6943
11328TIP3    H155475   1.415   2.119  16.141 -0.0055  0.7001 -0.3255
11328TIP3    H255476   1.521   2.225  16.123 -1.6844  2.7846  1.5696
11329TIP3   OH255477   4.522   5.541  15.328 -0.3880 -0.2539 -0.4124
11329TIP3    H155478   4.428   5.557  15.317 -0.1703  1.1332 -0.3509
11329TIP3    H255479   4.526   5.475  15.398 -1.3356 -1.0468 -1.0712
11330TIP3   OH255480   5.958   4.114  14.395  0.0639 -0.1006  0.1523
11330TIP3    H155481   5.890   4.148  14.454  0.1038  1.6378 -0.7385
11330TIP3    H255482   6.005   4.050  14.448  0.3027  1.6069  2.1454
11331TIP3   OH255483   0.066   2.506   5.636  0.0023 -0.0543 -0.4131
11331TIP3    H155484  -0.022   2.470   5.622 -0.7290  0.8542  1.5991
11331TIP3    H255485   0.074   2.575   5.569  0.1010 -1.5764 -2.0589
11332TIP3   OH255486   2.401   5.923   4.895 -0.2163 -0.1180  0.0709
11332TIP3    H155487   2.489   5.913   4.933 -0.9384 -0.3737  1.7913
11332TIP3    H255488   2.404   6.006   4.849  0.9524 -0.1541  0.0571
11333TIP3   OH255489   3.120   2.755   5.765 -0.4015  0.4343  0.2323
11333TIP3    H155490   3.096   2.828   5.823  0.5040  1.2821 -0.4228
11333TIP3    H255491   3.064   2.766   5.688 -1.7422 -0.8055  0.9974
11334TIP3   OH255492   5.464   1.891   5.892  0.2637  0.1261 -0.0455
11334TIP3    H155493   5.555   1.900   5.863  0.5519 -0.8501  0.4917
11334TIP3    H255494   5.414   1.948   5.833  1.2909  1.1641  0.0588
11335TIP3   OH255495   2.148   2.703   5.532  0.1965 -0.9231 -0.0961
11335TIP3    H155496   2.090   2.771   5.566  0.7995  0.3913 -1.5369
11335TIP3    H255497   2.227   2.750   5.507  1.0710 -2.3521 -0.1035
11336TIP3   OH255498   6.364   5.905   5.840  0.3977  0.6307  0.1824
11336TIP3    H155499   6.288   5.908   5.783  0.6921  3.0504 -0.1894
11336TIP3    H255500   6.329   5.884   5.926 -0.5566  0.7633 -0.1614
11337TIP3   OH255501   3.105   4.567   3.959 -0.6801 -0.4186 -0.4974
11337TIP3    H155502   3.112   4.652   3.915  1.0455 -0.8286 -1.0855
11337TIP3    H255503   3.119   4.503   3.890  0.9122 -1.0927  0.3817
11338TIP3   OH255504   4.576   6.167  15.141 -0.3101 -0.7241 -0.6056
11338TIP3    H155505   4.614   6.107  15.205  0.0445  0.8016  0.6660
11338TIP3    H255506   4.559   6.247  15.190  0.9159  0.8842 -2.6340
11339TIP3   OH255507   5.303   2.916   2.673 -0.7715 -0.2512 -0.0719
11339TIP3    H155508   5.218   2.873   2.680  0.0397 -1.9698 -0.2597
11339TIP3    H255509   5.338   2.886   2.589  0.6097 -0.7221  0.6418
11340TIP3   OH255510   5.746   2.068  16.090 -0.8925  0.2802  0.2984
11340TIP3    H155511   5.801   2.097  16.017 -2.8783  1.5287 -0.8290
11340TIP3    H255512   5.667   2.033  16.048 -1.4139 -0.4688  1.8299
11341TIP3   OH255513   2.120   5.309  13.088  0.3032 -0.3207 -0.5615
11341TIP3    H155514   2.070   5.372  13.139  0.1298  1.8735 -3.2202
11341TIP3    H255515   2.059   5.235  13.076 -0.1496 -0.2539  1.0335
11342TIP3   OH255516   2.024   0.091   1.302 -0.8192 -0.5910  0.1459
11342TIP3    H155517   1.989   0.175   1.331 -0.5954 -1.1468  2.2143
11342TIP3    H255518   2.104   0.113   1.255 -0.8598  0.3730  0.5040
11343TIP3   OH255519   6.390   0.989  11.073  0.2299  0.2413 -0.0104
11343TIP3    H155520   6.298   0.986  11.097  0.2496 -0.4989 -0.0262
11343TIP3    H255521   6.396   1.062  11.011 -0.4241 -0.0059 -0.3676
11344TIP3   OH255522   6.170   6.135  14.303 -0.3685 -0.1265  0.2597
11344TIP3    H155523   6.114   6.168  14.373 -0.9772  0.7108 -0.5939
11344TIP3    H255524   6.129   6.167  14.223  1.0266  0.0444 -0.4163
11345TIP3   OH255525   6.026   0.476   4.106  0.3871 -0.1791  0.1478
11345TIP3    H155526   5.933   0.471   4.084  0.7841 -1.2075 -1.5432
11345TIP3    H255527   6.029   0.499   4.199 -1.5170  1.6358 -0.1685
11346TIP3   OH255528   0.374   3.494   5.461  0.2806 -0.3293  0.1137
11346TIP3    H155529   0.387   3.537   5.376 -0.5794 -0.2293  0.0194
11346TIP3    H255530   0.460   3.494   5.501  0.1733  2.4013  0.5441
11347TIP3   OH255531   1.524   2.695  13.121  0.7004 -0.3061 -0.2857
11347TIP3    H155532   1.523   2.683  13.216 -0.1798 -2.4447 -0.5266
11347TIP3    H255533   1.599   2.643  13.091  1.9117  1.5581 -0.6805
11348TIP3   OH255534   5.381   6.193   2.205 -0.3365  0.0600 -0.2703
11348TIP3    H155535   5.462   6.235   2.233 -0.7149 -0.0650  1.0982
11348TIP3    H255536   5.313   6.258   2.224 -0.6923 -0.3452 -0.1508
11349TIP3   OH255537   5.684   4.555   3.135  0.3180 -0.0828 -0.2129
11349TIP3    H155538   5.600   4.514   3.153  1.0615 -1.7663 -0.4027
11349TIP3    H255539   5.731   4.553   3.218  0.5215 -0.0012 -0.3244
11350TIP3   OH255540   3.945   0.918   4.053 -0.5080 -0.1193  0.9808
11350TIP3    H155541   3.972   0.932   4.143 -2.4475  1.8419  1.3395
11350TIP3    H255542   3.997   0.980   4.002  0.2938 -0.9434  0.7644
11351TIP3   OH255543   2.526   6.125   0.835  0.5854 -0.2983 -0.8696
11351TIP3    H155544   2.478   6.049   0.866 -0.8397  0.7185 -0.4453
11351TIP3    H255545   2.572   6.095   0.757  0.6484 -1.7655 -0.2827
11352TIP3   OH255546   0.506   3.317  14.839 -0.0551 -0.1120  0.3992
11352TIP3    H155547   0.526   3.231  14.875 -0.8325  0.4999  2.4722
11352TIP3    H255548   0.411   3.324  14.844  0.0440  1.1468  1.0314
11353TIP3   OH255549   1.249   5.793   4.646  0.5643  0.3070  0.6939
11353TIP3    H155550   1.312   5.832   4.706  1.6909 -0.0610 -0.2217
11353TIP3    H255551   1.232   5.706   4.682  1.1999  0.1064  0.5255
11354TIP3   OH255552   5.524   5.960  11.980 -0.4317  0.0474 -0.4706
11354TIP3    H155553   5.573   6.021  11.925 -0.4375  1.0854  0.6554
11354TIP3    H255554   5.456   6.013  12.020 -0.2357 -0.6255  0.7941
11355TIP3   OH255555   1.389   4.255  13.566  0.3141  0.4264 -0.0725
11355TIP3    H155556   1.435   4.277  13.485  0.9147 -1.6944 -0.3770
11355TIP3    H255557   1.434   4.306  13.634  0.7122  1.1635 -0.8812
11356TIP3   OH255558   1.066   4.873   6.564 -0.3845 -0.2773  0.6325
11356TIP3    H155559   1.153   4.878   6.524 -1.1364  0.1058 -1.0703
11356TIP3    H255560   1.048   4.961   6.595 -1.0765  0.2606 -1.1622
11357TIP3   OH255561   5.493   3.065   4.823  0.5518 -0.1510 -0.5115
11357TIP3    H155562   5.520   3.131   4.888  3.1873 -1.3507 -0.2663
11357TIP3    H255563   5.513   3.106   4.739  0.1064  0.1993 -0.4498
11358TIP3   OH255564   2.544   5.692  14.711 -0.4119 -0.1002 -0.0893
11358TIP3    H155565   2.484   5.698  14.785  0.1803  1.8542  0.2761
11358TIP3    H255566   2.539   5.777  14.669  2.1208  0.1423 -0.0173
11359TIP3   OH255567   0.258   5.940   3.647  0.0849 -0.2064 -0.2995
11359TIP3    H155568   0.305   5.860   3.672  0.3107 -0.1247 -0.4525
11359TIP3    H255569   0.318   5.984   3.587  0.1990  0.3469  0.2129
11360TIP3   OH255570   6.817   3.096  14.128 -0.3017  0.3570 -0.0107
11360TIP3    H155571   6.782   3.054  14.206 -0.3504 -0.1677 -0.3119
11360TIP3    H255572   6.881   3.159  14.161 -2.6941  2.5758  0.6874
11361TIP3   OH255573   3.705   6.441   5.280  0.5750  0.1792  0.0204
11361TIP3    H155574   3.720   6.364   5.335 -0.5896  0.1801  0.3641
11361TIP3    H255575   3.651   6.409   5.208  3.8803 -0.3395 -2.4692
11362TIP3   OH255576   3.945   6.778  14.492 -0.4664 -0.5268  0.9163
11362TIP3    H155577   3.956   6.838  14.418  0.1888 -0.9877  0.6318
11362TIP3    H255578   3.961   6.691  14.455 -2.9626 -1.0764  0.9682
11363TIP3   OH255579   0.867   0.432   2.746  0.5292 -0.1130 -0.0425
11363TIP3    H155580   0.917   0.477   2.678  0.6499 -1.2940 -0.7653
11363TIP3    H255581   0.903   0.465   2.828  1.0745  0.5847 -0.5552
11364TIP3   OH255582   3.215   4.556  16.561 -0.5542  0.5367  0.6387
11364TIP3    H155583   3.190   4.603  16.640 -0.8471 -1.4984  1.8408
11364TIP3    H255584   3.267   4.482  16.593 -0.9851 -0.5408 -1.0300
11365TIP3   OH255585   6.261   1.031  11.949  0.1763 -0.1451  0.3710
11365TIP3    H155586   6.332   1.060  12.007  1.5898 -2.1307 -0.2502
11365TIP3    H255587   6.192   1.096  11.961  2.0905  1.8865  0.9969
11366TIP3   OH255588   4.144   3.617   6.712  0.2874  0.3632 -0.0123
11366TIP3    H155589   4.143   3.523   6.694 -0.3348  0.0225  1.6256
11366TIP3    H255590   4.210   3.652   6.652 -1.4571 -0.6374 -2.7143
11367TIP3   OH255591   3.838   0.170  17.007 -0.5372 -0.3631  0.0211
11367TIP3    H155592   3.904   0.140  17.069  0.1829  2.5729  0.8548
11367TIP3    H255593   3.785   0.093  16.988  1.6116 -2.2508  1.2454
11368TIP3   OH255594   3.294   1.290  11.396  0.5202 -0.0854  0.6535
11368TIP3    H155595   3.302   1.273  11.302  0.7164 -1.5538  0.9120
11368TIP3    H255596   3.199   1.289  11.412  0.2619  3.3256 -0.0196
11369TIP3   OH255597   6.298   6.292  13.703 -0.1451  0.3982  0.6782
11369TIP3    H155598   6.241   6.281  13.627 -1.7661  2.8026  1.4048
11369TIP3    H255599   6.379   6.330  13.668 -0.8166  1.3407  0.0926
11370TIP3   OH255600   1.000   2.847  11.060 -0.3550  0.3992 -0.0844
11370TIP3    H155601   1.043   2.841  10.975  0.0108  3.0716 -0.1863
11370TIP3    H255602   0.922   2.901  11.044 -0.7843  0.1788  1.1082
11371TIP3   OH255603   0.576   3.541   1.996  0.2246  0.0282 -0.7459
11371TIP3    H155604   0.482   3.547   1.980 -0.2414 -1.1837  1.2092
11371TIP3    H255605   0.606   3.472   1.938 -0.5486 -1.1485  0.2134
11372TIP3   OH255606   4.862   1.215   3.891  0.2345  0.0942  0.1119
11372TIP3    H155607   4.772   1.186   3.876  0.3460 -0.6953  0.9255
11372TIP3    H255608   4.862   1.249   3.981  0.0418  2.9157 -0.8575
11373TIP3   OH255609   3.271   5.609   1.204  0.4842 -0.3873  0.0243
11373TIP3    H155610   3.307   5.566   1.126  0.5048  1.8798 -1.3049
11373TIP3    H255611   3.334   5.590   1.273  1.0463 -1.5272 -0.7680
11374TIP3   OH255612   2.200   5.366  14.225  0.2812 -0.0022  0.0106
11374TIP3    H155613   2.109   5.340  14.209  0.3024  0.3867 -0.8087
11374TIP3    H255614   2.222   5.423  14.151  0.6769  1.2081  1.0313
11375TIP3   OH255615   3.313   3.590   4.797  0.5672  0.5259 -0.0764
11375TIP3    H155616   3.238   3.547   4.756  0.3898  0.4737  0.3013
11375TIP3    H255617   3.338   3.533   4.869  1.7841 -0.1151 -0.9682
11376TIP3   OH255618   6.522   1.740   2.739 -0.1802  0.2901 -0.0294
11376TIP3    H155619   6.571   1.669   2.697  0.9188  0.8386  0.2711
11376TIP3    H255620   6.501   1.707   2.826  0.8618  0.5221  0.3343
11377TIP3   OH255621   6.690   4.185   5.552  0.0873  0.7991  0.0359
11377TIP3    H155622   6.611   4.147   5.515  0.0493 -0.0054  0.9131
11377TIP3    H255623   6.661   4.229   5.631  0.7208 -0.9951  1.3407
11378TIP3   OH255624   2.069   3.464   5.672  1.1732  0.0090 -0.0258
11378TIP3    H155625   1.983   3.440   5.638 -0.2768 -0.7712  3.6586
11378TIP3    H255626   2.097   3.538   5.618 -1.5507 -0.0534 -1.7085
11379TIP3   OH255627   4.223   5.301   3.819 -0.1853 -0.0532  0.5882
11379TIP3    H155628   4.288   5.333   3.881  0.6342 -0.3471 -0.1151
11379TIP3    H255629   4.270   5.241   3.762 -0.5096  1.5215 -1.4282
11380TIP3   OH255630   6.114   3.530   2.566  0.0763  0.3959 -0.4241
11380TIP3    H155631   6.160   3.521   2.482  0.8092  0.9716 -0.0995
11380TIP3    H255632   6.061   3.451   2.573  0.2406  0.1959 -1.2918
11381TIP3   OH255633   4.855   2.332  14.695 -0.1160  0.2760  0.3256
11381TIP3    H155634   4.903   2.343  14.613 -0.3250 -2.0924 -0.1905
11381TIP3    H255635   4.889   2.401  14.752  1.9431  0.3691 -0.9026
11382TIP3   OH255636   0.381   3.333  15.931  0.6100 -0.0242 -0.4128
11382TIP3    H155637   0.355   3.242  15.911  1.0067 -0.2457  0.0711
11382TIP3    H255638   0.473   3.327  15.955  0.0424  0.1320  2.0260
11383TIP3   OH255639   5.568   5.294  11.146  0.6326  0.3975 -0.0894
11383TIP3    H155640   5.527   5.323  11.065  3.1865 -0.2390 -1.7274
11383TIP3    H255641   5.529   5.208  11.164 -1.7540  1.5960  0.8299
11384TIP3   OH255642   3.326   2.816   5.518 -0.8892  0.0033  0.2108
11384TIP3    H155643   3.293   2.899   5.553  0.6559  0.5257  0.5358
11384TIP3    H255644   3.408   2.802   5.565 -0.5707 -1.1343 -0.6569
11385TIP3   OH255645   6.556   4.468   4.890  0.0524  0.2044 -0.2474
11385TIP3    H155646   6.555   4.374   4.911 -2.7117  0.0519 -0.6628
11385TIP3    H255647   6.557   4.472   4.795  1.4103  0.6585 -0.2316
11386TIP3   OH255648   2.265   5.367  12.429 -0.0339 -0.6276 -0.2067
11386TIP3    H155649   2.224   5.285  12.454  1.6732 -1.1332  1.1492
11386TIP3    H255650   2.351   5.365  12.472 -0.4907  2.5276  1.1420
11387TIP3   OH255651   5.101   4.888   0.491 -0.4470  0.6169  0.1642
11387TIP3    H155652   5.120   4.951   0.560  0.2115  0.8388 -0.2087
11387TIP3    H255653   5.111   4.803   0.534 -1.4177  0.7588  0.6872
11388TIP3   OH255654   1.432   6.436  11.438 -0.0096  0.8261 -0.3476
11388TIP3    H155655   1.404   6.413  11.349 -1.4487 -3.9688  1.0501
11388TIP3    H255656   1.354   6.473  11.479  0.0234  1.0188 -0.4559
11389TIP3   OH255657   5.927   5.595   2.278 -0.1974  0.4422  0.1760
11389TIP3    H155658   5.972   5.510   2.281 -0.9139  0.0357 -0.3579
11389TIP3    H255659   5.985   5.654   2.327  0.9452 -0.0609 -0.5209
11390TIP3   OH255660   0.147   1.230   4.467  0.0736  0.2484 -0.4540
11390TIP3    H155661   0.104   1.306   4.425 -1.9263 -1.2126 -1.2321
11390TIP3    H255662   0.198   1.268   4.538 -0.5936  2.3679 -1.0165
11391TIP3   OH255663   4.527   2.324  16.471 -0.0629  0.3085  0.2868
11391TIP3    H155664   4.617   2.353  16.490 -0.0752  1.3330 -1.1020
11391TIP3    H255665   4.535   2.230  16.456  0.5275  0.1260  1.5618
11392TIP3   OH255666   0.272   2.663   2.977 -0.1419  0.4881  0.2122
11392TIP3    H155667   0.210   2.729   3.009 -0.4975 -0.1186  0.8203
11392TIP3    H255668   0.217   2.594   2.941  0.1821  0.0899  0.4632
11393TIP3   OH255669   1.694   0.971  16.933 -0.3942 -0.0186  0.9255
11393TIP3    H155670   1.785   0.984  16.960 -0.6949 -1.0772  2.5933
11393TIP3    H255671   1.663   1.059  16.910  2.0718 -0.0047 -3.5094
11394TIP3   OH255672   4.580   3.526   4.885  0.4641 -0.4631 -0.3598
11394TIP3    H155673   4.575   3.599   4.824 -1.4678  0.0803  0.3534
11394TIP3    H255674   4.654   3.474   4.855  2.0943  1.9199 -0.7136
11395TIP3   OH255675   4.625   5.950  14.104  0.2369 -0.6453  0.5308
11395TIP3    H155676   4.626   5.990  14.017  1.0147  0.5045  1.0314
11395TIP3    H255677   4.551   5.889  14.102 -0.8510  0.6356 -0.3657
11396TIP3   OH255678   5.807   5.577  11.486 -0.0907  0.3241 -0.0200
11396TIP3    H155679   5.897   5.598  11.513  0.2770  0.8771 -1.5960
11396TIP3    H255680   5.769   5.661  11.462 -0.9362  0.0419  0.2950
11397TIP3   OH255681   3.744   2.737  14.381 -0.0812  0.2354 -0.0235
11397TIP3    H155682   3.763   2.719  14.289 -0.9420 -1.5970  0.1024
11397TIP3    H255683   3.668   2.795  14.380  0.0170  0.3564 -0.4612
11398TIP3   OH255684   2.772   6.304  13.054 -0.0149 -0.0707 -0.8294
11398TIP3    H155685   2.704   6.244  13.024 -1.5662  1.0928  0.1886
11398TIP3    H255686   2.768   6.378  12.993  0.5607 -0.1486 -0.9628
11399TIP3   OH255687   0.674   2.490   1.587  0.5184 -0.2465  0.0081
11399TIP3    H155688   0.624   2.456   1.662 -0.1019 -1.9220 -1.0962
11399TIP3    H255689   0.636   2.576   1.570  0.7600  0.2319  1.6661
11400TIP3   OH255690   1.287   0.773  17.017  0.2053 -0.8250 -0.3494
11400TIP3    H155691   1.338   0.706  17.061  0.8574 -0.4971 -0.5924
11400TIP3    H255692   1.320   0.774  16.927  1.4558  0.9967  0.0644
11401TIP3   OH255693   1.734   0.824  16.074  0.2528  0.2543  0.2555
11401TIP3    H155694   1.825   0.806  16.097  0.5169  0.1549 -0.8428
11401TIP3    H255695   1.735   0.840  15.980 -0.9392 -0.2322  0.1422
11402TIP3   OH255696   5.399   5.900   4.757  0.2991  0.3880 -0.5555
11402TIP3    H155697   5.323   5.920   4.811  0.9458 -0.9218  0.9144
11402TIP3    H255698   5.384   5.810   4.727  0.7694  0.4997 -1.1553
11403TIP3   OH255699   4.696   5.932   0.949  0.9650  0.5601  0.2350
11403TIP3    H155700   4.679   5.976   1.033  0.7664  0.8116  0.0619
11403TIP3    H255701   4.782   5.891   0.962  1.3185  1.2964  0.2764
11404TIP3   OH255702   0.589   5.329  14.898  0.0707  0.3988 -0.4137
11404TIP3    H155703   0.671   5.357  14.937 -0.1311  0.0626  0.2594
11404TIP3    H255704   0.576   5.240  14.929 -0.6955  0.5531 -0.2754
11405TIP3   OH255705   2.838   1.372   0.040  0.0070 -0.1649  0.2252
11405TIP3    H155706   2.790   1.454   0.056 -0.7083 -0.4083 -0.5854
11405TIP3    H255707   2.803   1.310   0.104 -0.8485 -0.3669 -0.4254
11406TIP3   OH255708   3.648   2.406   1.414  0.3935  0.1913 -0.4866
11406TIP3    H155709   3.591   2.482   1.424 -0.2834 -0.4076  0.4000
11406TIP3    H255710   3.682   2.412   1.325 -0.7831  0.7613 -0.9074
11407TIP3   OH255711   0.983   6.494   0.967 -0.0050  0.4847 -0.0231
11407TIP3    H155712   0.921   6.458   0.904 -0.5289  1.7311 -0.2637
11407TIP3    H255713   1.014   6.419   1.016  0.2987 -0.5013 -1.6595
11408TIP3   OH255714   1.999   1.032   0.074 -0.0844 -0.3321 -0.7153
11408TIP3    H155715   2.050   0.961   0.113 -0.4869 -0.1811  0.1299
11408TIP3    H255716   2.054   1.109   0.086 -0.7159 -0.0642  0.7317
11409TIP3   OH255717   4.727   6.721  17.267 -0.2168  0.3917 -0.3460
11409TIP3    H155718   4.655   6.680  17.315 -0.4018  2.2519  1.1065
11409TIP3    H255719   4.802   6.663  17.282 -0.6835  0.0484  0.7722
11410TIP3   OH255720   1.530   5.386  12.414 -0.1825 -0.8550  0.5411
11410TIP3    H155721   1.596   5.398  12.482  0.3926 -0.0158 -0.1377
11410TIP3    H255722   1.570   5.323  12.353  0.8720  1.0915 -0.8904
11411TIP3   OH255723   6.110   3.454   3.290  0.0865  0.0758  0.4913
11411TIP3    H155724   6.119   3.540   3.250  1.1805 -0.3864 -0.2845
11411TIP3    H255725   6.163   3.459   3.370 -0.4574  0.3425  0.8475
11412TIP3   OH255726   2.580   5.527   3.089  0.1160 -0.2487 -0.0688
11412TIP3    H155727   2.562   5.621   3.091  1.4039  0.1082 -1.8836
11412TIP3    H255728   2.657   5.516   3.145 -0.5088 -0.3676  0.7789
11413TIP3   OH255729   0.277   5.905  15.487 -0.0585 -0.0073  0.3502
11413TIP3    H155730   0.188   5.879  15.512 -0.0175  0.0426  0.5548
11413TIP3    H255731   0.330   5.881  15.563  0.1226 -0.1543  0.1775
11414TIP3   OH255732   0.658   4.039  12.859  0.3500 -0.4114  0.2510
11414TIP3    H155733   0.711   3.997  12.928  1.0754 -2.4305 -1.4405
11414TIP3    H255734   0.698   4.125  12.848  1.8679 -1.0439  0.5710
11415TIP3   OH255735   1.760   4.466   4.993  0.1415 -0.3045 -0.7339
11415TIP3    H155736   1.756   4.561   5.002  1.0643 -0.2271 -1.0054
11415TIP3    H255737   1.697   4.433   5.057 -1.8317  0.5259 -2.1482
11416TIP3   OH255738   1.002   2.182  13.991 -0.2088 -0.1800  0.7302
11416TIP3    H155739   1.019   2.132  14.070  0.5447  2.0022  2.0252
11416TIP3    H255740   1.085   2.183  13.944 -0.2479 -0.2394  0.6597
11417TIP3   OH255741   3.534   1.156  13.454 -0.6449 -0.4549 -1.0103
11417TIP3    H155742   3.556   1.074  13.409 -2.3166 -1.1376 -0.6505
11417TIP3    H255743   3.507   1.129  13.541  0.8235  0.7113 -0.1509
11418TIP3   OH255744   1.557   6.457   5.452 -0.0382 -0.7074  0.8121
11418TIP3    H155745   1.518   6.371   5.468  0.3678 -1.5197 -2.0256
11418TIP3    H255746   1.490   6.505   5.404  0.0891  0.2725  1.5764
11419TIP3   OH255747   0.469   2.279  13.450 -0.6003 -0.1397 -0.4340
11419TIP3    H155748   0.554   2.246  13.481  0.0045  0.7049 -1.1164
11419TIP3    H255749   0.474   2.271  13.355 -1.7357 -1.0880 -0.4317
11420TIP3   OH255750   5.365   6.748  13.402 -0.0965  0.3344  0.0785
11420TIP3    H155751   5.371   6.804  13.324 -1.0152 -0.4242 -0.5578
11420TIP3    H255752   5.415   6.795  13.469  3.2764 -0.3671 -1.7514
11421TIP3   OH255753   0.621   5.379   3.906  0.1507 -0.0220  0.6605
11421TIP3    H155754   0.652   5.435   3.978 -1.0733  1.0079  0.4220
11421TIP3    H255755   0.626   5.435   3.829 -0.2825 -0.5333  0.2551
11422TIP3   OH255756   4.832   0.751  13.944  0.1192  0.1607  0.4763
11422TIP3    H155757   4.862   0.761  13.854 -0.7172  0.3245  0.2066
11422TIP3    H255758   4.842   0.658  13.963 -0.5827 -0.0388 -0.1079
11423TIP3   OH255759   5.461   2.058  10.702  0.4523  0.1243  0.2199
11423TIP3    H155760   5.492   2.011  10.779 -1.6983 -0.6726  0.6729
11423TIP3    H255761   5.529   2.043  10.636  2.5227  1.1269  1.9815
11424TIP3   OH255762   2.290   2.489  16.130 -0.2824  0.4126  0.2765
11424TIP3    H155763   2.356   2.528  16.073  2.4552 -2.2905  1.2956
11424TIP3    H255764   2.250   2.420  16.077 -2.0927  1.7240 -0.1760
11425TIP3   OH255765   1.480   3.992   0.202  0.0298  0.2196 -0.1187
11425TIP3    H155766   1.432   4.051   0.143  0.8788  1.1913  0.1385
11425TIP3    H255767   1.433   3.998   0.285  0.4544  1.0087  0.0743
11426TIP3   OH255768   3.771   5.884   0.573  0.1985  0.3981  0.3705
11426TIP3    H155769   3.823   5.822   0.624 -1.3943  0.8058  2.5956
11426TIP3    H255770   3.803   5.872   0.483  1.4795 -2.0392  1.0382
11427TIP3   OH255771   5.468   2.424   5.811  1.0369 -0.6935  0.4443
11427TIP3    H155772   5.499   2.508   5.775  0.0792 -0.3323  0.4102
11427TIP3    H255773   5.373   2.428   5.800  1.0824 -2.4956 -1.0941
11428TIP3   OH255774   4.645   5.249  11.207 -0.8939  0.6614 -0.6054
11428TIP3    H155775   4.645   5.342  11.231 -2.2237  1.0353 -1.8776
11428TIP3    H255776   4.572   5.241  11.145  1.1419 -0.6054 -2.9787
11429TIP3   OH255777   0.790   6.580  16.463 -0.2422  0.3398  0.0178
11429TIP3    H155778   0.716   6.601  16.520 -1.9426 -0.4605 -1.7867
11429TIP3    H255779   0.818   6.492  16.491 -0.0950  0.5488  0.5442
11430TIP3   OH255780   6.635   4.002  10.236  0.4993 -0.2230 -0.0036
11430TIP3    H155781   6.544   4.012  10.209  1.4283 -1.5335 -4.3704
11430TIP3    H255782   6.669   4.092  10.241 -0.5145  0.1865 -0.3511
11431TIP3   OH255783   5.135   2.179   5.633 -0.3586 -0.5148  0.2475
11431TIP3    H155784   5.063   2.174   5.571 -0.4601  2.3190 -0.0079
11431TIP3    H255785   5.202   2.122   5.596 -0.7859  0.3052 -1.9701
11432TIP3   OH255786   1.069   5.935   6.044  0.1867  0.5117  0.0853
11432TIP3    H155787   1.036   5.993   5.974  0.6299 -1.2033 -1.6243
11432TIP3    H255788   1.150   5.898   6.008  0.3873 -0.5047  1.5074
11433TIP3   OH255789   6.563   3.645   1.849  0.1920  0.3309 -0.1714
11433TIP3    H155790   6.518   3.598   1.779  0.3673 -0.3858  0.1791
11433TIP3    H255791   6.567   3.736   1.820  0.8846 -0.0775 -1.4068
11434TIP3   OH255792   2.121   3.322   2.950 -0.0697  0.6577  0.0361
11434TIP3    H155793   2.074   3.406   2.956 -2.5104 -0.6984  1.4394
11434TIP3    H255794   2.094   3.274   3.027  2.6280 -0.8440  0.1647
11435TIP3   OH255795   2.802   3.138  14.982  0.3462  0.5156  0.0440
11435TIP3    H155796   2.724   3.122  15.035 -2.0132  4.6265 -1.7756
11435TIP3    H255797   2.780   3.104  14.895  0.5266  1.6661 -0.4749
11436TIP3   OH255798   4.476   0.107   2.922 -0.0428 -0.2087 -0.5477
11436TIP3    H155799   4.488   0.177   2.858  1.0003 -0.2719 -0.4406
11436TIP3    H255800   4.525   0.033   2.886 -1.1859 -0.9061 -0.6886
11437TIP3   OH255801   5.725   3.317  13.862  0.0024  0.6326 -0.5292
11437TIP3    H155802   5.739   3.307  13.768 -0.6783  2.0560 -0.8004
11437TIP3    H255803   5.696   3.231  13.891 -2.7973  0.9116 -2.1865
11438TIP3   OH255804   1.493   4.645  11.699  0.0681  0.1932  0.1887
11438TIP3    H155805   1.459   4.567  11.742 -0.5399  0.4984  0.2788
11438TIP3    H255806   1.483   4.715  11.764 -0.0116  0.4742 -0.1198
11439TIP3   OH255807   3.642   2.648  10.805 -0.2710 -0.5676 -0.4808
11439TIP3    H155808   3.685   2.689  10.730 -0.5083 -2.4014 -1.7054
11439TIP3    H255809   3.582   2.715  10.838 -0.4958  0.1518 -2.2416
11440TIP3   OH255810   1.140   0.805   4.908  0.3757 -0.1291 -0.1357
11440TIP3    H155811   1.092   0.808   4.825 -0.2853 -3.2497  0.0146
11440TIP3    H255812   1.074   0.817   4.975  0.4316 -0.5066 -0.0109
11441TIP3   OH255813   3.830   2.987  15.951  0.0580 -0.0766  0.0504
11441TIP3    H155814   3.926   2.982  15.952  0.0034 -1.8337  1.2563
11441TIP3    H255815   3.803   2.932  16.025 -1.8115  2.6513  1.5625
11442TIP3   OH255816   2.629   0.954   5.012 -0.0860  0.4585 -0.2617
11442TIP3    H155817   2.681   1.019   5.060  3.9158 -0.4975 -2.8200
11442TIP3    H255818   2.593   1.002   4.938  0.3575  0.3585 -0.5422
11443TIP3   OH255819   3.269   3.959   3.328 -0.3998 -0.2003  0.3722
11443TIP3    H155820   3.317   3.897   3.383  1.7642  0.6677 -0.4045
11443TIP3    H255821   3.290   4.045   3.365  0.6254  0.3573 -1.3882
11444TIP3   OH255822   1.722   6.413  10.954 -0.0841 -0.2344 -0.8856
11444TIP3    H155823   1.777   6.335  10.960  0.6836  0.1509 -2.3166
11444TIP3    H255824   1.653   6.389  10.892 -1.0765 -0.4414  0.2722
11445TIP3   OH255825   1.633   0.276  17.136  0.1738 -0.3845 -0.0191
11445TIP3    H155826   1.560   0.318  17.182 -0.0129 -0.0672 -0.5916
11445TIP3    H255827   1.695   0.347  17.121  0.6100 -0.6570  0.4735
11446TIP3   OH255828   2.249   1.496   0.548 -0.2972 -0.3988  0.0758
11446TIP3    H155829   2.179   1.497   0.483 -0.8049 -1.0899  0.6052
11446TIP3    H255830   2.243   1.581   0.591 -0.8006 -0.4456  0.1052
11447TIP3   OH255831   3.150   0.590  16.490 -0.7294 -0.0644 -0.3548
11447TIP3    H155832   3.235   0.601  16.448 -0.9765 -3.0783 -1.9611
11447TIP3    H255833   3.171   0.558  16.578 -0.2585  1.6491  0.2052
11448TIP3   OH255834   1.547   4.414  13.725  0.0066  0.2666 -0.3793
11448TIP3    H155835   1.627   4.362  13.715 -0.4866 -0.9097  1.3660
11448TIP3    H255836   1.555   4.454  13.811 -0.3333  1.9265 -1.0776
11449TIP3   OH255837   2.056   1.294  17.114 -0.1813  0.2600 -0.5272
11449TIP3    H155838   2.051   1.254  17.028  1.0893 -0.5884 -0.2389
11449TIP3    H255839   2.143   1.333  17.117 -0.4907  0.9320  0.1077
11450TIP3   OH255840   1.151   5.173  11.853 -0.0137 -0.2757  0.4422
11450TIP3    H155841   1.131   5.266  11.864  0.5262 -0.1294  0.2113
11450TIP3    H255842   1.166   5.162  11.760  0.0619 -0.5715  0.4874
11451TIP3   OH255843   3.348   4.466   0.278 -0.2542  0.8142 -0.6353
11451TIP3    H155844   3.291   4.473   0.202 -0.2419  0.3585 -0.6898
11451TIP3    H255845   3.422   4.413   0.247  0.1000  1.2290 -0.5098
11452TIP3   OH255846   2.989   0.124  14.906  0.4778  0.5065 -0.5677
11452TIP3    H155847   2.966   0.211  14.940 -1.6236  0.3965 -1.5412
11452TIP3    H255848   3.079   0.109  14.936  0.2102  2.1816  1.2896
11453TIP3   OH255849   0.733   2.869   3.983 -0.9988  0.3570 -0.1796
11453TIP3    H155850   0.654   2.841   4.028  0.4940 -1.3148  1.6053
11453TIP3    H255851   0.759   2.795   3.929 -0.7668  0.9661 -0.9236
11454TIP3   OH255852   1.311   0.944  14.820  0.0721 -0.3207  0.3227
11454TIP3    H155853   1.389   0.888  14.812  1.3278  1.4478 -0.6417
11454TIP3    H255854   1.317   1.003  14.745 -1.2349  1.0444  1.2378
11455TIP3   OH255855   1.461   0.058   0.124  0.0594  0.3564 -0.4176
11455TIP3    H155856   1.401   0.075   0.051 -2.5832  0.5334  1.6404
11455TIP3    H255857   1.404   0.034   0.197  2.7326 -4.7797  0.4488
11456TIP3   OH255858   5.921   1.315   2.841  0.3010  0.2377  0.3307
11456TIP3    H155859   5.988   1.257   2.806 -0.7421 -0.3364 -0.7867
11456TIP3    H255860   5.892   1.272   2.922 -0.2379 -0.6521 -0.3210
11457TIP3   OH255861   4.753   5.685   0.393 -0.2826  0.8026 -0.3563
11457TIP3    H155862   4.669   5.669   0.349 -0.0952  3.4796 -1.8878
11457TIP3    H255863   4.729   5.728   0.475 -0.5181 -2.2469  1.3071
11458TIP3   OH255864   3.725   2.794   3.520  0.0503 -0.6174 -0.1878
11458TIP3    H155865   3.701   2.839   3.601  1.3056  0.3454 -0.3246
11458TIP3    H255866   3.817   2.769   3.532 -0.0045 -1.2609 -0.9733
11459TIP3   OH255867   5.472   6.799   3.382  0.3837 -0.0186  0.5681
11459TIP3    H155868   5.419   6.747   3.442  0.2086 -0.6229 -0.0923
11459TIP3    H255869   5.465   6.753   3.298  2.6229 -0.5682  0.6390
11460TIP3   OH255870   2.609   1.100  12.536  0.6661  0.3141 -0.3172
11460TIP3    H155871   2.660   1.173  12.500  1.3110 -0.0090 -0.0679
11460TIP3    H255872   2.590   1.044  12.460  2.7951 -0.8383 -0.0758
11461TIP3   OH255873   2.357   0.100   5.272 -0.6722  0.6536  0.4457
11461TIP3    H155874   2.323   0.080   5.185 -0.0861 -0.0793  0.3722
11461TIP3    H255875   2.398   0.186   5.263  0.7639 -0.0857 -0.4230
11462TIP3   OH255876   3.537   1.302   6.724 -0.3556  0.1082 -0.5107
11462TIP3    H155877   3.542   1.388   6.766 -0.0423  0.5112 -1.3615
11462TIP3    H255878   3.448   1.272   6.740  0.0215 -0.1929  1.2957
11463TIP3   OH255879   6.700   5.629  12.793  0.0777 -0.4109  0.5808
11463TIP3    H155880   6.684   5.565  12.723  0.9288 -0.9276  0.8370
11463TIP3    H255881   6.793   5.650  12.785  0.2650 -0.7106  1.7344
11464TIP3   OH255882   5.339   3.119  11.930  0.2282  0.3315 -0.0024
11464TIP3    H155883   5.411   3.058  11.913 -0.0607  0.4299 -1.7811
11464TIP3    H255884   5.303   3.139  11.843 -0.8390  1.6333  0.6932
11465TIP3   OH255885   4.033   1.158   0.270  0.1337  0.1251  0.8507
11465TIP3    H155886   4.015   1.187   0.360 -1.7312 -0.0030  0.5454
11465TIP3    H255887   3.999   1.228   0.215  0.0281 -0.4239  0.2042
11466TIP3   OH255888   4.021   0.271   4.119  0.3418  0.1555 -0.5208
11466TIP3    H155889   3.954   0.252   4.053 -0.1789 -1.4482  0.4280
11466TIP3    H255890   4.081   0.196   4.115  1.0075  0.6448 -0.0127
11467TIP3   OH255891   6.287   2.359  11.025  0.0190 -0.3492  0.5562
11467TIP3    H155892   6.206   2.308  11.035 -0.1163 -0.1803  0.3153
11467TIP3    H255893   6.322   2.331  10.941  0.4346 -0.7342  0.8507
11468TIP3   OH255894   1.007   2.050   5.739  0.1889 -0.0398  0.3924
11468TIP3    H155895   1.000   2.129   5.687  2.4511  0.1187  0.2086
11468TIP3    H255896   0.935   1.994   5.709 -0.7562  1.4833 -0.2667
11469TIP3   OH255897   4.200   5.571  12.098 -0.2933 -0.1715  0.1053
11469TIP3    H155898   4.240   5.512  12.034  0.7839  2.4143 -1.7844
11469TIP3    H255899   4.113   5.534  12.113 -0.4332 -1.1439 -2.5460
11470TIP3   OH255900   0.858   1.231   1.368  0.0408 -0.1239 -0.4217
11470TIP3    H155901   0.832   1.181   1.291 -0.1312 -0.5381 -0.0994
11470TIP3    H255902   0.776   1.267   1.402  0.1546  0.3132 -0.6061
11471TIP3   OH255903   5.722   1.521  12.647  0.0315  0.7420  0.4886
11471TIP3    H155904   5.657   1.590  12.657 -0.1652  0.7337 -0.6616
11471TIP3    H255905   5.695   1.454  12.710 -1.3317  0.5550 -0.2508
11472TIP3   OH255906   1.710   4.664  10.815  0.4140 -0.4975  0.4533
11472TIP3    H155907   1.743   4.604  10.883  2.5946 -0.5395 -0.5635
11472TIP3    H255908   1.787   4.715  10.789 -0.2042 -0.8601 -2.3662
11473TIP3   OH255909   2.407   6.678   2.506  0.0310 -0.5294  0.6051
11473TIP3    H155910   2.471   6.744   2.481 -0.9132  0.4684  0.7827
11473TIP3    H255911   2.352   6.668   2.429  0.4447 -1.4688  0.4155
11474TIP3   OH255912   2.996   2.024  15.104 -0.4708 -0.8032 -0.4432
11474TIP3    H155913   3.030   2.065  15.184  0.1650 -1.0039 -0.6121
11474TIP3    H255914   2.996   1.930  15.123 -0.2215 -0.8592 -0.7172
11475TIP3   OH255915   5.212   4.976  15.842  0.9565 -0.5912 -0.9339
11475TIP3    H155916   5.154   5.032  15.894  0.1168 -2.1360 -0.1330
11475TIP3    H255917   5.156   4.943  15.771  1.1551 -1.1987 -0.8179
11476TIP3   OH255918   5.968   2.747   2.262 -0.2188 -0.2840 -0.1847
11476TIP3    H155919   5.911   2.671   2.254 -1.7183  0.7013  0.5502
11476TIP3    H255920   5.950   2.799   2.184 -1.8791  0.9780  0.9689
11477TIP3   OH255921   2.580   0.612  12.710  0.1519  0.2420 -0.0154
11477TIP3    H155922   2.547   0.526  12.735 -0.7822  1.2363  2.4641
11477TIP3    H255923   2.649   0.631  12.774  1.8771  0.5033 -1.8377
11478TIP3   OH255924   0.079   1.362   2.863  0.3672 -0.8313  0.1342
11478TIP3    H155925   0.101   1.286   2.916  1.6800 -1.7023 -1.5591
11478TIP3    H255926   0.015   1.329   2.800  0.1512 -0.2614  0.0541
11479TIP3   OH255927   1.972   3.295  15.072  0.2658  0.0455  0.0123
11479TIP3    H155928   2.015   3.261  14.993  1.5451  2.0539 -0.2169
11479TIP3    H255929   1.879   3.274  15.059  0.5108 -0.1047 -1.8048
11480TIP3   OH255930   3.020   1.942   2.908 -0.4217  0.2493  0.6812
11480TIP3    H155931   3.087   1.947   2.976 -0.6849 -0.6009  1.0047
11480TIP3    H255932   3.062   1.895   2.836  0.2241  2.0794 -0.2096
11481TIP3   OH255933   3.154   0.310  15.535 -0.1929 -0.2256  0.2936
11481TIP3    H155934   3.071   0.291  15.579  0.5403 -3.8386  0.4482
11481TIP3    H255935   3.171   0.231  15.483  1.9941  1.4026 -1.6398
11482TIP3   OH255936   3.784   1.033   5.462  0.0927  0.0810 -0.2477
11482TIP3    H155937   3.764   1.095   5.391  0.0898 -0.2705 -0.5571
11482TIP3    H255938   3.878   1.016   5.452 -0.1832 -1.0767 -1.0746
11483TIP3   OH255939   0.429   0.197  14.844  0.1772 -0.3144  0.7185
11483TIP3    H155940   0.449   0.203  14.938 -0.0342 -2.1725  0.9386
11483TIP3    H255941   0.354   0.137  14.840  0.7153 -0.9318 -0.6836
11484TIP3   OH255942   5.233   2.090   2.014 -0.2047 -0.0616  0.4268
11484TIP3    H155943   5.327   2.108   2.012 -0.0911 -0.6546 -1.2349
11484TIP3    H255944   5.206   2.094   1.922 -1.3443 -2.1439  0.6005
11485TIP3   OH255945   4.590   6.627  16.701  0.1007  0.0968 -0.5312
11485TIP3    H155946   4.501   6.599  16.722  0.3061 -0.1330  0.0599
11485TIP3    H255947   4.639   6.616  16.783  0.6086  0.4842 -0.7741
11486TIP3   OH255948   6.659   0.596  16.357 -0.2377 -0.0083 -0.0250
11486TIP3    H155949   6.668   0.503  16.380 -0.7771 -0.4829 -1.6024
11486TIP3    H255950   6.749   0.624  16.338 -0.2515 -0.7237 -1.2842
11487TIP3   OH255951   6.266   1.750  12.411 -0.4617  0.3050  0.3820
11487TIP3    H155952   6.268   1.821  12.348 -0.4910  0.3992  0.4857
11487TIP3    H255953   6.355   1.747  12.447 -0.3144 -0.0616 -0.0054
11488TIP3   OH255954   4.557   6.396   2.336  0.3585  0.1208 -0.6796
11488TIP3    H155955   4.504   6.346   2.274 -0.8077 -0.6270  0.8416
11488TIP3    H255956   4.619   6.332   2.371  0.6390  0.3981 -0.6710
11489TIP3   OH255957   1.031   2.033   6.143  0.1343  0.3769 -0.0323
11489TIP3    H155958   0.971   1.958   6.140  0.6123 -0.0730  1.0839
11489TIP3    H255959   1.085   2.024   6.065 -0.4458  0.1084 -0.4130
11490TIP3   OH255960   3.040   4.790   0.905  0.0810  0.4055  0.2056
11490TIP3    H155961   3.040   4.877   0.864 -1.3488 -0.1676 -1.1297
11490TIP3    H255962   2.955   4.785   0.949 -0.7331 -1.0141 -1.4168
11491TIP3   OH255963   6.697   3.591   3.159 -0.1370  0.1846 -0.0914
11491TIP3    H155964   6.699   3.557   3.070 -1.5753  0.6721 -0.3292
11491TIP3    H255965   6.665   3.680   3.151 -0.0938  0.3036  0.8990
11492TIP3   OH255966   0.122   6.287  10.703 -0.0748 -0.7297 -0.4261
11492TIP3    H155967   0.060   6.229  10.659 -1.0111  1.1695 -1.7588
11492TIP3    H255968   0.205   6.240  10.701 -1.1514 -2.7401  0.1340
11493TIP3   OH255969   4.616   1.014  13.321 -0.0413 -0.8198  0.1332
11493TIP3    H155970   4.660   0.988  13.402  0.2831 -1.2518 -0.1782
11493TIP3    H255971   4.523   0.998  13.338 -0.2429  1.2045  1.2147
11494TIP3   OH255972   4.838   3.747   2.949 -0.5508 -0.2866 -0.2489
11494TIP3    H155973   4.762   3.762   2.893  0.9889 -1.4845 -2.8484
11494TIP3    H255974   4.834   3.654   2.972 -0.5570 -0.0577  0.7254
11495TIP3   OH255975   2.815   2.571  13.387  0.0499 -0.6963 -0.7127
11495TIP3    H155976   2.851   2.504  13.445 -1.0192  0.7810  1.8564
11495TIP3    H255977   2.721   2.554  13.385 -0.8035  2.3296  2.6494
11496TIP3   OH255978   5.675   6.020   0.069 -0.3735 -0.3014 -0.4659
11496TIP3    H155979   5.745   6.074   0.033 -1.7160  1.6247 -0.3621
11496TIP3    H255980   5.605   6.024   0.003 -0.9840 -0.8878  0.1231
11497TIP3   OH255981   3.740   2.300   5.288  0.4146 -0.1043  0.2164
11497TIP3    H155982   3.817   2.318   5.342  0.5538 -1.1910  0.4045
11497TIP3    H255983   3.776   2.275   5.203  0.3592 -2.1919  0.7692
11498TIP3   OH255984   4.323   2.370  16.681 -0.2746  0.1251 -0.0886
11498TIP3    H155985   4.393   2.344  16.741  0.5843  1.9326 -0.2628
11498TIP3    H255986   4.354   2.342  16.595 -0.3153 -0.1284 -0.0209
11499TIP3   OH255987   0.021   1.429   4.321  0.2589 -0.0491  0.3158
11499TIP3    H155988  -0.010   1.370   4.253  0.7002  0.4605 -0.3382
11499TIP3    H255989  -0.029   1.510   4.307  1.2258  0.4803 -0.1968
11500TIP3   OH255990   5.481   2.374  13.578 -0.6593  0.3809 -0.1301
11500TIP3    H155991   5.528   2.457  13.581 -1.7849  1.0793 -0.8907
11500TIP3    H255992   5.467   2.351  13.670 -0.4436  1.0913  0.0884
11501TIP3   OH255993   1.647   6.578  15.226  0.0534  0.6136  0.8996
11501TIP3    H155994   1.726   6.532  15.255  0.3121  1.2858  1.3033
11501TIP3    H255995   1.579   6.512  15.227  0.9135 -0.3945 -1.0112
11502TIP3   OH255996   2.114   5.545   6.767  0.2725 -0.1670  0.0556
11502TIP3    H155997   2.077   5.619   6.718 -2.0809 -2.1492 -1.4359
11502TIP3    H255998   2.091   5.562   6.858  0.7275  1.4254 -0.1054
11503TIP3   OH255999   6.736   0.507  16.652 -0.0170 -0.1176  0.4644
11503TIP3    H156000   6.767   0.436  16.597 -1.0256 -0.9457  0.9403
11503TIP3    H256001   6.803   0.575  16.644 -0.0884 -0.2292 -1.7027
11504TIP3   OH256002   1.346   5.273   3.834 -0.1390 -0.4537 -0.6810
11504TIP3    H156003   1.404   5.348   3.843 -0.2301 -0.5437  1.0377
11504TIP3    H256004   1.291   5.276   3.912  0.6000 -2.9115  0.0081
11505TIP3   OH256005   3.535   2.967   0.243  0.4174 -0.2711 -0.1486
11505TIP3    H156006   3.606   3.005   0.191  1.0524 -1.2504 -0.0339
11505TIP3    H256007   3.578   2.900   0.297 -0.9012 -2.5912 -1.7982
11506TIP3   OH256008   5.636   1.713  13.848 -0.4726  0.1842  0.6874
11506TIP3    H156009   5.596   1.772  13.784 -0.2210 -1.2710 -0.9042
11506TIP3    H256010   5.730   1.722  13.831 -0.4468 -0.8936  0.1757
11507TIP3   OH256011   2.965   0.730   4.782 -0.0850 -0.0487 -0.1468
11507TIP3    H156012   2.928   0.705   4.867 -1.8986 -0.2048 -0.9238
11507TIP3    H256013   2.892   0.772   4.737  0.5933 -0.7206 -1.9313
11508TIP3   OH256014   2.363   0.396   6.200 -0.0813  0.2151 -0.7455
11508TIP3    H156015   2.323   0.323   6.247  0.0478  1.3977  1.3254
11508TIP3    H256016   2.375   0.463   6.266 -1.3784  2.6503 -2.8206
11509TIP3   OH256017   1.637   4.740  15.271  0.3195  0.1740 -0.0213
11509TIP3    H156018   1.705   4.772  15.212  0.9559 -1.7489 -0.4097
11509TIP3    H256019   1.559   4.733  15.216  0.1301  1.1390  0.1059
11510TIP3   OH256020   1.500   1.934  11.032 -0.0430 -0.2879 -0.0532
11510TIP3    H156021   1.570   1.916  11.094 -0.4484  0.5928  0.6794
11510TIP3    H256022   1.494   1.854  10.979  2.1674 -0.0272 -0.8035
11511TIP3   OH256023   3.514   6.768  16.399  0.2352 -0.2339  0.2655
11511TIP3    H156024   3.538   6.827  16.328  0.8573 -1.0012 -0.1731
11511TIP3    H256025   3.419   6.776  16.405  0.2028  0.0474 -0.4809
11512TIP3   OH256026   2.386   6.137  11.983 -0.0550 -0.2533  0.1763
11512TIP3    H156027   2.400   6.219  11.935 -1.0134 -0.0926  0.1591
11512TIP3    H256028   2.360   6.074  11.916  2.5404 -1.1164 -0.1198
11513TIP3   OH256029   3.664   5.588  13.351  0.2926  0.5040 -0.3719
11513TIP3    H156030   3.710   5.540  13.420 -0.4361  1.0558  0.5210
11513TIP3    H256031   3.715   5.570  13.271  0.1918 -1.5013 -0.0192
11514TIP3   OH256032   2.897   4.212  15.271  0.4376 -0.0594  0.7257
11514TIP3    H156033   2.853   4.139  15.314  3.1502 -0.9434  2.2462
11514TIP3    H256034   2.870   4.289  15.320 -1.3105 -0.1991  0.0312
11515TIP3   OH256035   6.096   4.578   2.579  0.5265 -0.5720 -0.1846
11515TIP3    H156036   6.053   4.587   2.664 -0.7953  1.0330 -0.9550
11515TIP3    H256037   6.189   4.594   2.597  0.3956 -1.1254  1.0699
11516TIP3   OH256038   6.230   3.457   6.060  0.3387 -0.4681  0.1363
11516TIP3    H156039   6.207   3.549   6.070  0.1805 -0.6286  1.3789
11516TIP3    H256040   6.151   3.415   6.027  0.9487  0.1207 -2.2904
11517TIP3   OH256041   2.631   4.135  13.969  0.3854 -0.1632  0.3879
11517TIP3    H156042   2.594   4.057  13.929  1.5991 -1.0468  0.9201
11517TIP3    H256043   2.623   4.203  13.902 -2.7485 -0.0764  0.7026
11518TIP3   OH256044   2.095   3.481  14.567 -0.9113 -0.0307  0.8273
11518TIP3    H156045   2.042   3.447  14.495 -0.7638  0.8635  0.2885
11518TIP3    H256046   2.095   3.576  14.555 -1.6705  0.2273  2.5535
11519TIP3   OH256047   4.279   4.326  12.517 -0.7363  0.7301  0.5056
11519TIP3    H156048   4.266   4.371  12.601  0.3821  0.9564  0.5754
11519TIP3    H256049   4.308   4.395  12.458 -0.6814  0.4094  0.1562
11520TIP3   OH256050   4.526   3.624   0.200 -0.0972 -0.3678  0.6623
11520TIP3    H156051   4.587   3.613   0.128 -0.5870  0.4353  0.1121
11520TIP3    H256052   4.553   3.705   0.243 -0.2592 -0.4525  0.9286
11521TIP3   OH256053   1.547   1.097  13.150  0.3967 -0.4939  0.5482
11521TIP3    H156054   1.577   1.128  13.065  1.8639  0.0257  1.2245
11521TIP3    H256055   1.478   1.159  13.175  1.1745  0.4033  0.5089
11522TIP3   OH256056   4.014   2.124   5.246 -0.1813 -0.0330 -0.3223
11522TIP3    H156057   4.105   2.099   5.232 -0.3278 -0.6020 -0.2562
11522TIP3    H256058   3.967   2.042   5.254 -1.0388  0.1882 -2.4610
11523TIP3   OH256059   4.297   6.182  14.126 -0.6138  0.6318 -0.2502
11523TIP3    H156060   4.227   6.123  14.152 -0.8216  0.7616 -0.5100
11523TIP3    H256061   4.357   6.128  14.074 -1.4506  0.9298 -1.5594
11524TIP3   OH256062   4.442   0.916  14.947  0.2043 -0.6564 -0.1301
11524TIP3    H156063   4.362   0.907  15.000  1.0082 -0.2099  1.1977
11524TIP3    H256064   4.447   0.834  14.898 -1.5998 -0.2874 -1.0223
11525TIP3   OH256065   1.881   2.674   0.577  0.0158 -0.2409 -0.0906
11525TIP3    H156066   1.868   2.670   0.672 -0.0417 -1.2466 -0.1228
11525TIP3    H256067   1.792   2.676   0.541  0.0318  2.0313 -0.0933
11526TIP3   OH256068   4.982   6.214  14.213  0.2242 -0.1220  0.5635
11526TIP3    H156069   4.957   6.168  14.133 -0.6960 -0.8156  1.2269
11526TIP3    H256070   5.012   6.300  14.183  1.2540 -0.8745 -0.6344
11527TIP3   OH256071   6.639   2.603  13.862  0.0353 -0.4102  0.0638
11527TIP3    H156072   6.685   2.619  13.944 -0.0786 -0.8626  0.2217
11527TIP3    H256073   6.678   2.522  13.828 -0.4959 -0.6895  0.0978
11528TIP3   OH256074   1.338   5.420   6.133 -0.4212 -0.3501  0.3419
11528TIP3    H156075   1.295   5.387   6.055  0.6867  0.4789 -0.6576
11528TIP3    H256076   1.385   5.345   6.169  0.5727 -0.3114 -0.8497
11529TIP3   OH256077   2.440   4.479  12.825 -0.2374  0.4947 -0.1358
11529TIP3    H156078   2.385   4.402  12.839 -0.1425  0.3175 -0.7038
11529TIP3    H256079   2.501   4.452  12.756  1.9644 -0.0525  1.9034
11530TIP3   OH256080   2.868   4.378   2.207  0.2601 -0.1937  0.3508
11530TIP3    H156081   2.834   4.297   2.169 -2.1890  1.0160 -0.3274
11530TIP3    H256082   2.951   4.393   2.162  2.2854 -3.6780  2.5403
11531TIP3   OH256083   4.853   0.585  16.958 -0.4835 -0.6352  0.2606
11531TIP3    H156084   4.805   0.607  16.878  0.7719 -1.6539 -0.8156
11531TIP3    H256085   4.785   0.555  17.019 -1.6939  1.9154  0.2844
11532TIP3   OH256086   3.943   2.183  10.756  0.4214  0.1539 -0.2816
11532TIP3    H156087   3.959   2.129  10.678  3.2997  0.6712 -0.1923
11532TIP3    H256088   3.857   2.222  10.741 -0.4870 -2.1667 -1.6946
11533TIP3   OH256089   1.908   4.027  14.170  0.1985 -0.1054 -0.1928
11533TIP3    H156090   1.916   4.041  14.075  4.2575  0.2500 -0.0082
11533TIP3    H256091   1.974   3.960  14.190  0.2272  0.6023  2.4815
11534TIP3   OH256092   5.097   3.242   4.272  0.0129 -0.3128  0.0169
11534TIP3    H156093   5.146   3.226   4.352  0.0591 -0.2805 -0.0052
11534TIP3    H256094   5.027   3.302   4.298  1.0731  1.1217 -0.3210
11535TIP3   OH256095   5.858   5.195  12.742 -0.3488  0.4920  0.1479
11535TIP3    H156096   5.811   5.179  12.824 -0.7700  0.9248 -0.0048
11535TIP3    H256097   5.789   5.213  12.678 -0.3236 -3.0198 -1.1187
11536TIP3   OH256098   4.333   1.151   2.021 -0.1046  0.0308  0.1027
11536TIP3    H156099   4.350   1.149   2.115 -0.0623  1.4349  0.1447
11536TIP3    H256100   4.362   1.065   1.990 -0.6552 -0.6812  1.4405
11537TIP3   OH256101   2.785   0.284   2.840 -0.1011  0.1996  0.3094
11537TIP3    H156102   2.693   0.259   2.845  0.0870 -0.3312  1.6696
11537TIP3    H256103   2.783   0.376   2.813 -0.9769 -0.0492 -0.5481
11538TIP3   OH256104   3.700   3.431   6.251 -0.4136  0.2740  0.3205
11538TIP3    H156105   3.638   3.503   6.258 -1.0336 -0.3282  1.2274
11538TIP3    H256106   3.692   3.383   6.333  1.3085  0.2038  0.4993
11539TIP3   OH256107   2.682   1.395  11.406 -0.2146 -0.1138  0.0350
11539TIP3    H156108   2.604   1.428  11.451 -0.5868 -1.1367  0.1541
11539TIP3    H256109   2.756   1.424  11.461 -0.3253  2.5398 -1.0716
11540TIP3   OH256110   1.733   2.776  11.279 -0.2069 -0.1338 -0.0143
11540TIP3    H156111   1.657   2.831  11.298 -0.5650 -0.1771 -1.1979
11540TIP3    H256112   1.722   2.752  11.187  1.8189  0.8090 -0.5707
11541TIP3   OH256113   6.774   3.639   6.312  0.4135 -0.0632  0.1128
11541TIP3    H156114   6.720   3.712   6.343 -0.1572  0.6812 -2.4287
11541TIP3    H256115   6.846   3.634   6.375  0.2675  2.4544  0.5768
11542TIP3   OH256116   1.274   1.036  15.162  0.0671  0.2953  0.4079
11542TIP3    H156117   1.368   1.040  15.149 -0.1658  1.6512 -1.2499
11542TIP3    H256118   1.247   0.954  15.119  0.6577 -1.1796  2.6615
11543TIP3   OH256119   3.528   2.366   6.570  0.0268 -0.6720  0.3036
11543TIP3    H156120   3.495   2.316   6.495 -0.6653 -0.6878  0.6138
11543TIP3    H256121   3.449   2.401   6.612  0.4944  1.8888 -0.7155
11544TIP3   OH256122   0.463   0.306  16.520  0.1785  0.5390  0.1136
11544TIP3    H156123   0.396   0.238  16.523  0.0255  0.6980  0.3714
11544TIP3    H256124   0.425   0.374  16.465 -0.6532  1.4338  1.7091
11545TIP3   OH256125   2.333   2.661  13.265  0.2381  0.5928  0.5726
11545TIP3    H156126   2.364   2.634  13.352 -0.5146  1.9008  1.2896
11545TIP3    H256127   2.413   2.681  13.216  0.7104 -0.9822  0.6491
11546TIP3   OH256128   0.222   1.385  11.019  0.1745  0.1189 -0.1540
11546TIP3    H156129   0.178   1.392  10.935  0.5167  0.1562 -0.3323
11546TIP3    H256130   0.157   1.347  11.078  0.4951 -1.6363 -0.8798
11547TIP3   OH256131   6.306   6.079   1.574 -0.0233  0.3303  0.1170
11547TIP3    H156132   6.334   6.142   1.507  0.8926 -1.9479 -1.7830
11547TIP3    H256133   6.226   6.040   1.538  0.8214 -1.3732 -0.0339
11548TIP3   OH256134   3.772   0.507  15.322 -0.0266  0.0284  0.0421
11548TIP3    H156135   3.771   0.577  15.257  0.4628  0.0836  0.0901
11548TIP3    H256136   3.734   0.545  15.400 -0.0478  0.1454 -0.0261
11549TIP3   OH256137   0.892   5.064   0.170  0.2377  0.4605  0.6509
11549TIP3    H156138   0.878   4.969   0.162  0.7738  0.3536  0.9291
11549TIP3    H256139   0.859   5.100   0.088  1.0836 -0.0921  0.0480
11550TIP3   OH256140   2.741   0.308   5.322 -0.0282 -0.5279  0.4094
11550TIP3    H156141   2.757   0.379   5.384 -2.5012 -0.1758  0.7708
11550TIP3    H256142   2.793   0.330   5.245 -0.3737  1.4444  0.6876
11551TIP3   OH256143   4.550   0.298  12.401  0.7027  0.1038 -0.3491
11551TIP3    H156144   4.635   0.341  12.401  1.1167 -0.5748  1.8538
11551TIP3    H256145   4.543   0.257  12.314  1.8954  1.4527 -1.1223
11552TIP3   OH256146   4.985   2.124  15.073  0.1556  0.0714 -0.6258
11552TIP3    H156147   5.020   2.154  15.156 -0.7155  0.6227 -0.4490
11552TIP3    H256148   5.061   2.117  15.015  0.7822 -0.4521  0.2428
11553TIP3   OH256149   5.868   1.727   3.377 -0.6331 -0.0182 -0.0183
11553TIP3    H156150   5.883   1.633   3.374 -2.1099 -0.2574 -1.8889
11553TIP3    H256151   5.790   1.738   3.431  0.1654  0.2699  1.1161
11554TIP3   OH256152   6.157   3.073  11.257 -0.1554  0.1574 -0.1188
11554TIP3    H156153   6.211   3.152  11.262  1.2913 -0.8310  0.7042
11554TIP3    H256154   6.205   3.015  11.198 -0.1180 -0.8703  0.8887
11555TIP3   OH256155   1.842   0.387   5.434  0.1670 -0.8766 -0.8013
11555TIP3    H156156   1.888   0.328   5.374  2.6675  0.2735 -0.1506
11555TIP3    H256157   1.806   0.455   5.377  2.2711  0.0527 -1.1116
11556TIP3   OH256158   3.061   2.798  11.840 -0.2789 -0.5094 -0.1166
11556TIP3    H156159   3.051   2.707  11.869  1.4921 -0.6213  0.2695
11556TIP3    H256160   3.008   2.848  11.902  0.4549 -1.1037  1.0346
11557TIP3   OH256161   2.582   4.500  16.700  0.2078 -0.0503 -0.9702
11557TIP3    H156162   2.600   4.581  16.651  0.1474 -0.7109 -2.1174
11557TIP3    H256163   2.549   4.439  16.634  0.7361 -1.1763 -0.2221
11558TIP3   OH256164   2.467   4.267  16.006 -0.9694  0.3332 -0.5449
11558TIP3    H156165   2.504   4.356  16.000 -1.6593  0.7954  1.2345
11558TIP3    H256166   2.383   4.280  16.050 -0.3400 -1.3577  1.3025
11559TIP3   OH256167   2.130   6.146  16.905 -0.2531  0.0263  0.1559
11559TIP3    H156168   2.181   6.107  16.976 -1.8827 -0.9944  0.8327
11559TIP3    H256169   2.107   6.233  16.938  1.7824  0.8822 -0.5565
11560TIP3   OH256170   5.720   0.728  16.435 -0.0440  0.4462 -0.1462
11560TIP3    H156171   5.674   0.652  16.399 -0.9527 -0.0412  1.8743
11560TIP3    H256172   5.695   0.800  16.378  0.7347 -0.7159 -2.0297
11561TIP3   OH256173   1.350   4.611   1.707  0.1572  0.0435  0.1499
11561TIP3    H156174   1.372   4.703   1.721 -2.9614  1.3153 -2.1510
11561TIP3    H256175   1.317   4.581   1.792  0.9594  1.0985  0.8570
11562TIP3   OH256176   1.822   1.982   2.061 -0.1743  0.3093 -0.0656
11562TIP3    H156177   1.803   1.966   1.968  1.0058  0.0700 -0.2828
11562TIP3    H256178   1.764   2.055   2.085 -1.3632 -0.4200 -0.6521
11563TIP3   OH256179   5.223   0.835   5.721 -0.2111  0.0939 -0.0185
11563TIP3    H156180   5.238   0.833   5.815 -2.6006 -0.4077  0.4066
11563TIP3    H256181   5.215   0.743   5.696 -1.5247  0.2772 -0.3381
11564TIP3   OH256182   4.939   1.219  16.913  0.4701  0.4810  0.8345
11564TIP3    H156183   4.903   1.131  16.903 -0.5448  0.6424  2.6895
11564TIP3    H256184   4.892   1.256  16.987  2.0225  2.0065  1.1215
11565TIP3   OH256185   5.870   1.279  13.151  0.0733 -0.0288 -0.1502
11565TIP3    H156186   5.949   1.228  13.167  0.3978 -0.0131 -1.6353
11565TIP3    H256187   5.802   1.232  13.200  0.9163 -0.2032  0.9022
11566TIP3   OH256188   4.249   1.343   1.399  0.3247 -0.1089  0.5208
11566TIP3    H156189   4.280   1.409   1.461  0.7827  1.2283 -1.0887
11566TIP3    H256190   4.188   1.390   1.343  0.0592 -1.2595 -0.1771
11567TIP3   OH256191   1.227   3.540  12.234 -0.2209  0.0896 -1.0341
11567TIP3    H156192   1.302   3.558  12.291  0.2300 -0.2842 -1.5025
11567TIP3    H256193   1.154   3.525  12.294  0.2926 -0.4974 -0.5514
11568TIP3   OH256194   2.721   0.339   4.695  0.4932 -0.7009 -0.4989
11568TIP3    H156195   2.667   0.413   4.668  1.4437  0.3220  0.3211
11568TIP3    H256196   2.748   0.359   4.784  0.9283 -1.9521 -0.3221
11569TIP3   OH256197   5.765   5.512   0.548  0.1825 -0.4540  0.0966
11569TIP3    H156198   5.822   5.584   0.522  0.1872 -0.2992  0.5252
11569TIP3    H256199   5.677   5.549   0.546  0.3134  0.0531  1.8850
11570TIP3   OH256200   5.341   1.199  14.203  0.2670 -0.0178 -0.0961
11570TIP3    H156201   5.422   1.244  14.227  0.4837  0.1472 -1.1125
11570TIP3    H256202   5.369   1.111  14.178  0.1835  0.1701 -0.8532
11571TIP3   OH256203   3.530   1.632   5.717  0.0368  0.1183 -0.3087
11571TIP3    H156204   3.493   1.659   5.633  1.1229 -0.3712 -0.9605
11571TIP3    H256205   3.620   1.665   5.716 -0.0573  0.4829  0.8602
11572TIP3   OH256206   1.245   0.929  15.979 -0.8089 -0.2458  0.5003
11572TIP3    H156207   1.235   0.930  16.074 -0.9646  0.3963  0.4804
11572TIP3    H256208   1.178   0.989  15.947  1.2577  2.0666  0.1889
11573TIP3   OH256209   2.382   0.793   5.804  0.1513 -0.0029  0.1633
11573TIP3    H156210   2.303   0.846   5.810 -1.0725 -1.2547 -2.6568
11573TIP3    H256211   2.380   0.737   5.882 -0.5451  1.4731  1.2422
11574TIP3   OH256212   0.761   0.664   4.586  0.4685 -0.1543  0.3696
11574TIP3    H156213   0.726   0.735   4.532 -0.0633  1.0509  2.1903
11574TIP3    H256214   0.725   0.585   4.547  1.0966  0.5243 -1.7384
11575TIP3   OH256215   1.572   0.972   4.185 -0.3860  0.2752  0.1820
11575TIP3    H156216   1.610   0.887   4.162 -0.2139  0.1146  1.0524
11575TIP3    H256217   1.591   1.027   4.109  2.9610  0.6434  1.1368
11576TIP3   OH256218   0.720   3.859   1.903  0.6058  0.0946 -0.5213
11576TIP3    H156219   0.630   3.834   1.920  1.1634 -2.1421 -0.4886
11576TIP3    H256220   0.721   3.887   1.811 -0.0023 -0.5847 -0.7420
11577TIP3   OH256221   5.579   6.077   3.671 -0.3432  0.3558 -0.1581
11577TIP3    H156222   5.552   6.013   3.605  1.2383  0.5631 -1.0502
11577TIP3    H256223   5.517   6.150   3.660 -1.4614 -0.5347  0.1191
11578TIP3   OH256224   1.147   1.706  16.121  0.0584 -1.3859 -0.0538
11578TIP3    H156225   1.196   1.784  16.148 -1.1344 -0.6892  0.1987
11578TIP3    H256226   1.202   1.633  16.148  1.2105 -0.6388 -0.2920
11579TIP3   OH256227   0.183   3.549   0.664  0.1241 -0.3661 -0.1079
11579TIP3    H156228   0.222   3.616   0.720  1.8044 -1.7230  0.4226
11579TIP3    H256229   0.128   3.498   0.724 -0.5688  0.0630 -0.3640
11580TIP3   OH256230   2.739   3.119   3.644 -0.5331  0.1414  0.0786
11580TIP3    H156231   2.774   3.122   3.555 -0.2436 -0.4544  0.1699
11580TIP3    H256232   2.680   3.044   3.645 -2.1228  1.3353 -0.1686
11581TIP3   OH256233   5.213   5.480  15.988 -0.0962  0.1849  0.3525
11581TIP3    H156234   5.304   5.480  16.018  0.3742  0.9008 -0.9880
11581TIP3    H256235   5.166   5.532  16.054  0.9149  1.7660 -0.1143
11582TIP3   OH256236   4.652   2.794  11.785  0.0937  0.3892 -0.4834
11582TIP3    H156237   4.610   2.844  11.715  2.6080  1.6576 -1.1765
11582TIP3    H256238   4.582   2.781  11.850 -1.3294  2.4488 -1.4956
11583TIP3   OH256239   4.989   0.700  16.030 -0.1284 -0.0543  0.1304
11583TIP3    H156240   5.027   0.632  16.085 -2.5404 -2.1435 -0.6254
11583TIP3    H256241   5.065   0.747  15.995  1.6821 -2.6191  0.3232
11584TIP3   OH256242   0.486   1.003   3.051 -0.0441 -0.1071 -0.1983
11584TIP3    H156243   0.547   1.073   3.074 -0.2812  0.2513 -0.6409
11584TIP3    H256244   0.489   0.999   2.955  0.6892 -1.3533 -0.1513
11585TIP3   OH256245   5.937   1.964   2.393  0.5445 -0.8902  0.2624
11585TIP3    H156246   6.022   1.936   2.359  0.1853 -2.2192  0.4049
11585TIP3    H256247   5.900   1.885   2.432 -0.7711 -0.3446  0.1605
11586TIP3   OH256248   1.391   3.641   2.097 -0.0688 -0.0224 -0.2633
11586TIP3    H156249   1.380   3.729   2.133 -0.5214 -0.1467 -0.0940
11586TIP3    H256250   1.304   3.617   2.066  0.2426 -0.0595 -1.1274
11587TIP3   OH256251   6.146   1.047   3.085  0.1318 -0.5980 -0.0375
11587TIP3    H156252   6.128   0.961   3.122  1.5084 -0.3696  1.2528
11587TIP3    H256253   6.219   1.081   3.137 -0.0355  1.1313 -0.8575
11588TIP3   OH256254   2.389   2.604   1.826  0.4259  0.4119 -0.3046
11588TIP3    H156255   2.453   2.539   1.853 -2.0564 -1.6103  1.0945
11588TIP3    H256256   2.343   2.628   1.906 -1.7798  0.3774 -1.4809
11589TIP3   OH256257   1.163   4.750   5.458  0.4069 -0.0688 -0.0107
11589TIP3    H156258   1.218   4.812   5.410  0.7503 -1.4058 -1.3829
11589TIP3    H256259   1.103   4.714   5.393  0.4688 -1.4783  0.6694
11590TIP3   OH256260   0.099   5.886   2.045  0.2457 -0.2242  0.0268
11590TIP3    H156261   0.081   5.979   2.061  0.1940 -0.1721 -0.3315
11590TIP3    H256262   0.088   5.875   1.951  1.1649 -0.3936 -0.0758
11591TIP3   OH256263   3.411   0.623  16.378  0.2432 -0.6700 -0.1554
11591TIP3    H156264   3.432   0.667  16.461  1.5840 -0.7025 -0.4530
11591TIP3    H256265   3.396   0.695  16.316  3.2043 -0.5139 -0.8357
11592TIP3   OH256266   3.597   0.617  12.111 -0.2139 -0.5189  0.5631
11592TIP3    H156267   3.563   0.694  12.158  0.2124  1.0236 -1.4967
11592TIP3    H256268   3.577   0.543  12.168 -0.9378  1.0800  2.4972
11593TIP3   OH256269   0.290   2.792   1.909 -0.4828 -0.0982 -0.5231
11593TIP3    H156270   0.212   2.792   1.854 -1.9101 -2.5447  1.3348
11593TIP3    H256271   0.322   2.702   1.905  1.2357  0.4423  0.1789
11594TIP3   OH256272   6.530   2.957  12.106  0.2014  0.0602  0.5251
11594TIP3    H156273   6.469   2.894  12.067  0.0978 -0.3539  1.3497
11594TIP3    H256274   6.557   2.917  12.189  0.0640  1.1432  1.1077
11595TIP3   OH256275   2.120   4.389   0.663 -0.3369  0.5035 -0.2009
11595TIP3    H156276   2.036   4.369   0.622 -1.1947  0.8028  1.2916
11595TIP3    H256277   2.167   4.442   0.599 -1.1938  0.1302 -1.1604
11596TIP3   OH256278   3.459   2.848  16.765  0.1625  0.4791  0.3123
11596TIP3    H156279   3.442   2.776  16.825 -1.4373 -0.8111 -1.5854
11596TIP3    H256280   3.514   2.811  16.696  0.3098  1.3919 -0.0883
11597TIP3   OH256281   3.733   6.813  11.359 -0.2113 -0.0044 -0.1482
11597TIP3    H156282   3.652   6.834  11.314  0.0383  0.0674 -0.5656
11597TIP3    H256283   3.777   6.750  11.302  0.1543  0.1678 -0.0622
11598TIP3   OH256284   3.593   0.360   0.683  0.3765 -0.2001 -0.0598
11598TIP3    H156285   3.544   0.311   0.617 -0.5045 -0.7403  0.9675
11598TIP3    H256286   3.537   0.435   0.704 -0.5033 -1.3221  1.8104
11599TIP3   OH256287   0.342   4.888  15.395 -0.1344  0.0383  0.6930
11599TIP3    H156288   0.406   4.830  15.353  0.8457  0.9885  0.8224
11599TIP3    H256289   0.332   4.960  15.333 -0.0647  0.5498  1.2709
11600TIP3   OH256290   3.137   3.893   0.864 -0.6222  0.3158 -0.3458
11600TIP3    H156291   3.207   3.949   0.896 -0.0335 -0.0001 -1.0555
11600TIP3    H256292   3.133   3.821   0.926 -0.8642  0.7412  0.1383
11601TIP3   OH256293   3.590   1.108  16.086 -0.2131  0.3853 -0.2396
11601TIP3    H156294   3.577   1.015  16.072 -0.4542  0.4100 -0.1847
11601TIP3    H256295   3.520   1.134  16.145 -0.6500  0.7726 -0.9125
11602TIP3   OH256296   3.181   0.031   0.116 -0.6287 -0.3902  0.3355
11602TIP3    H156297   3.129   0.014   0.037 -0.8035 -0.5883  0.4935
11602TIP3    H256298   3.155  -0.038   0.177 -2.2785  1.1265  1.4517
11603TIP3   OH256299   3.700   2.079  13.487 -0.3386  0.1444 -0.1158
11603TIP3    H156300   3.636   2.123  13.431 -0.6382 -0.7665 -0.5039
11603TIP3    H256301   3.763   2.147  13.511  1.4178  0.0457 -3.8047
11604TIP3   OH256302   2.221   2.100   3.426  0.2035 -0.2496  0.4570
11604TIP3    H156303   2.205   2.006   3.433  0.4721 -0.2017  1.8745
11604TIP3    H256304   2.157   2.140   3.485 -1.5505  0.6653 -1.8799
11605TIP3   OH256305   2.729   5.040  12.019 -0.1347  0.0252  0.4297
11605TIP3    H156306   2.758   5.014  12.107 -0.6668 -0.1882  0.5463
11605TIP3    H256307   2.805   5.025  11.963 -0.0568 -0.6605  0.7094
11606TIP3   OH256308   6.047   5.639  10.751 -0.1357 -0.5784  0.2762
11606TIP3    H156309   6.023   5.651  10.843  1.3537 -1.2155  0.7831
11606TIP3    H256310   6.036   5.545  10.736  0.0646 -0.5489 -0.0627
11607TIP3   OH256311   0.562   2.774   1.013 -0.2256 -0.3395  0.0705
11607TIP3    H156312   0.594   2.715   1.081  0.2425  0.2268  0.3437
11607TIP3    H256313   0.556   2.859   1.056  1.3690  0.3220 -0.9524
11608TIP3   OH256314   3.588   0.569  11.554 -0.2165  0.1474 -0.0694
11608TIP3    H156315   3.654   0.539  11.491 -0.3075  0.5629 -0.3700
11608TIP3    H256316   3.630   0.644  11.598  0.2442 -0.7607  1.0945
11609TIP3   OH256317   4.760   0.818   5.786  0.2000  0.4983  0.2338
11609TIP3    H156318   4.845   0.774   5.789  0.7796  1.6070  0.4614
11609TIP3    H256319   4.753   0.863   5.870 -1.7401 -1.5559  1.2965
11610TIP3   OH256320   1.532   0.722   2.503 -0.2988  0.1980  0.0226
11610TIP3    H156321   1.594   0.660   2.465  0.4879  0.8971  0.1524
11610TIP3    H256322   1.459   0.668   2.532  1.1655 -0.9076  1.7934
11611TIP3   OH256323   3.434   4.404   1.809 -0.4896 -0.6602 -0.2404
11611TIP3    H156324   3.363   4.458   1.847 -1.4323 -3.2869  2.0949
11611TIP3    H256325   3.514   4.448   1.837 -1.2161  0.0514  0.8161
11612TIP3   OH256326   5.195   0.379   3.009 -0.4689  0.0025 -0.2079
11612TIP3    H156327   5.114   0.383   2.959  0.6880  0.0675 -2.1962
11612TIP3    H256328   5.258   0.428   2.956  1.5804 -2.4331 -0.1829
11613TIP3   OH256329   0.737   6.617  14.095  0.1499 -0.2095 -0.7470
11613TIP3    H156330   0.783   6.590  14.175 -2.3047 -3.6132 -0.2506
11613TIP3    H256331   0.646   6.628  14.122 -0.7862 -1.5579 -3.0262
11614TIP3   OH256332   1.676   0.685   1.048  0.3897 -0.1020 -0.4089
11614TIP3    H156333   1.597   0.739   1.040  1.5930  2.0561  1.3103
11614TIP3    H256334   1.724   0.699   0.966 -0.7144 -1.0312 -1.2489
11615TIP3   OH256335   6.312   6.639   3.473 -0.4683 -0.0036  0.1847
11615TIP3    H156336   6.257   6.654   3.549 -1.1743  0.9308 -0.4833
11615TIP3    H256337   6.250   6.613   3.404  0.0308  0.2030 -0.3491
11616TIP3   OH256338   1.579   3.392  12.616 -0.1903 -0.0464  0.2912
11616TIP3    H156339   1.624   3.465  12.659  0.3292 -0.3384  0.2561
11616TIP3    H256340   1.624   3.382  12.532 -2.3367  1.6894 -1.1833
11617TIP3   OH256341   2.134   5.413  12.163 -0.3412  0.1321  0.7549
11617TIP3    H156342   2.182   5.486  12.123  0.2120  0.5408  2.1238
11617TIP3    H256343   2.183   5.392  12.242  0.4188 -2.7639 -0.3309
11618TIP3   OH256344   5.110   1.887   6.015  0.2308 -0.5230 -0.0655
11618TIP3    H156345   5.141   1.973   5.987 -0.2490  0.0965  1.2081
11618TIP3    H256346   5.183   1.850   6.064 -1.0881  1.2788  3.6484
11619TIP3   OH256347   0.344   2.701  13.736  0.0404 -0.8786 -0.1208
11619TIP3    H156348   0.332   2.796  13.735  1.2514 -0.6001  2.4529
11619TIP3    H256349   0.412   2.684  13.671 -1.0215 -0.2029 -1.4718
11620TIP3   OH256350   0.910   1.668   3.208 -0.3609 -0.2278  0.1441
11620TIP3    H156351   0.838   1.723   3.176 -1.6402 -0.6470  2.1272
11620TIP3    H256352   0.905   1.675   3.303  1.1946 -1.6128  0.3790
11621TIP3   OH256353   3.182   3.841   4.873  0.0071 -0.0418 -0.2303
11621TIP3    H156354   3.198   3.852   4.966 -0.7361  0.1523 -0.1141
11621TIP3    H256355   3.208   3.751   4.854 -0.8921 -0.4497  0.4037
11622TIP3   OH256356   4.196   5.457   1.369 -0.2916  0.1019 -0.1323
11622TIP3    H156357   4.264   5.393   1.389  0.5134  0.9117 -0.1862
11622TIP3    H256358   4.129   5.442   1.436  0.7049  0.3714  0.9594
11623TIP3   OH256359   1.581   5.592   1.159  0.0891  0.4182  0.3375
11623TIP3    H156360   1.615   5.506   1.136  0.3723  0.4751  0.5338
11623TIP3    H256361   1.524   5.576   1.234 -0.6548  0.2649 -0.2471
11624TIP3   OH256362   2.241   3.720  16.803 -0.4603 -0.0589 -0.1298
11624TIP3    H156363   2.251   3.714  16.898 -0.9684 -0.9755 -0.1289
11624TIP3    H256364   2.331   3.725  16.770 -0.2630 -0.3677  0.3562
11625TIP3   OH256365   3.804   4.711   2.649  0.7277  0.7437  0.0984
11625TIP3    H156366   3.789   4.769   2.724  1.3441  2.1544 -0.8158
11625TIP3    H256367   3.802   4.770   2.573 -1.1845 -0.8402 -1.1497
11626TIP3   OH256368   1.042   3.375   4.992 -0.3417 -0.1419  0.4866
11626TIP3    H156369   1.069   3.329   4.912 -1.2671  0.4139 -0.1618
11626TIP3    H256370   1.121   3.423   5.019  0.1111 -0.6926  0.1793
11627TIP3   OH256371   2.238   4.770   6.290  0.2779  0.1452 -0.1890
11627TIP3    H156372   2.205   4.706   6.227  0.0126  0.2688 -0.1739
11627TIP3    H256373   2.258   4.719   6.368 -1.6840  0.3418  0.4799
11628TIP3   OH256374   0.438   2.497  17.104 -0.1850  0.1888  0.1205
11628TIP3    H156375   0.512   2.483  17.163 -0.6521  0.3077  0.7508
11628TIP3    H256376   0.459   2.578  17.058 -0.6716  1.1610  1.5198
11629TIP3   OH256377   0.135   6.760  11.243 -0.2740 -0.0935 -0.0769
11629TIP3    H156378   0.179   6.735  11.161 -0.8802 -0.6706 -0.2299
11629TIP3    H256379   0.207   6.778  11.304  0.2033  1.1199 -0.9558
11630TIP3   OH256380   2.728   6.114   1.649  0.1370  0.5340  0.4864
11630TIP3    H156381   2.655   6.080   1.598 -0.5264  1.4697  0.7926
11630TIP3    H256382   2.797   6.129   1.584  0.3998 -1.2091  0.3277
11631TIP3   OH256383   5.061   2.277   2.985  0.4431  0.4729  0.0610
11631TIP3    H156384   4.980   2.236   3.015  0.4764  0.3924  0.0393
11631TIP3    H256385   5.036   2.367   2.962 -0.0134 -0.0720 -1.7048
11632TIP3   OH256386   3.642   4.735   2.124  0.6970 -0.2511  0.2761
11632TIP3    H156387   3.676   4.654   2.161  0.7588 -0.5576 -0.4296
11632TIP3    H256388   3.661   4.802   2.190 -0.7079 -1.0509  1.5559
11633TIP3   OH256389   2.578   0.944  15.519 -0.5632 -0.0187 -0.1701
11633TIP3    H156390   2.638   0.878  15.485 -0.1165  0.7541 -0.9025
11633TIP3    H256391   2.513   0.956  15.450  0.8430  2.1923 -1.1909
11634TIP3   OH256392   2.384   6.451  16.933 -0.0668  0.0977 -0.9118
11634TIP3    H156393   2.349   6.491  17.012 -0.1119  0.4881 -1.1257
11634TIP3    H256394   2.333   6.489  16.862  1.2430  1.2007 -1.2897
11635TIP3   OH256395   5.150   0.531  15.607  0.0579 -0.3033  0.2683
11635TIP3    H156396   5.099   0.503  15.683  0.1986 -0.0241  0.4654
11635TIP3    H256397   5.215   0.592  15.642  1.5930 -1.8501  0.2833
11636TIP3   OH256398   4.733   2.780  12.985 -0.4909 -0.0045  0.3474
11636TIP3    H156399   4.795   2.708  12.993 -1.3765 -0.8556 -0.3265
11636TIP3    H256400   4.776   2.853  13.029  1.6639 -0.1376 -1.3847
11637TIP3   OH256401   3.147   4.301   1.273  0.4709 -0.2313 -0.0973
11637TIP3    H156402   3.086   4.375   1.282 -0.8744 -1.4017  0.8271
11637TIP3    H256403   3.185   4.313   1.186 -1.6149  0.1951 -1.0329
11638TIP3   OH256404   1.926   5.988  15.816  0.0345  0.3902 -0.1274
11638TIP3    H156405   1.982   5.911  15.805 -0.8003 -0.1347 -0.8286
11638TIP3    H256406   1.950   6.023  15.902  1.1601 -0.0334 -0.2540
11639TIP3   OH256407   6.052   0.005  15.658 -0.0069 -0.3216  0.4267
11639TIP3    H156408   6.124  -0.019  15.717  1.0456 -1.1252 -1.1048
11639TIP3    H256409   5.973  -0.028  15.700  0.4850  0.6557  2.1994
11640TIP3   OH256410   5.132   1.898   3.401 -0.3210 -0.3711  0.9412
11640TIP3    H156411   5.193   1.825   3.387  1.2628  0.7527  1.6533
11640TIP3    H256412   5.183   1.963   3.450 -1.4843  1.4517 -0.1222
11641TIP3   OH256413   6.731   0.646   1.913  0.0302  0.1307 -0.5724
11641TIP3    H156414   6.743   0.600   1.830  1.6087  3.2134 -2.2230
11641TIP3    H256415   6.752   0.581   1.980  0.0793 -2.0677 -2.6055
11642TIP3   OH256416   2.669   4.643   5.633  0.0968  0.2301 -0.2888
11642TIP3    H156417   2.582   4.602   5.636 -0.2096  0.8937  1.7820
11642TIP3    H256418   2.717   4.594   5.567 -0.5958 -2.7450  1.2513
11643TIP3   OH256419   3.076   2.801   2.675  0.0666  0.3714  0.1317
11643TIP3    H156420   2.991   2.762   2.693 -0.3579  0.5123 -1.4439
11643TIP3    H256421   3.108   2.757   2.596 -0.0896  2.5896 -1.2611
11644TIP3   OH256422   0.092   2.996   3.270  0.9383 -0.0010 -0.6155
11644TIP3    H156423   0.039   2.916   3.271  0.2450  0.4223  1.3326
11644TIP3    H256424   0.091   3.024   3.179  0.5241 -1.7646 -1.2013
11645TIP3   OH256425   3.332   1.117  12.057 -0.9419  0.0181  0.5025
11645TIP3    H156426   3.260   1.055  12.042 -0.5468 -0.2383 -0.3898
11645TIP3    H256427   3.362   1.097  12.146 -0.4855 -1.4302  0.0468
11646TIP3   OH256428   3.008   1.840  16.718 -0.2358  0.2050 -0.3279
11646TIP3    H156429   3.057   1.780  16.661  1.0231 -0.1660  1.0541
11646TIP3    H256430   3.076   1.885  16.768 -1.2662 -0.6690  2.0214
11647TIP3   OH256431   3.997   2.504   4.726 -0.4081 -0.0745  0.5083
11647TIP3    H156432   4.009   2.550   4.809  0.4976 -0.9542  0.8943
11647TIP3    H256433   3.914   2.536   4.691 -0.3215  1.0183  1.2858
11648TIP3   OH256434   3.586   4.501  16.464  0.2289 -0.4694  0.0661
11648TIP3    H156435   3.631   4.474  16.544  0.7356 -1.7904 -0.6145
11648TIP3    H256436   3.498   4.466  16.473 -0.4945  1.4960  1.0872
11649TIP3   OH256437   6.119   6.656  11.648  0.6345  0.3537 -0.0163
11649TIP3    H156438   6.167   6.586  11.603 -0.9549 -1.7069  1.2880
11649TIP3    H256439   6.184   6.724  11.662  2.0599 -0.4601 -2.1138
11650TIP3   OH256440   6.594   2.929   5.841  0.4944 -0.0941  0.5063
11650TIP3    H156441   6.499   2.928   5.837  0.4864  0.4852  0.5292
11650TIP3    H256442   6.622   2.931   5.749  0.4775  0.1011  0.5045
11651TIP3   OH256443   2.305   5.247   0.501  0.0248  1.1223 -0.6244
11651TIP3    H156444   2.257   5.303   0.440  0.5458 -0.2861 -2.4254
11651TIP3    H256445   2.258   5.254   0.583 -4.0854 -1.0181 -2.5169
11652TIP3   OH256446   2.328   5.766   3.407 -0.0549 -0.0102 -0.1134
11652TIP3    H156447   2.392   5.775   3.337  1.5638  0.4400  1.3508
11652TIP3    H256448   2.320   5.671   3.421 -1.5190 -0.1920 -1.8331
11653TIP3   OH256449   0.882   0.878  16.709  0.2584 -0.4798  0.4897
11653TIP3    H156450   0.918   0.911  16.627  0.2628 -0.6980  0.4027
11653TIP3    H256451   0.957   0.841  16.755  0.2734 -0.2692  0.6380
11654TIP3   OH256452   3.015   5.567   5.469  0.0442  0.3378  0.1387
11654TIP3    H156453   3.013   5.634   5.400  0.3241  0.3017  0.0980
11654TIP3    H256454   3.071   5.604   5.537 -1.3684  1.0049  0.9881
11655TIP3   OH256455   0.773   6.368  14.595 -0.1153 -0.2855 -0.1566
11655TIP3    H156456   0.829   6.298  14.561  0.0583 -1.2496  1.9732
11655TIP3    H256457   0.684   6.341  14.572  0.0792 -0.1084 -1.1868
11656TIP3   OH256458   0.170   3.687   2.922 -0.7642 -0.1939 -0.0921
11656TIP3    H156459   0.080   3.673   2.951 -0.6367  0.2972  0.5751
11656TIP3    H256460   0.204   3.600   2.903 -1.4058 -0.3748 -0.4360
11657TIP3   OH256461   6.275   5.615   0.946 -0.3356  0.4018 -0.5565
11657TIP3    H156462   6.241   5.689   0.896  2.2406  0.4303 -2.5017
11657TIP3    H256463   6.329   5.567   0.884 -0.1627 -1.9042  1.2310
11658TIP3   OH256464   2.638   4.640  15.508  0.6849  0.5230  0.3622
11658TIP3    H156465   2.664   4.691  15.584 -3.7748  1.5800  1.4168
11658TIP3    H256466   2.642   4.701  15.435 -0.5387  1.2108  0.8508
11659TIP3   OH256467   6.430   2.050  12.701 -0.3097 -0.0241 -0.0234
11659TIP3    H156468   6.497   2.085  12.642 -1.2397  0.4213 -0.8433
11659TIP3    H256469   6.393   2.127  12.744 -1.2060 -0.1234 -0.5858
11660TIP3   OH256470   4.255   4.866  17.118 -0.0002  0.2919 -0.3372
11660TIP3    H156471   4.268   4.877  17.024 -0.4265 -0.6782 -0.5228
11660TIP3    H256472   4.211   4.946  17.146  0.1737  0.6089 -0.9485
11661TIP3   OH256473   1.793   4.929  11.999  0.0968 -0.1085  0.4262
11661TIP3    H156474   1.722   4.964  11.944  1.1095 -3.5527 -3.6217
11661TIP3    H256475   1.866   4.990  11.985 -0.1896 -0.0046 -0.7393
11662TIP3   OH256476   0.622   0.442  14.127 -0.2496  0.7534  0.9643
11662TIP3    H156477   0.531   0.456  14.099  0.3307  2.0322 -0.4303
11662TIP3    H256478   0.619   0.452  14.222 -1.4598  1.5121  0.8791
11663TIP3   OH256479   2.650   0.629  11.226  0.4298 -0.4720  0.3399
11663TIP3    H156480   2.731   0.626  11.278  0.6961  1.0581  0.0797
11663TIP3    H256481   2.632   0.723  11.217 -0.0656 -0.7270 -1.6403
11664TIP3   OH256482   6.266   6.072   1.853  0.1523  0.3165 -0.0326
11664TIP3    H156483   6.269   6.045   1.762 -0.6927  1.5959 -0.4698
11664TIP3    H256484   6.356   6.064   1.884  0.1544 -1.8438 -0.4257
11665TIP3   OH256485   2.114   2.303  10.923  0.1311 -0.5710 -0.7886
11665TIP3    H156486   2.204   2.271  10.919 -0.2076 -1.6583 -0.1889
11665TIP3    H256487   2.094   2.330  10.833  1.5853  1.2491 -0.6121
11666TIP3   OH256488   2.697   2.189   5.579 -0.0841  0.2749 -0.3201
11666TIP3    H156489   2.611   2.178   5.539 -0.1947  1.4142 -0.4031
11666TIP3    H256490   2.714   2.283   5.576  1.8486 -0.0409 -1.7743
11667TIP3   OH256491   3.115   4.991   4.183  0.0895 -0.2178  0.0359
11667TIP3    H156492   3.058   5.042   4.124  0.5371 -2.0894 -2.1502
11667TIP3    H256493   3.056   4.928   4.224  0.3376 -1.3633 -1.3099
11668TIP3   OH256494   1.042   6.229   0.422  0.3275  0.3432 -0.2938
11668TIP3    H156495   1.008   6.140   0.415  0.8008  0.2032 -0.9494
11668TIP3    H256496   0.985   6.281   0.366  0.5470  0.2924 -0.5725
11669TIP3   OH256497   5.752   3.090   0.648  0.3694  0.2445  0.5716
11669TIP3    H156498   5.820   3.113   0.711  0.9967  0.3455 -0.1332
11669TIP3    H256499   5.779   3.005   0.613  1.4338  1.3316 -1.4411
11670TIP3   OH256500   6.821   6.481   0.649  0.4038  0.3686  0.2803
11670TIP3    H156501   6.736   6.515   0.680 -0.6157 -0.1149 -1.8335
11670TIP3    H256502   6.844   6.539   0.577  0.4956 -1.1524 -0.9422
11671TIP3   OH256503   1.116   4.458   3.881 -0.0138  0.2455 -0.3936
11671TIP3    H156504   1.109   4.366   3.858  0.8111 -0.2661  1.2472
11671TIP3    H256505   1.028   4.493   3.865 -0.5693 -1.0258 -0.2357
11672TIP3   OH256506   1.559   4.711   4.144  0.7108  0.1337 -0.0469
11672TIP3    H156507   1.469   4.700   4.112  0.4752  0.1713  0.5833
11672TIP3    H256508   1.570   4.640   4.206  0.8823  0.5354  0.3840
11673TIP3   OH256509   4.208   3.315  16.785 -0.4885  0.1945 -0.4068
11673TIP3    H156510   4.115   3.298  16.800 -0.2484  0.1297  1.1203
11673TIP3    H256511   4.211   3.404  16.750 -0.9846  1.1533  1.8475
11674TIP3   OH256512   5.201   3.093   0.253  0.1722  0.0605  0.1826
11674TIP3    H156513   5.149   3.022   0.291  2.8998 -2.3489 -0.2566
11674TIP3    H256514   5.144   3.169   0.258 -2.5340 -1.8828  1.7087
11675TIP3   OH256515   6.387   1.192  12.839  0.0083  0.9290 -1.2728
11675TIP3    H156516   6.469   1.153  12.868 -1.3779 -0.5971  0.9582
11675TIP3    H256517   6.400   1.286  12.848  1.1655  0.6733  0.0942
11676TIP3   OH256518   2.471   6.701   5.830 -0.1415  0.2876 -0.3318
11676TIP3    H156519   2.396   6.757   5.850 -1.0084 -1.0202  0.2501
11676TIP3    H256520   2.440   6.644   5.759 -0.1949 -1.1622  0.8145
11677TIP3   OH256521   5.491   0.302  12.791  0.6713 -0.3337 -0.2294
11677TIP3    H156522   5.555   0.296  12.863 -0.5628  0.3537  0.9849
11677TIP3    H256523   5.544   0.300  12.712  2.0968 -1.1490  0.6897
11678TIP3   OH256524   0.677   1.046   2.104 -0.6935  0.1709  0.3430
11678TIP3    H156525   0.695   0.966   2.055 -3.0799 -0.7529  0.8315
11678TIP3    H256526   0.756   1.099   2.094  1.1074 -2.3606  0.2822
11679TIP3   OH256527   3.281   2.862   3.358 -0.1311  0.3104 -0.0212
11679TIP3    H156528   3.214   2.921   3.391 -0.7527 -0.1182 -0.4995
11679TIP3    H256529   3.359   2.917   3.347 -0.4838  0.8697  0.2505
11680TIP3   OH256530   2.676   0.322  12.828 -0.1787  0.1961 -0.0143
11680TIP3    H156531   2.596   0.296  12.782  0.7091 -1.0868 -0.9091
11680TIP3    H256532   2.722   0.240  12.844  0.7130  0.8632  0.9780
11681TIP3   OH256533   5.225   5.045   4.922 -0.5309 -0.4514 -0.3939
11681TIP3    H156534   5.173   4.982   4.971 -0.3571 -0.2370  0.0642
11681TIP3    H256535   5.259   5.105   4.988 -1.0508  0.3856 -0.8596
11682TIP3   OH256536   5.066   2.202   3.956  0.4842  0.2252 -0.3034
11682TIP3    H156537   5.087   2.221   4.047 -2.6295  2.5397  0.0849
11682TIP3    H256538   5.005   2.129   3.960  0.1465  0.4939 -0.5028
11683TIP3   OH256539   3.626   0.001  16.665  0.2536 -0.3727  0.3080
11683TIP3    H156540   3.570  -0.018  16.589 -0.2577  0.4584  0.4655
11683TIP3    H256541   3.712  -0.032  16.639 -0.2808 -1.6233  0.0433
11684TIP3   OH256542   0.042   4.555   0.316 -0.0192 -0.1896 -0.9360
11684TIP3    H156543   0.119   4.522   0.269 -1.0841 -1.6818 -1.7365
11684TIP3    H256544   0.077   4.585   0.400  1.1784 -3.3059 -0.1441
11685TIP3   OH256545   2.459   5.878  12.141 -0.5544  0.3494 -0.1428
11685TIP3    H156546   2.419   5.849  12.223 -0.5727  1.1293  0.1316
11685TIP3    H256547   2.396   5.940  12.103 -0.0580  0.8447 -0.1875
11686TIP3   OH256548   1.865   1.591  14.801  0.3507 -0.0132 -0.3970
11686TIP3    H156549   1.841   1.578  14.892  0.6969 -3.0818 -0.6437
11686TIP3    H256550   1.791   1.638  14.763 -0.7757 -0.6196  0.9731
11687TIP3   OH256551   3.210   1.753  16.335 -0.5635 -0.3226 -0.1401
11687TIP3    H156552   3.301   1.783  16.325 -0.7330  0.9089  1.5882
11687TIP3    H256553   3.162   1.799  16.266  0.1015 -0.9465 -1.0349
11688TIP3   OH256554   1.496   0.607  11.348  0.3352  0.1129 -0.0092
11688TIP3    H156555   1.468   0.568  11.265  0.0325 -1.1240  0.6511
11688TIP3    H256556   1.591   0.615  11.339  0.0140  3.5698 -1.9320
11689TIP3   OH256557   4.880   5.537   6.268  0.1406  0.6031  0.4679
11689TIP3    H156558   4.870   5.540   6.363  1.1780  0.5597  0.5865
11689TIP3    H256559   4.800   5.495   6.236 -1.3411  2.7461  1.1190
11690TIP3   OH256560   4.250   6.219  14.849  0.6531 -0.1755  0.0307
11690TIP3    H156561   4.234   6.265  14.932  2.2991 -0.2343  0.4028
11690TIP3    H256562   4.162   6.192  14.820 -0.1397  1.3544  0.8494
11691TIP3   OH256563   2.912   0.733  17.201  0.1957 -0.7597  0.2462
11691TIP3    H156564   2.897   0.827  17.200 -1.0741 -0.8533 -2.8692
11691TIP3    H256565   3.003   0.723  17.229  1.0167  1.5881 -1.2228
11692TIP3   OH256566   5.197   0.420  14.982 -0.0256  0.3888  0.7176
11692TIP3    H156567   5.253   0.351  14.947 -0.5514  1.6393 -3.0915
11692TIP3    H256568   5.243   0.452  15.060  2.7074 -1.0196 -0.1856
11693TIP3   OH256569   2.239   2.996  15.762  0.5342 -0.2473 -0.0187
11693TIP3    H156570   2.252   3.057  15.689  2.1044 -2.4112 -1.6665
11693TIP3    H256571   2.326   2.982  15.798 -0.2119  0.8371  2.4577
11694TIP3   OH256572   6.582   5.246  14.585 -0.0595 -0.2376  0.5487
11694TIP3    H156573   6.525   5.207  14.518  0.0889 -1.0182  0.8665
11694TIP3    H256574   6.522   5.297  14.640 -0.1878  0.3745 -0.1440
11695TIP3   OH256575   0.593   3.430   6.105 -0.0640 -0.2058  0.5769
11695TIP3    H156576   0.548   3.480   6.037  3.5083  1.2469 -0.9430
11695TIP3    H256577   0.577   3.479   6.186  0.1815  1.2462 -0.2222
11696TIP3   OH256578   2.293   1.108  15.404  0.4640  0.4325 -0.1986
11696TIP3    H156579   2.333   1.028  15.369  0.3111 -0.3399  1.3211
11696TIP3    H256580   2.230   1.134  15.337 -0.9949 -1.9200  0.1397
11697TIP3   OH256581   2.983   4.217  13.796 -0.1486 -0.9160 -0.2848
11697TIP3    H156582   3.004   4.303  13.759  0.4699 -0.6838  0.5711
11697TIP3    H256583   2.940   4.170  13.725 -1.8243  0.6053 -0.3575
11698TIP3   OH256584   3.961   0.461  16.443  0.0537 -0.0988 -0.0650
11698TIP3    H156585   3.890   0.401  16.419  0.5521 -0.8878  0.4046
11698TIP3    H256586   4.002   0.421  16.520 -0.3264  1.4166  0.9826
11699TIP3   OH256587   1.738   5.488  16.969  0.2799  0.5892 -0.1039
11699TIP3    H156588   1.714   5.438  17.047  0.4724  1.6334  0.6510
11699TIP3    H256589   1.657   5.496  16.920  0.2532 -0.4778 -0.2567
11700TIP3   OH256590   6.006   2.946  14.765  0.0921 -0.3131 -0.4796
11700TIP3    H156591   6.090   2.928  14.807 -0.2703 -0.7092  0.0965
11700TIP3    H256592   5.967   2.860  14.752 -1.0712 -0.0556  1.0624
11701TIP3   OH256593   4.867   0.554   4.843 -0.1725 -0.1340 -0.0201
11701TIP3    H156594   4.933   0.494   4.876  1.5711  1.7917  0.1837
11701TIP3    H256595   4.887   0.565   4.750  0.6204  1.4067  0.3037
11702TIP3   OH256596   1.546   3.744   6.078 -0.7350 -0.1765  0.2077
11702TIP3    H156597   1.535   3.816   6.015 -3.2446 -0.7045 -0.0687
11702TIP3    H256598   1.567   3.787   6.160  0.7143  0.6569 -0.5632
11703TIP3   OH256599   3.514   1.131   4.604  0.3425 -0.4325 -0.2687
11703TIP3    H156600   3.432   1.170   4.634  0.9573  0.1217  0.7354
11703TIP3    H256601   3.582   1.193   4.629  1.2341 -1.5828  0.2948
11704TIP3   OH256602   2.831   3.330   0.729 -0.9653  0.2485  0.2479
11704TIP3    H156603   2.887   3.320   0.806  0.7187 -0.7686 -1.0223
11704TIP3    H256604   2.746   3.296   0.756  0.3412 -2.8752  0.9053
11705TIP3   OH256605   3.241   2.072  10.366  0.5204  0.3848 -0.3607
11705TIP3    H156606   3.217   1.988  10.404 -1.9456  1.2586  0.1952
11705TIP3    H256607   3.322   2.096  10.410 -1.3576  0.6232  3.4170
11706TIP3   OH256608   5.963   3.194   5.314 -0.7456  0.2217 -0.1208
11706TIP3    H156609   5.903   3.268   5.306 -0.6682  0.8955  3.5798
11706TIP3    H256610   5.907   3.119   5.333 -0.6131  0.1257 -0.1056
11707TIP3   OH256611   4.181   0.299  13.313  0.0578  0.1655 -0.3863
11707TIP3    H156612   4.258   0.271  13.363  1.3508  2.1260 -1.1668
11707TIP3    H256613   4.208   0.290  13.221 -0.0279  2.3383 -0.6634
11708TIP3   OH256614   4.140   0.782  12.787  0.1622  0.0425  0.5369
11708TIP3    H156615   4.221   0.832  12.778  1.0912 -1.4322  0.4121
11708TIP3    H256616   4.142   0.749  12.877 -0.0346 -0.4192  0.3752
11709TIP3   OH256617   6.747   4.856  15.637  0.0993 -0.1095 -0.3934
11709TIP3    H156618   6.841   4.868  15.630 -0.1320  0.9892 -3.6850
11709TIP3    H256619   6.716   4.935  15.681  0.5509  1.0082 -1.9694
11710TIP3   OH256620   5.088   3.451   5.850 -0.3182 -0.0873  0.5193
11710TIP3    H156621   5.016   3.422   5.906  0.1264 -0.8141  0.7200
11710TIP3    H256622   5.044   3.483   5.771 -0.8478 -1.2497  0.3121
11711TIP3   OH256623   3.677   2.853  15.522  0.1930 -0.0994 -0.2497
11711TIP3    H156624   3.765   2.886  15.505 -0.4711  1.3506 -1.0358
11711TIP3    H256625   3.689   2.783  15.587  2.1331 -1.3230 -1.8344
11712TIP3   OH256626   3.655   4.620  15.969 -0.3857  0.2277 -0.0221
11712TIP3    H156627   3.678   4.645  16.058  1.8337 -0.1045 -0.4393
11712TIP3    H256628   3.657   4.524  15.969 -1.7178  0.1804 -0.1330
11713TIP3   OH256629   0.228   0.917  16.054  0.1646 -0.4928  0.0603
11713TIP3    H156630   0.318   0.889  16.069  0.3189 -0.2715 -0.4393
11713TIP3    H256631   0.214   0.989  16.115 -0.3083 -1.7725  1.5265
11714TIP3   OH256632   3.614   2.812  13.842  0.4029 -0.4565 -0.3568
11714TIP3    H156633   3.563   2.879  13.798  0.4351 -0.8544 -1.0252
11714TIP3    H256634   3.696   2.809  13.793  1.1359  0.2636  0.7817
11715TIP3   OH256635   6.484   4.826   1.027 -0.0506  0.0038  0.2783
11715TIP3    H156636   6.394   4.793   1.022  0.0345 -0.2150  0.1757
11715TIP3    H256637   6.486   4.879   1.106 -0.4426  0.5287 -0.0567
11716TIP3   OH256638   2.786   3.524   3.782  0.1238  0.3173 -0.1080
11716TIP3    H156639   2.707   3.567   3.817 -0.3678 -0.7155  0.0762
11716TIP3    H256640   2.806   3.573   3.702 -0.7116  0.5920 -0.1572
11717TIP3   OH256641   3.560   0.410   0.345 -0.0187  0.0193  0.2067
11717TIP3    H156642   3.499   0.382   0.414 -0.7520  0.6492 -0.1685
11717TIP3    H256643   3.564   0.336   0.285 -0.2211 -0.1227  0.3669
11718TIP3   OH256644   0.651   6.602   2.059  0.3202 -0.1418  0.1963
11718TIP3    H156645   0.729   6.633   2.012  0.3035 -0.8255 -0.3065
11718TIP3    H256646   0.662   6.634   2.148  0.3271  1.2496 -0.2823
11719TIP3   OH256647   6.188   2.415  16.118 -0.0299  0.5681  0.3044
11719TIP3    H156648   6.131   2.384  16.188 -0.6869  0.3041 -0.3410
11719TIP3    H256649   6.263   2.453  16.164 -0.0059 -0.4431  1.1433
11720TIP3   OH256650   1.622   4.239   0.321  0.3278 -0.4423  0.1002
11720TIP3    H156651   1.667   4.297   0.261 -0.5129  0.9724  0.7893
11720TIP3    H256652   1.616   4.155   0.274  0.0344  0.5018 -1.6147
11721TIP3   OH256653   0.421   6.689   3.316 -0.0023  0.0314  0.1502
11721TIP3    H156654   0.509   6.677   3.349  0.1026  0.5304  0.0625
11721TIP3    H256655   0.368   6.623   3.362  0.4690 -0.4796 -0.0340
11722TIP3   OH256656   6.197   5.242   1.268  0.5955  0.1158  0.2372
11722TIP3    H156657   6.120   5.188   1.248  1.4081 -1.0908  0.2316
11722TIP3    H256658   6.172   5.330   1.241 -0.1739 -0.5600 -1.4098
11723TIP3   OH256659   0.579   4.149   3.304 -0.6653  0.2220 -0.3787
11723TIP3    H156660   0.555   4.176   3.215  0.1507  0.9706 -0.3869
11723TIP3    H256661   0.495   4.140   3.349 -1.0635  3.0101 -0.3450
11724TIP3   OH256662   5.354   4.182   0.553  0.2396 -0.0838 -0.4495
11724TIP3    H156663   5.359   4.179   0.649  0.5862 -1.8611 -0.4885
11724TIP3    H256664   5.445   4.168   0.524  0.0071 -0.4174 -1.0343
11725TIP3   OH256665   2.044   6.764   0.873 -0.1120 -0.2204 -0.1533
11725TIP3    H156666   1.977   6.706   0.909 -0.5483 -0.2877 -1.0727
11725TIP3    H256667   1.996   6.841   0.843  0.6046  1.4560  2.5566
11726TIP3   OH256668   1.061   4.238  13.589  0.0142 -0.1452 -0.1700
11726TIP3    H156669   0.998   4.250  13.518  0.2034 -0.0466 -0.3192
11726TIP3    H256670   1.146   4.255  13.549  0.0091  1.5568  0.4589
11727TIP3   OH256671   0.063   3.421  11.483  0.0462  0.1453  0.0594
11727TIP3    H156672  -0.020   3.378  11.464 -0.0164  0.4356 -0.3277
11727TIP3    H256673   0.127   3.373  11.430  0.0178  0.3614 -0.1696
11728TIP3   OH256674   2.035   2.251  11.753 -0.1678  0.6583  0.2329
11728TIP3    H156675   2.038   2.211  11.666  0.5756 -0.5421  0.7849
11728TIP3    H256676   2.075   2.338  11.741 -1.0627  0.9486 -0.8235
11729TIP3   OH256677   5.274   5.800  14.686 -0.6843  0.0829 -0.0191
11729TIP3    H156678   5.245   5.886  14.658 -1.2677  0.4230  1.5285
11729TIP3    H256679   5.290   5.809  14.780  1.2218 -0.9792 -0.1917
11730TIP3   OH256680   5.284   3.384  15.672 -0.3642 -0.0606 -0.3588
11730TIP3    H156681   5.243   3.467  15.649 -0.7966 -0.7911 -2.4560
11730TIP3    H256682   5.218   3.338  15.724 -0.1805  0.8269  0.6797
11731TIP3   OH256683   0.397   5.157   1.865 -0.0499  0.3894  0.2820
11731TIP3    H156684   0.351   5.119   1.790 -0.9232  1.3709  0.2915
11731TIP3    H256685   0.372   5.250   1.863 -1.1447  0.2061  2.5442
11732TIP3   OH256686   6.083   3.904  12.050 -0.2446 -0.4515  0.6685
11732TIP3    H156687   6.127   3.894  11.966 -0.0820 -1.4324  0.8633
11732TIP3    H256688   5.991   3.922  12.027 -0.2035 -0.7304  0.2866
11733TIP3   OH256689   1.222   4.256   5.529  0.6119 -0.2985 -0.4521
11733TIP3    H156690   1.245   4.194   5.459  1.0082  0.2062 -0.7717
11733TIP3    H256691   1.300   4.261   5.584  0.5785 -0.0856 -0.4233
11734TIP3   OH256692   5.550   2.378   2.484  0.5782 -0.1099 -0.1240
11734TIP3    H156693   5.540   2.414   2.572  0.1065 -0.5432  0.0028
11734TIP3    H256694   5.645   2.373   2.471  0.6546 -0.1970  0.4261
11735TIP3   OH256695   5.387   4.168  12.568 -0.6640  0.0549  0.0774
11735TIP3    H156696   5.419   4.228  12.636 -1.2391  0.2300  0.1998
11735TIP3    H256697   5.404   4.214  12.486  2.1581 -1.1192 -0.0979
11736TIP3   OH256698   6.036   6.585   2.720  0.1382 -0.0541  0.8451
11736TIP3    H156699   6.046   6.665   2.771  0.0660 -0.4008  1.4155
11736TIP3    H256700   5.964   6.538   2.763  1.4946 -1.3669  1.7853
11737TIP3   OH256701   5.656   0.421  16.613  0.3425  0.2701  0.9626
11737TIP3    H156702   5.728   0.453  16.667  3.2276  0.4709 -2.5695
11737TIP3    H256703   5.673   0.327  16.604  1.3415  0.5793 -1.2239
11738TIP3   OH256704   6.273   4.413  14.963 -0.8938 -0.4759 -1.1320
11738TIP3    H156705   6.246   4.504  14.957  1.2423  0.3307  0.1480
11738TIP3    H256706   6.207   4.372  15.020 -1.4466  0.4666 -1.0785
11739TIP3   OH256707   4.395   1.864   3.076 -0.1991  0.7634 -0.1375
11739TIP3    H156708   4.419   1.944   3.029  0.4538  0.8735  0.3806
11739TIP3    H256709   4.448   1.865   3.155 -0.3060 -0.1039 -0.0421
11740TIP3   OH256710   2.701   0.887  13.101 -0.6560  0.1705 -0.3816
11740TIP3    H156711   2.759   0.882  13.025  1.0681  0.8709  0.8241
11740TIP3    H256712   2.658   0.972  13.093  1.0855  1.1857  0.4387
11741TIP3   OH256713   1.036   0.849  15.666  0.0797 -0.0975 -0.2192
11741TIP3    H156714   0.989   0.890  15.739  0.2483 -0.6888  0.2274
11741TIP3    H256715   1.032   0.755  15.684  1.2711 -0.1729 -0.2817
11742TIP3   OH256716   6.571   2.563  12.071 -0.1565  0.1570 -0.4240
11742TIP3    H156717   6.641   2.607  12.024 -1.4493  1.2561 -1.3813
11742TIP3    H256718   6.598   2.565  12.163  1.2235  0.2097 -0.8120
11743TIP3   OH256719   5.728   6.478  12.575 -0.5173 -0.5698 -0.3283
11743TIP3    H156720   5.668   6.407  12.552 -0.6311 -1.1166  1.5131
11743TIP3    H256721   5.814   6.437  12.579 -0.3107 -0.2175 -0.9387
11744TIP3   OH256722   0.559   1.417  13.138 -0.4118  0.5915 -0.4220
11744TIP3    H156723   0.619   1.484  13.106 -0.0494  0.9084  0.8532
11744TIP3    H256724   0.616   1.350  13.177 -0.8172  0.0764 -0.7014
11745TIP3   OH256725   0.466   6.623  14.150 -1.0968 -0.5586 -0.3151
11745TIP3    H156726   0.434   6.687  14.214 -0.4024 -0.0413 -0.4758
11745TIP3    H256727   0.388   6.600  14.099 -1.7304 -1.2069  0.8832
11746TIP3   OH256728   1.062   3.898  17.165  0.1140 -0.2340  0.1407
11746TIP3    H156729   1.072   3.935  17.252  0.0800  0.7546 -0.2573
11746TIP3    H256730   1.075   3.973  17.106  0.8199 -1.0061 -0.7237
11747TIP3   OH256731   6.124   5.832   5.387 -0.3785  0.3806  0.1178
11747TIP3    H156732   6.199   5.774   5.371 -0.3580  1.0028 -2.4930
11747TIP3    H256733   6.048   5.781   5.358 -0.7377  0.5248  0.7870
11748TIP3   OH256734   0.305   5.139  11.865  0.2288  0.2033 -0.0599
11748TIP3    H156735   0.338   5.119  11.953 -1.2296  0.7472  0.6435
11748TIP3    H256736   0.379   5.122  11.807  1.3629  0.2631  1.3184
11749TIP3   OH256737   0.492   4.436   0.958 -0.2733  0.1485 -0.2434
11749TIP3    H156738   0.538   4.483   1.027  0.1434  0.0669 -0.4635
11749TIP3    H256739   0.435   4.374   1.005  0.1631 -0.0543  0.0220
11750TIP3   OH256740   1.239   1.546  12.944  0.1170 -0.2865  0.6848
11750TIP3    H156741   1.327   1.577  12.964 -0.3448  1.2583  0.4725
11750TIP3    H256742   1.185   1.579  13.015 -0.7006  0.9967 -0.4827
11751TIP3   OH256743   5.943   5.885   2.315 -0.5224 -0.3873 -0.0871
11751TIP3    H156744   5.954   5.889   2.410 -2.3441 -2.2459  0.2672
11751TIP3    H256745   5.854   5.854   2.302  0.2198 -1.8030 -2.3922
11752TIP3   OH256746   1.029   3.095   3.064  0.2141  0.3604  0.0716
11752TIP3    H156747   1.020   3.185   3.098 -0.6327  0.5922 -0.7171
11752TIP3    H256748   0.939   3.061   3.064 -0.0012  0.7099 -2.7970
11753TIP3   OH256749   1.414   5.353  15.661  0.0610 -0.0129  0.5326
11753TIP3    H156750   1.400   5.334  15.568  0.7634  0.2338  0.3676
11753TIP3    H256751   1.505   5.331  15.676 -0.2078 -0.6090  1.3165
11754TIP3   OH256752   1.696   5.701   0.211  0.4207  0.2819 -0.7281
11754TIP3    H156753   1.665   5.657   0.132  0.7093  2.0903 -1.9238
11754TIP3    H256754   1.617   5.737   0.251  0.3342 -0.1675 -0.4937
11755TIP3   OH256755   5.294   2.977  14.770 -0.7332 -0.0990 -0.4514
11755TIP3    H156756   5.287   2.994  14.864  0.8966 -2.2046  0.1392
11755TIP3    H256757   5.296   3.063  14.730 -1.5608  0.8508  1.4345
11756TIP3   OH256758   1.756   4.765  14.906 -0.4696 -0.2350  0.1375
11756TIP3    H156759   1.662   4.764  14.891 -0.1614 -1.1191 -2.0385
11756TIP3    H256760   1.779   4.858  14.907 -1.3495 -0.0099  0.7119
11757TIP3   OH256761   0.293   5.236   6.148 -0.1151 -0.1503  1.0868
11757TIP3    H156762   0.301   5.238   6.053  1.1462  0.7034  1.1914
11757TIP3    H256763   0.381   5.217   6.180 -0.4636 -0.1616  2.0991
11758TIP3   OH256764   1.610   3.294   5.025 -0.5997 -0.2206 -0.1363
11758TIP3    H156765   1.615   3.218   4.966  0.1176  0.0757 -0.4723
11758TIP3    H256766   1.675   3.355   4.990  0.3227 -0.3026  1.3360
11759TIP3   OH256767   6.207   0.074  16.974  0.2690  0.4261 -0.5837
11759TIP3    H156768   6.177   0.083  16.884  0.1743 -2.0724 -0.8919
11759TIP3    H256769   6.177  -0.014  17.000 -0.3500  1.3472  2.1405
11760TIP3   OH256770   3.122   0.863  12.792 -0.0647 -0.5602  0.3868
11760TIP3    H156771   3.183   0.800  12.832 -1.0404 -1.3998  0.5764
11760TIP3    H256772   3.156   0.876  12.704  0.3639 -1.0510  0.4718
11761TIP3   OH256773   0.631   2.139   3.222  0.8398  0.2375  0.2689
11761TIP3    H156774   0.651   2.161   3.131 -1.3402 -0.1137 -0.3482
11761TIP3    H256775   0.621   2.224   3.265  1.2203  0.4087  0.0274
11762TIP3   OH256776   6.680   2.549  12.340  1.0012 -0.6110 -0.2764
11762TIP3    H156777   6.703   2.526  12.430  0.0425 -2.6886 -0.5167
11762TIP3    H256778   6.646   2.638  12.346  0.7270 -0.8009  1.4756
11763TIP3   OH256779   6.324   6.731   0.464  0.2241 -0.1872 -0.3113
11763TIP3    H156780   6.274   6.664   0.417  1.2751 -1.0462 -0.2545
11763TIP3    H256781   6.357   6.789   0.396  2.0904 -1.6612 -0.7651
11764TIP3   OH256782   4.773   4.971   5.730  0.0217 -0.2206 -0.1264
11764TIP3    H156783   4.784   4.902   5.664  1.0064 -0.2145  0.0173
11764TIP3    H256784   4.750   4.925   5.810 -1.3677 -0.2160 -0.4885
11765TIP3   OH256785   6.174   0.943   6.347  0.3576  0.3484  0.0106
11765TIP3    H156786   6.137   0.861   6.379  0.6842 -0.0874 -0.6999
11765TIP3    H256787   6.262   0.946   6.386  0.9650 -0.4513 -1.2273
11766TIP3   OH256788   0.622   3.962   2.226 -0.1649 -0.2136  0.2127
11766TIP3    H156789   0.716   3.948   2.225 -0.1451 -0.1147  0.6958
11766TIP3    H256790   0.607   4.021   2.299 -0.6184 -0.3353  0.2212
11767TIP3   OH256791   5.205   6.063  16.575 -0.9576  0.2021  0.6391
11767TIP3    H156792   5.146   5.995  16.607 -0.6778  0.7850  2.4852
11767TIP3    H256793   5.293   6.031  16.596 -0.6409 -0.0667 -0.9275
11768TIP3   OH256794   1.872   3.570  16.918  0.0087 -0.0864 -0.1184
11768TIP3    H156795   1.813   3.516  16.971  0.6042 -1.2689 -0.6334
11768TIP3    H256796   1.843   3.659  16.934  0.6979 -0.3003  2.9132
11769TIP3   OH256797   5.367   5.062   3.524  0.0791  0.1122  0.0349
11769TIP3    H156798   5.303   5.130   3.544  1.1682  1.6612 -1.4869
11769TIP3    H256799   5.450   5.096   3.556  0.3603 -1.4322  1.0826
11770TIP3   OH256800   3.958   1.377   5.306 -0.3472 -0.1203  0.1100
11770TIP3    H156801   3.934   1.306   5.365 -0.5744  0.8934  1.2680
11770TIP3    H256802   3.980   1.333   5.224 -2.3460 -1.3793  0.1888
11771TIP3   OH256803   3.573   6.767   1.912  0.3835  0.4270 -0.3471
11771TIP3    H156804   3.599   6.701   1.977  0.8094 -0.2722 -1.2017
11771TIP3    H256805   3.626   6.746   1.835 -2.5970 -1.0606 -2.1902
11772TIP3   OH256806   3.412   2.879  15.494 -0.1088  0.9555 -0.3504
11772TIP3    H156807   3.420   2.895  15.400 -2.6489  0.2790 -0.7643
11772TIP3    H256808   3.502   2.862  15.523  0.6629  0.3578 -2.8065
11773TIP3   OH256809   4.193   1.213  15.641 -0.9374  0.1770  0.5303
11773TIP3    H156810   4.195   1.127  15.683  0.5776  0.6824  1.5510
11773TIP3    H256811   4.251   1.267  15.694  1.0416  0.8758 -2.1538
11774TIP3   OH256812   5.411   5.928   3.461  0.0331 -0.3935  0.2124
11774TIP3    H156813   5.490   5.890   3.423  0.3858 -0.3085  0.8477
11774TIP3    H256814   5.358   5.953   3.386  0.8722  0.0962 -0.2330
11775TIP3   OH256815   1.722   2.294   2.969 -0.7641 -0.4552  0.7380
11775TIP3    H156816   1.779   2.257   2.901 -1.2046  0.3422 -0.0957
11775TIP3    H256817   1.743   2.244   3.048  0.6033 -0.6256  0.2958
11776TIP3   OH256818   5.994   6.003   4.029  0.1596  0.1313 -0.1674
11776TIP3    H156819   6.044   6.036   3.954  1.0046  0.6143  0.6073
11776TIP3    H256820   6.055   6.003   4.102 -0.4210 -1.1315  0.3549
11777TIP3   OH256821   0.042   3.815  11.061  0.4437  0.4187  0.5998
11777TIP3    H156822   0.057   3.721  11.057  0.6683  0.5011 -1.5984
11777TIP3    H256823  -0.033   3.826  11.119  0.2538 -1.1279  0.6658
11778TIP3   OH256824   3.363   6.733  14.469 -0.5730 -0.5126  0.1986
11778TIP3    H156825   3.299   6.701  14.532  0.4375 -0.6396  1.2087
11778TIP3    H256826   3.334   6.821  14.448 -0.6074 -0.2396  1.3223
11779TIP3   OH256827   0.815   6.824   4.300  0.1516 -0.0247  0.6996
11779TIP3    H156828   0.752   6.758   4.271 -0.1487 -0.8791  3.0641
11779TIP3    H256829   0.778   6.907   4.271  1.3195 -0.8187 -3.7849
11780TIP3   OH256830   0.599   1.301   2.854  0.6013  0.1592  0.1948
11780TIP3    H156831   0.509   1.319   2.828  0.8807 -1.7488 -2.5697
11780TIP3    H256832   0.646   1.383   2.836 -0.3349  0.7802  0.4929
11781TIP3   OH256833   6.630   4.530   1.324 -0.3961  0.4042 -0.0275
11781TIP3    H156834   6.540   4.517   1.357 -0.2640 -1.4751 -0.2817
11781TIP3    H256835   6.619   4.539   1.229 -0.3876  1.2665  0.0451
11782TIP3   OH256836   4.778   0.918  15.606  0.0011 -0.3638  0.4784
11782TIP3    H156837   4.806   0.992  15.660  0.4584  0.4850 -0.9045
11782TIP3    H256838   4.742   0.957  15.527  0.1513 -1.6142 -0.2343
11783TIP3   OH256839   5.660   0.474  16.335  0.0127  0.4131  0.3460
11783TIP3    H156840   5.588   0.419  16.303  1.8563 -1.3442 -1.0214
11783TIP3    H256841   5.657   0.464  16.430 -1.5141  0.3823  0.3218
11784TIP3   OH256842   3.391   0.740  12.541 -0.0308  0.5553 -0.1659
11784TIP3    H156843   3.390   0.816  12.483 -0.2488 -0.5742 -1.6956
11784TIP3    H256844   3.298   0.724  12.560  0.0110  0.6107  0.0930
11785TIP3   OH256845   5.732   2.931  15.186  0.2802  0.1065 -0.2183
11785TIP3    H156846   5.821   2.911  15.216  0.5813 -1.1277 -1.8092
11785TIP3    H256847   5.738   3.021  15.154  0.3550  0.8464  1.7142
11786TIP3   OH256848   0.975   0.223  16.395 -0.1860  0.1483 -0.4308
11786TIP3    H156849   0.963   0.147  16.339  0.8934  1.1475 -2.1246
11786TIP3    H256850   0.887   0.261  16.403 -0.4623 -0.3806 -0.9061
11787TIP3   OH256851   3.240   6.027   5.750  0.0338  0.4898 -0.3549
11787TIP3    H156852   3.193   6.109   5.734  0.7651  1.1183  0.5716
11787TIP3    H256853   3.264   6.031   5.843  2.4134  0.5000 -0.9107
11788TIP3   OH256854   4.268   1.949   0.752  0.2839 -0.3918 -0.6061
11788TIP3    H156855   4.342   2.001   0.783 -0.0768 -0.2731  0.0817
11788TIP3    H256856   4.244   1.894   0.827 -0.0782 -0.7087 -0.9477
11789TIP3   OH256857   2.008   5.626   7.048  0.0712 -0.2124 -1.0324
11789TIP3    H156858   1.955   5.551   7.022  1.2435 -0.1584 -4.0353
11789TIP3    H256859   1.951   5.702   7.037 -0.8260 -0.5187  1.1049
11790TIP3   OH256860   6.253   6.135   5.607  0.4677  0.7897  0.4919
11790TIP3    H156861   6.261   6.140   5.512 -0.4389  1.2001  0.4288
11790TIP3    H256862   6.303   6.210   5.639  2.5420 -0.5074  0.4699
11791TIP3   OH256863   1.270   4.656  14.813 -0.4690  0.0020  0.0774
11791TIP3    H156864   1.336   4.634  14.747 -0.8878  1.6442 -0.9409
11791TIP3    H256865   1.271   4.751  14.818 -1.6275 -0.0194  1.2345
11792TIP3   OH256866   2.480   6.404   2.368 -0.4549  0.0826  0.2890
11792TIP3    H156867   2.519   6.370   2.288 -0.9932  0.2681 -0.0556
11792TIP3    H256868   2.429   6.480   2.340 -0.9022 -0.0364  0.7527
11793TIP3   OH256869   6.494   4.772  15.106  0.1158 -0.0802  0.2881
11793TIP3    H156870   6.451   4.750  15.189  1.0767  1.8528  1.3884
11793TIP3    H256871   6.584   4.741  15.117  0.3446  0.5179  0.1332
11794TIP3   OH256872   4.653   6.223   5.895  0.3308  0.2784  0.4523
11794TIP3    H156873   4.689   6.201   5.809 -0.6003 -2.0840  0.5761
11794TIP3    H256874   4.726   6.263   5.942  0.6152  2.4392 -1.6629
11795TIP3   OH256875   4.033   4.737   5.360  0.1011  0.1706  0.2898
11795TIP3    H156876   3.964   4.685   5.320  0.7074 -2.0289  1.8945
11795TIP3    H256877   4.007   4.746   5.451  2.7571 -2.5476  1.4946
11796TIP3   OH256878   6.218   3.964   3.343  0.3851  0.7859  0.3355
11796TIP3    H156879   6.302   3.982   3.385  0.2060  1.2576  0.4971
11796TIP3    H256880   6.210   4.033   3.276 -1.5262  3.0294  2.6828
11797TIP3   OH256881   6.612   0.923  15.979 -0.1958 -0.2262 -0.5147
11797TIP3    H156882   6.572   0.888  16.058 -0.0811 -1.3346 -0.9289
11797TIP3    H256883   6.693   0.874  15.968  2.3198  3.1110  1.2460
11798TIP3   OH256884   2.742   3.447  14.692  0.3871 -0.0493  0.2497
11798TIP3    H156885   2.780   3.534  14.678  1.1063 -0.1545  1.3814
11798TIP3    H256886   2.709   3.421  14.606  2.0821  0.4526 -0.6072
11799TIP3   OH256887   3.581   2.733   5.612 -0.4800  0.4083 -0.3833
11799TIP3    H156888   3.666   2.714   5.573 -0.1052  1.1179  0.0657
11799TIP3    H256889   3.601   2.770   5.698 -1.3029 -1.4318  0.6562
11800TIP3   OH256890   2.852   1.696   0.135 -0.2019 -0.0436  0.1753
11800TIP3    H156891   2.831   1.771   0.080  0.6842  0.6405  0.7474
11800TIP3    H256892   2.803   1.710   0.216  0.4772  0.2721  0.5395
11801TIP3   OH256893   0.401   6.128  16.200  0.1690  0.0421 -0.1758
11801TIP3    H156894   0.391   6.065  16.128 -1.9591 -1.2483  1.1242
11801TIP3    H256895   0.486   6.108  16.239  1.2820  0.6446 -2.1501
11802TIP3   OH256896   0.969   6.597  11.189 -0.3197  0.7177  0.4373
11802TIP3    H156897   0.881   6.610  11.224 -0.8879 -0.2757 -0.5625
11802TIP3    H256898   0.966   6.512  11.146  1.4744  0.0836  1.4094
11803TIP3   OH256899   5.247   0.450   2.513 -0.2256  0.7507 -0.6995
11803TIP3    H156900   5.198   0.373   2.482 -3.8261  1.2528  2.8993
11803TIP3    H256901   5.205   0.524   2.470 -2.2634  1.1227  1.7473
11804TIP3   OH256902   6.387   2.231   1.087  0.1533 -0.6677  0.0465
11804TIP3    H156903   6.479   2.243   1.113  0.0467 -0.8637  0.5352
11804TIP3    H256904   6.374   2.291   1.014  0.5653 -0.3574  0.2267
11805TIP3   OH256905   3.560   4.257  15.690  0.3212 -0.0401 -0.6090
11805TIP3    H156906   3.547   4.199  15.765  0.7665 -1.0930 -1.3219
11805TIP3    H256907   3.515   4.213  15.617  2.3147 -0.5685 -1.6327
11806TIP3   OH256908   1.021   0.100   3.518 -0.3622 -0.1932 -0.7803
11806TIP3    H156909   0.972   0.175   3.484  1.0713  0.8992 -0.5990
11806TIP3    H256910   1.067   0.136   3.595  1.2815 -0.9029 -1.3763
11807TIP3   OH256911   2.897   5.892  11.820 -0.2663 -0.2075 -0.1396
11807TIP3    H156912   2.893   5.983  11.791 -0.3460  0.3762  1.5615
11807TIP3    H256913   2.806   5.870  11.841 -0.7848 -1.7478 -3.3749
11808TIP3   OH256914   3.890   2.831  11.868  0.2467 -0.7546 -0.1098
11808TIP3    H156915   3.821   2.796  11.925 -1.4010  0.6572 -1.1338
11808TIP3    H256916   3.916   2.913  11.911  2.3691 -1.9333  1.0103
11809TIP3   OH256917   3.785   3.028   2.768 -0.2534  0.6660 -0.0682
11809TIP3    H156918   3.764   3.034   2.675  0.6849  0.6640 -0.2862
11809TIP3    H256919   3.865   3.079   2.778 -0.4066  0.7572  0.7637
11810TIP3   OH256920   3.220   5.515   0.216 -0.0389  0.0192  0.3214
11810TIP3    H156921   3.172   5.507   0.134  0.4590 -0.6549  0.0928
11810TIP3    H256922   3.189   5.598   0.254 -0.0992  0.4568 -0.6510
11811TIP3   OH256923   1.643   4.231  14.326 -0.2629  0.0941 -0.0442
11811TIP3    H156924   1.693   4.312  14.339  0.8201 -0.2920 -1.4813
11811TIP3    H256925   1.621   4.232  14.232 -1.1888 -0.7556  0.1532
11812TIP3   OH256926   2.385   4.345   0.722  0.0411  0.2717  0.2742
11812TIP3    H156927   2.415   4.379   0.638 -0.2869 -0.6493 -0.2301
11812TIP3    H256928   2.290   4.360   0.721  0.0739  0.5157  0.6060
11813TIP3   OH256929   6.405   6.021   4.297  0.5937  0.4155  0.5433
11813TIP3    H156930   6.412   5.995   4.205 -0.0876  0.0976  0.5728
11813TIP3    H256931   6.474   5.972   4.341  1.5507  1.2989  0.0598
11814TIP3   OH256932   4.199   3.942   1.180 -0.2850  0.2896 -0.5553
11814TIP3    H156933   4.202   3.988   1.264 -0.3480  0.4252 -0.6266
11814TIP3    H256934   4.284   3.962   1.139 -0.6724  1.1100 -0.9876
11815TIP3   OH256935   0.443   2.644  12.429 -0.1521  0.2000  0.2079
11815TIP3    H156936   0.407   2.558  12.452  2.4152 -1.4652 -1.4362
11815TIP3    H256937   0.400   2.705  12.489 -3.0898 -1.9847  0.5699
11816TIP3   OH256938   1.095   3.608  14.336 -0.4249  0.5578 -0.6029
11816TIP3    H156939   1.173   3.553  14.345  0.0081  0.8678 -2.1005
11816TIP3    H256940   1.021   3.548  14.345  0.0345 -0.1523 -1.4834
11817TIP3   OH256941   2.704   5.598  16.780 -0.2878 -0.2679 -0.4528
11817TIP3    H156942   2.713   5.690  16.804 -0.0306 -0.4483  0.1653
11817TIP3    H256943   2.792   5.562  16.789 -0.2038 -0.3762 -1.5744
11818TIP3   OH256944   3.295   4.698  14.677  0.2137 -0.1674 -0.6432
11818TIP3    H156945   3.341   4.674  14.757 -0.5151 -1.2000 -0.5090
11818TIP3    H256946   3.206   4.720  14.706  0.1695  0.2667 -1.0768
11819TIP3   OH256947   5.521   3.823  16.342  0.8317  0.0996  0.2237
11819TIP3    H156948   5.537   3.843  16.250 -0.4413 -0.9865 -0.2679
11819TIP3    H256949   5.428   3.802  16.347  1.3855 -2.5896  1.2101
11820TIP3   OH256950   2.461   0.386  14.874  0.0499  0.2423 -0.5005
11820TIP3    H156951   2.527   0.411  14.938 -0.4460  0.4043 -0.0408
11820TIP3    H256952   2.482   0.437  14.796  0.7813 -0.1079 -0.5388
11821TIP3   OH256953   3.283   2.906   3.996 -0.3729 -0.2002 -0.1615
11821TIP3    H156954   3.211   2.926   3.936 -1.2097 -0.1858  0.8283
11821TIP3    H256955   3.361   2.937   3.950 -1.0478  0.2484 -1.0364
11822TIP3   OH256956   5.736   4.922  17.009  0.0972  0.0243 -0.5470
11822TIP3    H156957   5.666   4.884  17.062 -0.4188  2.3159  0.5465
11822TIP3    H256958   5.736   4.870  16.929 -1.3115 -1.4812  0.3656
11823TIP3   OH256959   2.301   6.025  17.066 -0.2452  0.1539  0.1099
11823TIP3    H156960   2.392   6.000  17.080 -0.1068 -0.2644 -1.3634
11823TIP3    H256961   2.257   5.944  17.041 -0.3207  0.8567 -2.2838
11824TIP3   OH256962   1.126   3.792   5.695  0.4272  0.6080 -0.2584
11824TIP3    H156963   1.154   3.729   5.762  1.3064  1.2079 -0.0366
11824TIP3    H256964   1.042   3.759   5.665 -1.3605  1.7297  3.0350
11825TIP3   OH256965   6.362   0.055  10.774  0.0054 -0.4141 -0.2893
11825TIP3    H156966   6.269   0.058  10.752 -0.0167  1.6854 -0.1184
11825TIP3    H256967   6.406   0.038  10.691 -0.4835 -0.5663 -0.5214
11826TIP3   OH256968   0.724   6.466   1.085 -0.4536  0.4184 -0.3976
11826TIP3    H156969   0.809   6.495   1.118 -0.0060 -1.4450  0.2109
11826TIP3    H256970   0.679   6.433   1.163  0.7372 -4.3769 -1.4472
11827TIP3   OH256971   4.428   3.449   0.926 -0.5590 -0.1610 -0.8486
11827TIP3    H156972   4.463   3.459   1.015 -0.4391  1.4226 -1.0449
11827TIP3    H256973   4.349   3.396   0.938 -0.7498  0.3352  0.2592
11828TIP3   OH256974   3.691   4.651  17.149 -0.7530  0.1429  0.1438
11828TIP3    H156975   3.709   4.732  17.101 -0.4136  1.0600  1.7555
11828TIP3    H256976   3.726   4.581  17.093  0.1942  1.2284 -0.6477
11829TIP3   OH256977   5.096   1.279  15.693 -0.1770  0.7965 -0.1466
11829TIP3    H156978   5.150   1.344  15.737 -0.0140 -1.4243  3.2760
11829TIP3    H256979   5.140   1.265  15.609  1.9630  2.3135  0.6236
11830TIP3   OH256980   5.233   2.589   2.446  0.0671 -0.1241  0.6951
11830TIP3    H156981   5.298   2.660   2.446 -1.0279  0.9729 -1.1827
11830TIP3    H256982   5.270   2.523   2.388  1.1252 -1.2339  2.5080
11831TIP3   OH256983   0.260   2.764   4.970  0.0007 -0.1862  0.0673
11831TIP3    H156984   0.175   2.766   5.014 -0.6219 -1.3059 -1.0196
11831TIP3    H256985   0.296   2.677   4.991  0.3810 -0.1450 -0.3948
11832TIP3   OH256986   2.794   3.369   2.073  0.4595 -0.4883 -0.1714
11832TIP3    H156987   2.772   3.307   2.143 -4.5271 -0.4902 -1.3574
11832TIP3    H256988   2.774   3.455   2.111 -3.4756 -0.5532 -1.6305
11833TIP3   OH256989   0.797   0.416  12.040  0.0041  0.3393 -0.0475
11833TIP3    H156990   0.788   0.464  11.958 -0.6211  2.3070  1.0883
11833TIP3    H256991   0.881   0.371  12.033  1.3323  2.7628 -0.6716
11834TIP3   OH256992   0.804   2.511   4.518 -0.1438  0.2924 -0.3297
11834TIP3    H156993   0.815   2.442   4.453  0.3964 -0.2342  0.3177
11834TIP3    H256994   0.711   2.535   4.512 -0.5857 -1.2340  0.2018
11835TIP3   OH256995   4.115   1.367   2.130  0.5349  0.1460 -0.0785
11835TIP3    H156996   4.038   1.323   2.095  0.1360  0.2977  0.5731
11835TIP3    H256997   4.174   1.378   2.055  0.7249 -1.6283 -0.2265
11836TIP3   OH256998   1.606   5.711  15.273  0.3333  0.0864 -0.2074
11836TIP3    H156999   1.606   5.679  15.363  3.8300 -2.1760 -0.8531
11836TIP3    H257000   1.619   5.805  15.282 -2.7642  0.5119  1.5814
11837TIP3   OH257001   4.178   5.638   0.759  0.4695 -0.5806 -0.3552
11837TIP3    H157002   4.215   5.714   0.803 -1.3125  0.9872 -1.3837
11837TIP3    H257003   4.202   5.649   0.667 -1.8020  0.1179 -0.9328
11838TIP3   OH257004   3.124   0.570   1.752 -0.1438  0.2539 -0.0608
11838TIP3    H157005   3.116   0.515   1.674  1.1559  2.2542 -1.7190
11838TIP3    H257006   3.213   0.605   1.747 -0.6186  1.7700  1.4052
11839TIP3   OH257007   4.916   5.480  12.046 -0.1896 -0.0946  0.0736
11839TIP3    H157008   4.937   5.569  12.017 -3.0412 -0.6206 -4.4815
11839TIP3    H257009   4.984   5.425  12.007  0.2804 -0.1816  0.9830
11840TIP3   OH257010   5.330   3.714  11.249  0.3973 -0.0566  0.5267
11840TIP3    H157011   5.325   3.802  11.213  0.7754 -0.3645 -0.2791
11840TIP3    H257012   5.265   3.664  11.200 -0.4500 -0.0365  1.5775
11841TIP3   OH257013   6.358   1.948   2.096  0.1780  0.4729  0.1627
11841TIP3    H157014   6.443   1.991   2.096  1.8643 -2.5963 -0.6343
11841TIP3    H257015   6.324   1.961   2.008  0.7896  0.0262 -0.1473
11842TIP3   OH257016   5.504   5.542   1.738 -0.0916  0.2976  0.0544
11842TIP3    H157017   5.521   5.527   1.831  0.9118  2.0571  0.1911
11842TIP3    H257018   5.473   5.632   1.733 -0.1100  0.2415 -1.3275
11843TIP3   OH257019   4.165   6.392  13.936  0.2238  0.4209 -0.5905
11843TIP3    H157020   4.204   6.316  13.977 -1.8113 -0.0527  0.5722
11843TIP3    H257021   4.092   6.416  13.992 -1.0581  1.3738 -2.5389
11844TIP3   OH257022   3.746   2.376  12.008  0.2441  0.4281  0.2671
11844TIP3    H157023   3.663   2.347  12.047  0.5125 -0.4091  0.2385
11844TIP3    H257024   3.772   2.304  11.951  0.2794  1.2825 -0.8362
11845TIP3   OH257025   2.411   4.530   5.632 -0.2671 -0.3857 -0.3103
11845TIP3    H157026   2.390   4.538   5.725 -2.0020  1.9613 -0.8149
11845TIP3    H257027   2.377   4.444   5.607 -3.6825  0.6092  0.3884
11846TIP3   OH257028   4.845   5.958   5.259  0.9292  0.0361  0.5060
11846TIP3    H157029   4.901   6.004   5.197  2.7861 -1.2373  1.1217
11846TIP3    H257030   4.831   6.020   5.330  0.5224  0.7890 -0.2208
11847TIP3   OH257031   0.007   2.116   5.184 -0.3970 -0.3966 -0.0845
11847TIP3    H157032  -0.019   2.200   5.145  0.1485 -0.1124  0.1579
11847TIP3    H257033  -0.059   2.100   5.252 -2.6841 -1.9738 -2.4836
11848TIP3   OH257034   2.178   6.208   2.801  0.1225 -0.4879 -0.0734
11848TIP3    H157035   2.138   6.136   2.850  1.1849 -1.1467 -0.1363
11848TIP3    H257036   2.269   6.210   2.832  0.2389  0.5127 -0.4334
11849TIP3   OH257037   1.067   1.690  14.985 -0.3136 -0.6710  0.5649
11849TIP3    H157038   1.143   1.715  15.038 -0.5592 -1.2705  1.2027
11849TIP3    H257039   1.005   1.653  15.047 -0.1740 -2.3871 -0.2762
11850TIP3   OH257040   4.834   5.939   4.927  0.1750  0.4308 -0.7013
11850TIP3    H157041   4.887   5.962   5.003 -2.4341 -0.1953  1.4690
11850TIP3    H257042   4.848   6.011   4.865  0.6033  2.2487  1.3784
11851TIP3   OH257043   1.572   4.268  16.009  0.2616  0.3508  0.3649
11851TIP3    H157044   1.626   4.247  16.085  1.0404 -0.6091 -0.4355
11851TIP3    H257045   1.484   4.279  16.045  0.5069 -0.6966  1.3243
11852TIP3   OH257046   5.857   3.509   1.605 -0.5727 -0.0569  0.1629
11852TIP3    H157047   5.795   3.437   1.592 -1.6411  0.9857 -0.8081
11852TIP3    H257048   5.805   3.588   1.590  0.8450  0.8817  0.0144
11853TIP3   OH257049   0.395   5.861   4.585  0.2834 -0.0337 -0.4076
11853TIP3    H157050   0.353   5.777   4.602 -0.5454  0.4897  0.2832
11853TIP3    H257051   0.458   5.844   4.515 -0.5838 -1.0172 -0.9768
11854TIP3   OH257052   5.986   1.114  12.614 -0.0023 -0.0042  0.0822
11854TIP3    H157053   6.000   1.206  12.636  1.2734  0.0088 -0.6414
11854TIP3    H257054   6.047   1.098  12.542 -0.3643 -1.3592  0.0556
11855TIP3   OH257055   0.874   5.707  13.508  0.4528 -0.1272  0.3826
11855TIP3    H157056   0.809   5.650  13.549 -1.0180  2.2978  1.6217
11855TIP3    H257057   0.889   5.667  13.422 -2.2023 -1.1599  0.2992
11856TIP3   OH257058   2.386   0.433  11.561  0.2951  0.6617  0.3115
11856TIP3    H157059   2.397   0.464  11.471  2.1698  0.0933  0.3055
11856TIP3    H257060   2.296   0.399  11.564  0.4754 -0.1147 -1.6108
11857TIP3   OH257061   1.004   4.632   5.276  0.1025  0.3634 -0.1120
11857TIP3    H157062   0.924   4.604   5.321 -0.0956  1.4867  0.2600
11857TIP3    H257063   0.973   4.691   5.207  0.4609 -0.7973 -1.3274
11858TIP3   OH257064   1.190   1.206   5.494 -0.2825  0.4333 -0.2352
11858TIP3    H157065   1.256   1.275   5.494  0.7773 -0.5277 -1.7327
11858TIP3    H257066   1.107   1.253   5.482  0.4417  1.4462 -1.5692
11859TIP3   OH257067   1.169   0.784  10.429 -0.0047 -0.4984  0.5523
11859TIP3    H157068   1.200   0.744  10.510  1.3684  0.2673  0.4256
11859TIP3    H257069   1.243   0.777  10.368 -0.6016 -0.0030 -0.2613
11860TIP3   OH257070   4.318   3.209  14.780  0.5510  0.9019  0.1683
11860TIP3    H157071   4.373   3.193  14.704 -0.0253 -1.0128  0.1186
11860TIP3    H257072   4.229   3.209  14.746  0.2716 -0.2330  0.8612
11861TIP3   OH257073   2.593   5.961  15.738  0.3066 -0.1580  0.3846
11861TIP3    H157074   2.599   5.952  15.643 -0.2991 -0.1293  0.3381
11861TIP3    H257075   2.676   6.000  15.764 -0.1672  1.4191 -0.3320
11862TIP3   OH257076   3.928   0.822  16.489 -0.4458  0.0658  0.4395
11862TIP3    H157077   3.944   0.817  16.394 -0.6893  2.7903  0.1539
11862TIP3    H257078   4.014   0.811  16.529 -0.5968 -3.1916  0.1290
11863TIP3   OH257079   4.478   6.359   5.552  0.0159  0.7985 -0.0671
11863TIP3    H157080   4.478   6.305   5.473  0.2394  1.3185 -0.4287
11863TIP3    H257081   4.387   6.356   5.582  0.4754 -1.7748  1.3273
11864TIP3   OH257082   1.628   1.110   1.008 -0.4813  0.2635 -0.4559
11864TIP3    H157083   1.620   1.106   0.913 -0.3603 -0.0715 -0.4557
11864TIP3    H257084   1.719   1.086   1.025 -0.6187 -0.1126 -0.2310
11865TIP3   OH257085   1.777   5.132   2.490  0.2176  0.0880  0.0721
11865TIP3    H157086   1.793   5.190   2.565  0.6789 -0.6693  0.5813
11865TIP3    H257087   1.725   5.184   2.430 -0.1472  0.7274  0.9156
11866TIP3   OH257088   2.906   1.496  16.165  0.0132 -0.1044 -0.1283
11866TIP3    H157089   2.970   1.537  16.108 -0.2803 -1.5780 -1.6079
11866TIP3    H257090   2.821   1.519  16.127 -0.1745 -1.3891 -0.5542
11867TIP3   OH257091   1.534   2.522   0.800 -0.4521 -0.5752 -0.3717
11867TIP3    H157092   1.552   2.615   0.786 -0.1775 -0.5224  0.3085
11867TIP3    H257093   1.576   2.479   0.725 -1.6151 -0.0717 -1.3458
11868TIP3   OH257094   4.592   0.956  16.219 -0.6724  0.0028  0.1322
11868TIP3    H157095   4.534   0.892  16.261 -1.2216  0.4255  0.0195
11868TIP3    H257096   4.596   0.927  16.127  0.6509 -1.0115  0.4718
11869TIP3   OH257097   1.306   3.421   4.485  0.4146  0.0819  0.4868
11869TIP3    H157098   1.317   3.468   4.567  2.0617 -0.1589  0.4369
11869TIP3    H257099   1.276   3.487   4.423  1.5017  0.8145  0.7189
11870TIP3   OH257100   4.041   5.320  12.096  0.9140 -0.6726  0.4380
11870TIP3    H157101   4.006   5.258  12.032  1.6741 -0.5738 -0.0923
11870TIP3    H257102   3.969   5.336  12.156  0.1180 -0.6219 -0.5062
11871TIP3   OH257103   3.436   6.067   4.296 -0.1124  0.2367  0.2802
11871TIP3    H157104   3.414   5.982   4.334 -1.7840  0.7098  0.4677
11871TIP3    H257105   3.452   6.123   4.372 -1.2669  0.6391  0.2356
11872TIP3   OH257106   3.629   6.472  15.390  0.3298  0.3191 -0.1447
11872TIP3    H157107   3.672   6.515  15.316  1.4392 -0.2558  0.1525
11872TIP3    H257108   3.646   6.530  15.464  0.4619  0.1718 -0.0592
11873TIP3   OH257109   6.502   1.980  15.255 -0.0374 -0.1972  0.0242
11873TIP3    H157110   6.407   1.986  15.250 -0.0178  1.1289  0.9220
11873TIP3    H257111   6.520   1.886  15.245 -1.4373 -0.4926  0.0604
11874TIP3   OH257112   0.306   2.301   3.512 -0.1142 -0.4910 -0.2430
11874TIP3    H157113   0.349   2.347   3.439  0.2007 -1.1573 -0.4896
11874TIP3    H257114   0.233   2.357   3.536  0.7112  0.5233 -0.0213
11875TIP3   OH257115   0.710   5.280  13.896 -0.1767  0.4236 -0.6985
11875TIP3    H157116   0.673   5.201  13.937  1.8300 -0.4868 -0.5230
11875TIP3    H257117   0.731   5.253  13.807 -1.9971  1.6116 -1.5377
11876TIP3   OH257118   2.870   0.298   0.190 -0.1991  0.3486  0.1884
11876TIP3    H157119   2.838   0.225   0.136 -0.8989  1.2825 -0.6973
11876TIP3    H257120   2.919   0.256   0.261  1.6638 -0.9232 -1.7220
11877TIP3   OH257121   1.178   6.425  15.943 -0.3670 -0.3227  0.4109
11877TIP3    H157122   1.216   6.430  16.031  0.1076 -0.2251  0.2055
11877TIP3    H257123   1.166   6.332  15.926 -0.6717 -0.3307  0.6683
11878TIP3   OH257124   4.695   4.249   3.660  0.1736 -0.0786 -0.6824
11878TIP3    H157125   4.619   4.296   3.627 -0.8171 -0.1536  1.3356
11878TIP3    H257126   4.668   4.157   3.664  0.1320 -0.0321  0.5749
11879TIP3   OH257127   3.656   0.943  17.062  0.0127  0.2866  0.3139
11879TIP3    H157128   3.728   1.004  17.075  0.0719  0.7244 -1.7264
11879TIP3    H257129   3.650   0.933  16.967 -3.2074  1.0232  0.3173
11880TIP3   OH257130   0.641   3.272  16.327  0.2109 -1.1742  0.1461
11880TIP3    H157131   0.615   3.364  16.336  2.6450 -0.2545 -1.3850
11880TIP3    H257132   0.589   3.226  16.393 -3.4442  0.7524 -1.1182
11881TIP3   OH257133   4.792   1.567   0.459 -0.1226 -0.7169  0.4070
11881TIP3    H157134   4.879   1.585   0.494 -0.9656 -1.0230  2.8050
11881TIP3    H257135   4.777   1.475   0.477 -1.7197 -0.2106  1.9460
11882TIP3   OH257136   3.206   0.835   4.900 -0.1341 -0.2935  0.3696
11882TIP3    H157137   3.140   0.820   4.833 -1.6324 -0.1880  1.7688
11882TIP3    H257138   3.190   0.924   4.930  1.8267  0.3951 -0.4947
11883TIP3   OH257139   5.130   3.489  11.421 -0.4062  0.0416  1.0668
11883TIP3    H157140   5.053   3.478  11.366 -0.1467 -2.2439  1.0309
11883TIP3    H257141   5.193   3.426  11.386  0.0190 -1.0058  3.4840
11884TIP3   OH257142   1.199   4.331  15.344  0.2778 -0.0063 -0.6467
11884TIP3    H157143   1.227   4.344  15.435 -1.6867 -1.2208  0.1985
11884TIP3    H257144   1.277   4.297  15.300  0.4248 -2.7247  1.4632
11885TIP3   OH257145   4.961   3.662  11.882  0.0544  0.1370  0.5244
11885TIP3    H157146   5.004   3.689  11.801  0.0324 -0.8160  0.1783
11885TIP3    H257147   5.023   3.684  11.951  0.9054 -0.7502  0.0743
11886TIP3   OH257148   3.562   0.460   1.837 -0.5709  0.2524 -0.4852
11886TIP3    H157149   3.635   0.522   1.835 -0.0197 -0.2160  2.0135
11886TIP3    H257150   3.492   0.504   1.789 -0.0303  2.6110  0.7455
11887TIP3   OH257151   1.272   4.864   1.285  0.3667 -0.8484 -0.1127
11887TIP3    H157152   1.198   4.856   1.223  1.6520 -1.4316 -1.6419
11887TIP3    H257153   1.331   4.793   1.260  0.0725 -2.3837  3.1100
11888TIP3   OH257154   4.703   3.134  14.962  0.0806  0.0516 -0.1743
11888TIP3    H157155   4.735   3.097  14.880 -0.2937  0.6901 -0.6149
11888TIP3    H257156   4.756   3.091  15.030 -1.4264 -2.5465 -0.5027
11889TIP3   OH257157   5.802   2.724   1.289 -0.0726 -0.4280 -0.0344
11889TIP3    H157158   5.748   2.702   1.213  0.0437  0.0040 -0.2411
11889TIP3    H257159   5.892   2.707   1.261 -0.0011  0.0640 -0.1118
11890TIP3   OH257160   2.680   0.201  10.580  0.4695  0.0547 -0.1922
11890TIP3    H157161   2.652   0.132  10.519  0.6355 -1.6728  1.5741
11890TIP3    H257162   2.604   0.258  10.587 -0.5004 -1.1913 -0.0434
11891TIP3   OH257163   6.106   6.346  12.269 -0.4593  0.3229  0.6727
11891TIP3    H157164   6.197   6.365  12.290 -0.0435  1.1242 -1.5679
11891TIP3    H257165   6.056   6.389  12.338  0.8349  0.0778  1.8035
11892TIP3   OH257166   4.916   2.348   2.594  0.6744 -0.2360  0.4514
11892TIP3    H157167   5.001   2.304   2.594  0.9210  0.1999 -0.9242
11892TIP3    H257168   4.854   2.283   2.561  1.1265  0.5201 -2.0905
11893TIP3   OH257169   6.325   5.127   0.280  1.0731 -0.2165  0.3882
11893TIP3    H157170   6.265   5.090   0.344 -0.4333  0.7248 -0.4057
11893TIP3    H257171   6.338   5.057   0.216  0.7287 -0.3898  0.5058
11894TIP3   OH257172   0.941   0.857  15.086  0.1843 -0.0983 -0.1214
11894TIP3    H157173   0.935   0.772  15.042  0.1819  0.3241 -0.9597
11894TIP3    H257174   0.975   0.836  15.173 -0.3749 -1.0226 -0.1067
11895TIP3   OH257175   0.369   2.940   3.307 -0.8542  0.5586 -0.3313
11895TIP3    H157176   0.280   2.919   3.278 -1.5671  2.3531  0.4448
11895TIP3    H257177   0.375   2.903   3.395 -0.5717 -0.1732 -0.6511
11896TIP3   OH257178   6.124   3.294  13.918 -0.4242  0.2282  0.5181
11896TIP3    H157179   6.136   3.332  13.831 -1.5795  0.2678  0.3519
11896TIP3    H257180   6.188   3.338  13.973  1.5990 -1.0958 -0.6501
11897TIP3   OH257181   6.052   5.414  11.843  0.1157  0.6268  0.5015
11897TIP3    H157182   6.024   5.328  11.812 -0.7834  1.4174 -0.9745
11897TIP3    H257183   5.990   5.436  11.912 -0.2559  0.5129  0.2064
11898TIP3   OH257184   1.180   4.692  15.345 -0.5575  0.1621  0.1157
11898TIP3    H157185   1.258   4.650  15.307 -1.5983 -1.7162 -0.0616
11898TIP3    H257186   1.106   4.643  15.308 -1.8223  1.6225  0.6060
11899TIP3   OH257187   1.560   1.243  13.941  0.2599 -0.5500 -0.4472
11899TIP3    H157188   1.511   1.317  13.978 -2.2780 -1.8120 -1.0420
11899TIP3    H257189   1.606   1.280  13.866  0.5830  0.7994  0.3826
11900TIP3   OH257190   2.614   3.383   6.221 -0.0403 -0.1965  0.3224
11900TIP3    H157191   2.583   3.293   6.227  0.0435 -0.2293  0.2688
11900TIP3    H257192   2.699   3.376   6.177 -0.3019 -0.0413 -0.2188
11901TIP3   OH257193   0.775   0.155   0.395 -0.0852  0.2826 -0.4699
11901TIP3    H157194   0.804   0.201   0.473 -0.0172  0.5779 -0.6697
11901TIP3    H257195   0.841   0.088   0.380 -1.4014 -1.5480  1.2518
11902TIP3   OH257196   1.186   4.086   0.354 -0.0199 -0.0257  0.5241
11902TIP3    H157197   1.243   4.146   0.401 -0.4042  1.1823 -0.4725
11902TIP3    H257198   1.098   4.104   0.388 -0.3537  1.1308 -0.8517
11903TIP3   OH257199   1.468   1.184  11.871 -0.1314 -0.1254  0.0641
11903TIP3    H157200   1.507   1.134  11.799 -0.4136 -2.2592  1.2936
11903TIP3    H257201   1.536   1.246  11.897  0.3941 -0.1075 -1.2922
11904TIP3   OH257202   4.459   6.053  10.833 -0.0738  0.2428  0.2330
11904TIP3    H157203   4.552   6.076  10.844  0.4001 -1.3271 -0.1493
11904TIP3    H257204   4.433   6.017  10.918  0.8875 -3.0518 -0.6837
11905TIP3   OH257205   2.605   0.484   6.036  0.2664  0.6899  0.5389
11905TIP3    H157206   2.568   0.406   5.995 -0.0679  1.7740 -1.2992
11905TIP3    H257207   2.646   0.451   6.116  0.8333 -1.4825 -0.5715
11906TIP3   OH257208   0.327   4.907  14.107 -0.0049  0.2847  0.2216
11906TIP3    H157209   0.297   4.828  14.152 -0.1713  0.2484  0.0505
11906TIP3    H257210   0.415   4.923  14.142  0.3263 -0.3941 -0.2757
11907TIP3   OH257211   3.506   2.041   3.240 -0.2606 -0.0357 -0.9245
11907TIP3    H157212   3.479   1.963   3.288 -0.4538  0.0955 -0.8144
11907TIP3    H257213   3.545   2.008   3.159  0.3355 -0.2652 -0.5417
11908TIP3   OH257214   2.480   3.104  15.318 -0.1942  0.0906 -0.3270
11908TIP3    H157215   2.502   3.180  15.264 -0.2965 -0.0527 -0.5746
11908TIP3    H257216   2.521   3.121  15.402 -0.6120  0.6440 -0.2283
11909TIP3   OH257217   4.269   4.176   4.088 -0.6117 -0.3953  0.2765
11909TIP3    H157218   4.176   4.196   4.082 -0.4145  0.4819  0.0731
11909TIP3    H257219   4.299   4.224   4.165  0.1277  1.1562 -0.9435
11910TIP3   OH257220   6.278   1.176   4.336  0.0285 -0.0998  0.5586
11910TIP3    H157221   6.351   1.225   4.297 -0.0500  0.6234  1.2994
11910TIP3    H257222   6.317   1.093   4.363  0.6349  0.3569  1.1228
11911TIP3   OH257223   4.636   1.510  13.669  0.0656 -0.1493  0.1043
11911TIP3    H157224   4.693   1.586  13.681  0.5820 -0.3156 -1.1813
11911TIP3    H257225   4.641   1.462  13.752 -2.0747  2.3684  1.8541
11912TIP3   OH257226   2.400   0.817   3.845 -0.0938 -0.5820  0.1956
11912TIP3    H157227   2.400   0.784   3.935 -0.1740  1.3371  0.9411
11912TIP3    H257228   2.309   0.842   3.828  0.4503  2.1262  0.8316
11913TIP3   OH257229   3.785   0.257   1.278  0.2214  0.2282  0.7366
11913TIP3    H157230   3.874   0.255   1.244  0.3216 -0.1373  1.0095
11913TIP3    H257231   3.757   0.165   1.275  0.0928  0.2492  1.2631
11914TIP3   OH257232   3.986   4.453  12.446 -0.2155 -0.5769  0.0945
11914TIP3    H157233   4.021   4.508  12.376  1.5324 -1.0585  0.5646
11914TIP3    H257234   4.062   4.426  12.496 -1.2096 -2.0859  0.8539
11915TIP3   OH257235   6.019   4.593  12.626  0.3217 -0.0194 -0.2082
11915TIP3    H157236   5.998   4.645  12.703 -1.5075 -1.1935  0.1622
11915TIP3    H257237   6.068   4.652  12.569  0.8079  1.1897  1.3901
11916TIP3   OH257238   2.591   5.674   2.111 -0.1302 -0.5290 -0.5048
11916TIP3    H157239   2.657   5.670   2.180  0.2315  1.1091 -0.7264
11916TIP3    H257240   2.641   5.662   2.030  0.0358  1.2804 -0.7159
11917TIP3   OH257241   2.889   0.739   0.484 -0.2964 -0.5509  0.2741
11917TIP3    H157242   2.801   0.753   0.518 -0.3790 -0.0336 -0.1426
11917TIP3    H257243   2.879   0.746   0.389  0.5495  1.7136  0.2983
11918TIP3   OH257244   3.326   5.606   2.189 -0.0944 -0.2838 -0.0381
11918TIP3    H157245   3.295   5.656   2.264  1.1260  0.1782  0.1952
11918TIP3    H257246   3.256   5.544   2.169 -0.5898 -0.1608  1.2520
11919TIP3   OH257247   0.692   4.097   0.099 -0.5861 -0.5116  0.4295
11919TIP3    H157248   0.771   4.144   0.126 -0.9543 -0.2658  1.1040
11919TIP3    H257249   0.681   4.119   0.007  0.0116 -0.3735  0.3873
11920TIP3   OH257250   1.303   0.881   0.732 -0.0780 -0.5295 -0.1292
11920TIP3    H157251   1.216   0.849   0.708  0.4065 -0.7681 -1.6315
11920TIP3    H257252   1.297   0.976   0.720 -0.7784 -0.2702  1.9558
11921TIP3   OH257253   1.840   3.112   0.224 -0.3614 -0.3429 -0.2512
11921TIP3    H157254   1.927   3.143   0.248  0.4390 -2.8895  0.4260
11921TIP3    H257255   1.840   3.112   0.128 -0.2155  1.0884 -0.2792
11922TIP3   OH257256   5.973   0.783   4.223  0.0429 -0.3376  0.0411
11922TIP3    H157257   5.933   0.856   4.269  1.8326  1.1271 -0.5841
11922TIP3    H257258   6.022   0.735   4.290  2.1266  1.4201 -0.1105
11923TIP3   OH257259   1.858   0.167  12.748 -0.3375 -0.3441 -0.4963
11923TIP3    H157260   1.914   0.235  12.710  1.1656 -0.4653  1.3496
11923TIP3    H257261   1.839   0.199  12.836 -1.2881 -1.4033 -0.2977
11924TIP3   OH257262   5.688   0.943   5.394 -0.2824  0.3385 -0.5423
11924TIP3    H157263   5.679   0.947   5.490 -2.5776  0.1800 -0.7021
11924TIP3    H257264   5.773   0.983   5.377  0.0772  0.5964  1.5488
11925TIP3   OH257265   4.153   1.408  13.624  0.1514 -0.4831 -0.1232
11925TIP3    H157266   4.105   1.441  13.548 -0.0413 -2.4542 -0.9273
11925TIP3    H257267   4.090   1.351  13.668  0.0563  1.0909  1.9315
11926TIP3   OH257268   1.942   2.940  14.584  0.6661  0.0919 -0.3190
11926TIP3    H157269   1.890   2.994  14.523  0.1824 -1.0935 -0.9909
11926TIP3    H257270   2.029   2.937  14.545  0.8626  0.8824  0.0436
11927TIP3   OH257271   6.696   3.138   5.362 -0.7742 -0.1090  0.2115
11927TIP3    H157272   6.718   3.124   5.455 -2.6462 -1.3296  0.5115
11927TIP3    H257273   6.779   3.124   5.316  0.0103 -0.3112  1.6238
11928TIP3   OH257274   0.936   2.465  15.555 -0.0234 -0.0317  0.4066
11928TIP3    H157275   0.859   2.482  15.502 -0.4475 -1.2338  0.6093
11928TIP3    H257276   1.010   2.477  15.495 -0.4549 -0.6164 -0.2523
11929TIP3   OH257277   4.534   3.724   2.867 -0.4279 -0.2873 -0.0646
11929TIP3    H157278   4.463   3.728   2.803 -1.1936  0.5081  0.8165
11929TIP3    H257279   4.534   3.633   2.896 -1.2456 -0.2423  0.0976
11930TIP3   OH257280   1.569   4.052  15.647 -0.2461 -0.1726  0.4392
11930TIP3    H157281   1.624   3.974  15.650  0.4948  0.3520  0.7961
11930TIP3    H257282   1.630   4.125  15.660 -1.0224  0.4221  0.8225
11931TIP3   OH257283   0.884   2.353   6.274  0.0153 -0.4590  0.3480
11931TIP3    H157284   0.879   2.433   6.327 -1.3587 -1.1079  1.2728
11931TIP3    H257285   0.924   2.289   6.332 -1.7913 -1.2627  0.7771
11932TIP3   OH257286   6.020   2.956   0.218  0.2219 -0.1667 -0.2854
11932TIP3    H157287   6.024   3.021   0.148  0.3436 -0.2952 -0.3983
11932TIP3    H257288   6.109   2.954   0.254 -0.0392  0.5129  0.4348
11933TIP3   OH257289   5.939   4.211   1.634  0.3441 -0.0753  0.5946
11933TIP3    H157290   5.908   4.132   1.679  2.7377  0.2279  3.0407
11933TIP3    H257291   6.033   4.197   1.623  0.4081  1.3965 -1.2834
11934TIP3   OH257292   6.793   4.559   2.229 -0.5528  0.1609 -0.1149
11934TIP3    H157293   6.702   4.586   2.223 -0.6596 -0.1918 -0.1460
11934TIP3    H257294   6.836   4.626   2.281 -0.3059  1.6412 -2.0930
11935TIP3   OH257295   0.943   1.715  15.258 -0.2155 -0.2478  0.6591
11935TIP3    H157296   1.027   1.742  15.294 -0.4079 -0.7091  1.4697
11935TIP3    H257297   0.882   1.784  15.283 -0.1742 -0.1407  0.4671
11936TIP3   OH257298   5.491   0.886   6.174  0.0166 -0.0552 -0.4253
11936TIP3    H157299   5.437   0.847   6.242 -0.9817  0.6183 -0.8105
11936TIP3    H257300   5.564   0.926   6.222 -0.2491 -0.2843  0.1761
11937TIP3   OH257301   6.575   6.774   2.250  0.1126  0.1737  0.1433
11937TIP3    H157302   6.500   6.796   2.306  0.7932  1.3602  0.6197
11937TIP3    H257303   6.539   6.715   2.185 -1.0246 -0.0886  0.9701
11938TIP3   OH257304   1.406   4.660  14.558 -0.1523 -0.2025 -0.1593
11938TIP3    H157305   1.420   4.600  14.485  1.1849  0.2200 -0.2856
11938TIP3    H257306   1.495   4.684  14.585 -0.6578  0.6830  0.7405
11939TIP3   OH257307   3.726   5.046  15.530  0.0773 -0.0696 -0.2899
11939TIP3    H157308   3.726   5.101  15.608 -0.3109  0.7607 -0.8503
11939TIP3    H257309   3.667   4.974  15.550  0.2864 -0.0738  0.3204
11940TIP3   OH257310   1.923   6.319   6.029 -0.2305  0.1160  0.0022
11940TIP3    H157311   1.863   6.368   6.086  0.6141  0.0931  0.9441
11940TIP3    H257312   1.921   6.367   5.946 -2.1183 -0.3293 -0.2584
11941TIP3   OH257313   0.713   3.011   4.995 -0.7934  0.4567 -0.5384
11941TIP3    H157314   0.623   2.996   5.024 -0.5319  0.0422  0.0920
11941TIP3    H257315   0.713   3.100   4.960 -1.7937 -0.0681 -1.9663
11942TIP3   OH257316   5.391   3.259   3.321  0.0168 -0.0493 -0.1743
11942TIP3    H157317   5.477   3.218   3.328  0.6567  1.0112 -1.5052
11942TIP3    H257318   5.354   3.251   3.409  1.1783 -1.1413  0.2454
11943TIP3   OH257319   0.854   3.112   1.078  0.0224 -0.0022  0.1911
11943TIP3    H157320   0.898   3.197   1.083 -0.1450  0.0708  0.4191
11943TIP3    H257321   0.899   3.066   1.007  0.2942  0.1720  0.2508
11944TIP3   OH257322   4.176   0.964  17.012  0.4656  0.3980  0.0463
11944TIP3    H157323   4.088   0.994  16.991  0.6277  0.5521 -0.4305
11944TIP3    H257324   4.183   0.973  17.107 -0.3933 -0.5904  0.2164
11945TIP3   OH257325   4.098   3.406  15.695  0.2683 -0.4274 -0.5094
11945TIP3    H157326   4.116   3.477  15.757  1.3989  0.7759 -2.1469
11945TIP3    H257327   4.025   3.359  15.735 -0.4294  1.5428  0.7284
11946TIP3   OH257328   6.089   4.498   0.948 -0.1857  1.1370  0.0305
11946TIP3    H157329   6.086   4.466   1.038  1.2378 -1.0158 -0.6146
11946TIP3    H257330   6.146   4.575   0.951  0.2986  0.7499  0.8809
11947TIP3   OH257331   2.471   1.100  15.812 -0.1547 -0.0525  0.2489
11947TIP3    H157332   2.441   1.106  15.903 -1.6382  0.4402 -0.2369
11947TIP3    H257333   2.460   1.007  15.790  1.5702 -0.4636  0.9776
11948TIP3   OH257334   3.119   2.533   0.473  0.0698  0.3607  0.5251
11948TIP3    H157335   3.119   2.620   0.511  2.4395  1.2306 -1.2371
11948TIP3    H257336   3.201   2.493   0.501  0.7925  0.1720 -1.6185
11949TIP3   OH257337   2.926   3.782   5.469  0.3950  0.0956  0.2938
11949TIP3    H157338   2.842   3.824   5.452 -0.7771 -2.3595 -0.3995
11949TIP3    H257339   2.963   3.830   5.542 -1.1734  1.8188  0.0223
11950TIP3   OH257340   2.069   1.495   1.448  0.0392 -0.3302 -0.9381
11950TIP3    H157341   2.055   1.405   1.417 -0.3780 -0.9887  1.0593
11950TIP3    H257342   2.000   1.510   1.512  0.0013  1.5081 -1.3337
11951TIP3   OH257343   6.436   5.266   0.507  0.3614  0.5012 -0.1437
11951TIP3    H157344   6.408   5.226   0.425  0.8824 -1.3880  0.5540
11951TIP3    H257345   6.518   5.222   0.529  0.1347  0.8390  1.4823
11952TIP3   OH257346   6.603   2.403   5.561 -0.0632 -0.7079 -0.2025
11952TIP3    H157347   6.519   2.440   5.590 -0.0715 -0.1448 -0.9348
11952TIP3    H257348   6.598   2.311   5.587 -0.8346 -0.6415 -0.0784
11953TIP3   OH257349   0.485   1.980   2.468 -0.2189  0.1541  0.7025
11953TIP3    H157350   0.574   2.013   2.454 -0.4009  0.7686  0.9383
11953TIP3    H257351   0.466   1.930   2.389  1.0767 -1.7173  1.5071
11954TIP3   OH257352   3.475   3.653  12.583 -0.8558  0.2868 -0.0194
11954TIP3    H157353   3.428   3.729  12.616 -2.2826  0.5088 -2.3356
11954TIP3    H257354   3.529   3.687  12.512  1.6818 -0.2548  1.5280
11955TIP3   OH257355   3.316   0.105  14.703  0.0917  0.2207 -0.2652
11955TIP3    H157356   3.314   0.111  14.798 -0.5519 -1.8452 -0.1043
11955TIP3    H257357   3.386   0.165  14.677  0.9892  0.0547  1.5908
11956TIP3   OH257358   4.357   1.501  16.450 -0.8154 -0.4150 -0.1087
11956TIP3    H157359   4.405   1.425  16.417  1.0652  0.5903  0.1991
11956TIP3    H257360   4.343   1.482  16.543 -0.0583 -0.2566  0.0420
11957TIP3   OH257361   5.611   2.065   5.298  0.3702 -1.1247 -0.0485
11957TIP3    H157362   5.665   2.033   5.226 -0.1345 -2.6572  0.2177
11957TIP3    H257363   5.582   1.985   5.343  0.6054 -0.2116  1.7984
11958TIP3   OH257364   2.684   6.541   0.634  0.2091  0.6315 -0.2423
11958TIP3    H157365   2.644   6.481   0.697 -0.6650  1.9753  0.5432
11958TIP3    H257366   2.613   6.563   0.573  0.7353  0.2611 -1.0124
11959TIP3   OH257367   1.934   3.007  14.224 -0.2471 -0.2676  0.4321
11959TIP3    H157368   1.863   3.061  14.188  0.6010 -0.5234 -1.7713
11959TIP3    H257369   1.889   2.939  14.274 -1.4662  0.5766  0.5445
11960TIP3   OH257370   6.747   0.257  14.680 -0.1451  0.2185 -0.2254
11960TIP3    H157371   6.759   0.229  14.771 -1.2707 -0.7058 -0.3329
11960TIP3    H257372   6.656   0.233  14.660  0.4265 -0.6384 -1.9500
11961TIP3   OH257373   5.468   1.611  10.911  0.2304 -0.3006  0.3233
11961TIP3    H157374   5.498   1.530  10.951  2.1875  0.4602  0.4797
11961TIP3    H257375   5.406   1.647  10.975 -0.8995 -1.7848  0.1125
11962TIP3   OH257376   4.112   5.750  11.599 -0.2458  0.0863  0.3226
11962TIP3    H157377   4.074   5.803  11.528  0.9132  0.7896  0.2044
11962TIP3    H257378   4.140   5.670  11.556 -1.5244 -0.4350  0.4042
11963TIP3   OH257379   1.679   6.156  12.188 -0.5811  0.3890  0.1904
11963TIP3    H157380   1.744   6.154  12.119 -0.3307 -0.3930  0.4466
11963TIP3    H257381   1.600   6.118  12.149 -0.8611  1.2345 -0.0855
11964TIP3   OH257382   1.273   1.744  14.388  0.6189  0.6619 -0.3728
11964TIP3    H157383   1.231   1.677  14.333  0.9890 -0.6434  0.8463
11964TIP3    H257384   1.201   1.802  14.413 -0.2014 -0.5883  0.3439
11965TIP3   OH257385   1.930   3.388  10.904  0.2913  0.4859  0.6870
11965TIP3    H157386   1.989   3.349  10.968 -0.1337  0.2080  0.9152
11965TIP3    H257387   1.843   3.383  10.945 -0.0460 -0.0437 -0.0626
11966TIP3   OH257388   4.462   3.228  12.205 -0.5316  0.3143  0.2769
11966TIP3    H157389   4.505   3.162  12.150 -1.9035  1.1648 -1.9097
11966TIP3    H257390   4.505   3.310  12.182 -0.3220  0.5362  1.3948
11967TIP3   OH257391   0.808   2.290  13.827 -0.1394  0.5662 -0.6517
11967TIP3    H157392   0.881   2.269  13.884  0.7005  2.1687 -1.0664
11967TIP3    H257393   0.748   2.340  13.882 -1.1152 -1.0100 -0.2280
11968TIP3   OH257394   3.759   1.780   5.380  0.6343 -0.0343 -0.1643
11968TIP3    H157395   3.837   1.725   5.376  0.0918 -0.7527 -1.0772
11968TIP3    H257396   3.743   1.806   5.290 -0.6825 -0.6183 -0.1229
11969TIP3   OH257397   1.063   2.036  11.683 -0.0609  0.2934  0.0605
11969TIP3    H157398   1.129   2.033  11.752  0.5430  3.2983 -0.2273
11969TIP3    H257399   1.057   2.129  11.660 -1.3010 -0.4033 -2.9280
11970TIP3   OH257400   4.302   1.134  13.993  0.1736 -0.3054  0.1861
11970TIP3    H157401   4.392   1.108  14.012  0.2333 -0.4677 -0.3033
11970TIP3    H257402   4.309   1.225  13.963  0.1527 -0.2493  0.3551
11971TIP3   OH257403   5.409   6.159   2.538  0.1154  0.3165  0.5780
11971TIP3    H157404   5.484   6.175   2.481  0.5222  0.2789  1.0981
11971TIP3    H257405   5.334   6.195   2.489  0.5640  0.9697  0.3552
11972TIP3   OH257406   1.764   0.471  11.370  0.5623 -0.5006  0.4199
11972TIP3    H157407   1.829   0.472  11.439  1.5731 -1.2339 -0.4780
11972TIP3    H257408   1.705   0.399  11.393  1.4066 -1.3156  0.0931
11973TIP3   OH257409   5.117   0.404   3.514 -0.7094 -0.1760  0.0243
11973TIP3    H157410   5.150   0.457   3.443 -2.5993  1.0686  0.0021
11973TIP3    H257411   5.184   0.336   3.527  1.2830  1.5701 -0.6243
11974TIP3   OH257412   1.682   0.227  15.017 -0.6435 -0.3542  0.1573
11974TIP3    H157413   1.755   0.286  14.998 -0.3684 -1.7193 -4.1142
11974TIP3    H257414   1.724   0.150  15.055 -0.1184 -0.2617 -0.2126
11975TIP3   OH257415   5.796   4.496   2.219 -0.1225 -0.0602 -0.7641
11975TIP3    H157416   5.867   4.441   2.185  0.5313  0.8079 -0.8667
11975TIP3    H257417   5.755   4.532   2.140 -0.0250  0.2210 -0.6890
11976TIP3   OH257418   3.128   3.100   3.777  0.1669 -0.1927 -0.0550
11976TIP3    H157419   3.072   3.176   3.789  0.6718  0.0215  1.0989
11976TIP3    H257420   3.069   3.025   3.783 -0.0730  0.0474  0.7112
11977TIP3   OH257421   2.454   5.386  15.089 -0.0905 -0.3497 -0.4559
11977TIP3    H157422   2.549   5.375  15.101 -0.2133 -2.2172 -0.8589
11977TIP3    H257423   2.444   5.412  14.998 -0.0061 -1.1121 -0.6889
11978TIP3   OH257424   4.465   1.125  15.698  0.1659  0.8879 -0.6739
11978TIP3    H157425   4.489   1.032  15.696 -1.4012  0.4443 -0.3694
11978TIP3    H257426   4.469   1.149  15.791 -2.1630  0.3105 -0.3602
11979TIP3   OH257427   6.811   4.542   2.851  0.0320 -0.3864 -0.1575
11979TIP3    H157428   6.867   4.465   2.866 -1.3979 -1.4691 -0.1884
11979TIP3    H257429   6.828   4.567   2.760 -0.8062 -1.8060 -0.7403
11980TIP3   OH257430   3.729   0.979  14.726 -0.2894 -0.1334 -0.0613
11980TIP3    H157431   3.813   0.948  14.692 -0.0733 -0.3487  0.6648
11980TIP3    H257432   3.748   1.068  14.758  0.0927 -0.8379  1.7319
11981TIP3   OH257433   5.759   3.916  10.609  0.0999 -0.2308 -0.0241
11981TIP3    H157434   5.782   3.860  10.683  0.8148  0.4984  0.3133
11981TIP3    H257435   5.724   3.856  10.544 -1.7685 -0.7501  1.3763
11982TIP3   OH257436   2.479   1.569   3.515 -0.4122 -0.4560 -0.0154
11982TIP3    H157437   2.437   1.565   3.601 -2.5896  1.4400 -0.9173
11982TIP3    H257438   2.439   1.498   3.465  0.3461 -1.1128  0.2857
11983TIP3   OH257439   2.108   2.587  15.480 -0.6186  0.4174 -0.2410
11983TIP3    H157440   2.139   2.631  15.559  0.5571  0.8463 -0.9149
11983TIP3    H257441   2.143   2.498  15.487 -3.2054 -0.5812  1.2431
11984TIP3   OH257442   5.419   4.036  11.233 -0.2274 -0.1502  0.0481
11984TIP3    H157443   5.433   4.027  11.139 -0.1284 -0.8338  0.1246
11984TIP3    H257444   5.504   4.016  11.272 -0.5864 -1.1521  0.3449
11985TIP3   OH257445   4.443   5.416  16.284 -0.2239 -0.2617 -0.0410
11985TIP3    H157446   4.492   5.336  16.301  1.4218  0.7710  0.3224
11985TIP3    H257447   4.358   5.402  16.324  0.1800 -1.6612  0.3636
11986TIP3   OH257448   3.343   2.024   4.033  0.5129  0.6694  0.4536
11986TIP3    H157449   3.338   2.120   4.035  1.1770  0.7147  0.2557
11986TIP3    H257450   3.253   1.995   4.050 -0.2983  1.3479 -2.1224
11987TIP3   OH257451   1.781   1.335   2.626 -0.3157 -0.1352 -0.1426
11987TIP3    H157452   1.746   1.424   2.629 -2.2481 -0.7199 -2.0999
11987TIP3    H257453   1.845   1.337   2.555 -0.5955 -0.3526 -0.4063
11988TIP3   OH257454   4.354   1.633  16.808  0.8174  0.4295  0.6048
11988TIP3    H157455   4.288   1.568  16.830 -0.7002  2.1660  1.4118
11988TIP3    H257456   4.307   1.698  16.755  2.1816  1.0773  0.1360
11989TIP3   OH257457   3.763   2.062  15.691 -0.1487 -0.2915  0.0385
11989TIP3    H157458   3.809   2.036  15.770 -1.2125  1.0782  1.1539
11989TIP3    H257459   3.677   2.090  15.721  0.3969  3.0838 -1.1760
11990TIP3   OH257460   4.882   1.864  12.958 -0.2591 -0.1901 -0.3960
11990TIP3    H157461   4.851   1.875  12.868  1.6719  0.5629 -1.0360
11990TIP3    H257462   4.902   1.770  12.964 -0.0893 -0.1877 -0.8657
11991TIP3   OH257463   0.376   2.393   3.827  1.0763 -0.4049 -0.1902
11991TIP3    H157464   0.349   2.304   3.801  1.2000  0.1432 -2.3813
11991TIP3    H257465   0.300   2.429   3.870  0.9221 -1.4793  0.4711
11992TIP3   OH257466   3.768   4.837  16.972 -0.1217 -0.3490 -0.7662
11992TIP3    H157467   3.787   4.790  16.891 -0.7420  1.4887 -2.0492
11992TIP3    H257468   3.840   4.899  16.982 -0.9000  0.6065 -0.8759
11993TIP3   OH257469   4.390   4.250  15.589 -0.3316 -0.6079 -0.1192
11993TIP3    H157470   4.419   4.319  15.649  1.0664  0.4460 -1.8899
11993TIP3    H257471   4.309   4.283  15.551  0.2818  0.0700 -0.8890
11994TIP3   OH257472   3.799   0.152  14.656  0.5267  0.1880 -0.6934
11994TIP3    H157473   3.782   0.076  14.712 -0.8072 -0.5686 -2.0486
11994TIP3    H257474   3.826   0.115  14.572 -1.3850  1.1302 -1.7812
11995TIP3   OH257475   6.245   1.593   0.138  0.1640 -0.2750 -0.0175
11995TIP3    H157476   6.321   1.648   0.157 -0.8773  0.4440  2.5190
11995TIP3    H257477   6.198   1.639   0.069  0.3282  1.0664  0.7242
11996TIP3   OH257478   0.595   4.981  15.556  0.1277 -0.5328  0.0985
11996TIP3    H157479   0.668   4.984  15.494 -0.1202 -1.6529 -0.2831
11996TIP3    H257480   0.585   4.888  15.576 -0.7131 -0.3190  0.7305
11997TIP3   OH257481   0.793   5.470  14.289 -0.3643 -0.5274  0.4828
11997TIP3    H157482   0.716   5.456  14.344 -0.3517 -1.1387  0.3557
11997TIP3    H257483   0.867   5.442  14.342 -0.4533 -2.2710 -0.2292
11998TIP3   OH257484   2.808   2.028   2.392  0.1672  0.1345  0.0091
11998TIP3    H157485   2.737   1.971   2.420 -1.0287  0.9826 -1.1761
11998TIP3    H257486   2.840   2.070   2.472 -0.5974 -0.3416  0.5629
11999TIP3   OH257487   0.671   3.377   2.738 -0.5962  0.0719  0.1976
11999TIP3    H157488   0.653   3.318   2.665 -0.0417 -0.5393  0.5417
11999TIP3    H257489   0.750   3.424   2.711 -2.1602  2.1818 -0.9711
12000TIP3   OH257490   4.356   5.096  14.329 -0.6843  0.5448  0.0729
12000TIP3    H157491   4.451   5.107  14.341 -0.7346  1.2942 -0.1388
12000TIP3    H257492   4.321   5.095  14.418 -0.4341 -0.1881  0.1660
12001TIP3   OH257493   5.040   1.690  15.624 -0.0358 -0.6354  0.1862
12001TIP3    H157494   5.006   1.600  15.618  0.8993 -0.9521 -0.7104
12001TIP3    H257495   4.971   1.739  15.668 -1.7480 -1.2043 -1.7484
12002TIP3   OH257496   1.164   6.776   5.320 -0.1745  0.7935  0.2110
12002TIP3    H157497   1.130   6.856   5.359 -0.2406  1.2434 -0.7365
12002TIP3    H257498   1.111   6.763   5.241  0.9406  0.7677 -0.5602
12003TIP3   OH257499   0.575   1.708  11.845  0.1562 -0.4558 -0.2919
12003TIP3    H157500   0.548   1.642  11.910 -2.4408  0.3012 -0.5222
12003TIP3    H257501   0.559   1.792  11.888  1.7438  0.0870 -0.6749
12004TIP3   OH257502   3.540   1.673   3.099 -0.0553 -0.2068  0.0219
12004TIP3    H157503   3.574   1.756   3.064  1.1958 -0.5625  0.3257
12004TIP3    H257504   3.513   1.694   3.188  2.9742 -0.6646  1.1816
12005TIP3   OH257505   1.419   5.429   5.325  0.0275  0.2816 -0.6948
12005TIP3    H157506   1.351   5.374   5.285  0.8126 -0.4280 -1.0899
12005TIP3    H257507   1.388   5.445   5.414 -0.5344 -0.2524 -0.7868
12006TIP3   OH257508   6.075   6.717   1.265 -0.2902 -1.0187  0.2716
12006TIP3    H157509   6.015   6.654   1.305  1.0310 -2.0052  0.7912
12006TIP3    H257510   6.133   6.743   1.337  0.3410 -0.6292 -0.3654
12007TIP3   OH257511   4.109   5.852   1.978 -0.3659  0.3851  0.4034
12007TIP3    H157512   4.047   5.779   1.978 -0.2030  0.2060 -1.1758
12007TIP3    H257513   4.079   5.909   2.049 -3.1675  0.9638 -1.0770
12008TIP3   OH257514   3.154   3.993   3.847 -0.2667  0.3349 -0.1183
12008TIP3    H157515   3.122   4.060   3.908  1.1713  1.1048 -0.1779
12008TIP3    H257516   3.179   4.042   3.769 -0.8554 -0.4956 -0.8448
12009TIP3   OH257517   4.348   6.342   1.300 -0.2681 -0.7228  0.2243
12009TIP3    H157518   4.337   6.338   1.395 -0.4613 -0.5277  0.2121
12009TIP3    H257519   4.438   6.372   1.287  0.1443 -1.8707  0.3351
12010TIP3   OH257520   5.672   2.454  14.767 -0.0484  0.0017 -0.0964
12010TIP3    H157521   5.760   2.491  14.774  0.2883 -1.0587  2.6535
12010TIP3    H257522   5.657   2.444  14.673  2.9121 -0.0808 -0.6560
12011TIP3   OH257523   1.535   2.103   3.460  0.7591  0.3893 -0.0622
12011TIP3    H157524   1.559   2.173   3.399  1.4291  0.9258  0.8010
12011TIP3    H257525   1.462   2.058   3.416  0.7324  1.2236 -0.9180
12012TIP3   OH257526   2.469   6.572   4.579  0.1212 -0.0633  0.1823
12012TIP3    H157527   2.497   6.498   4.632  0.1258 -1.0803 -1.1952
12012TIP3    H257528   2.381   6.592   4.610  0.4729 -0.0379  1.1893
12013TIP3   OH257529   1.705   1.040  16.420  0.4331 -0.1479 -0.5431
12013TIP3    H157530   1.764   1.106  16.458  0.5015 -0.3104 -0.3690
12013TIP3    H257531   1.622   1.053  16.467  0.3336  0.0659 -0.7741
12014TIP3   OH257532   4.538   1.331   4.624  0.1453 -0.1096 -0.0792
12014TIP3    H157533   4.582   1.411   4.594 -0.8983  1.3087  1.9744
12014TIP3    H257534   4.533   1.340   4.719 -1.3877 -1.9234  0.0714
12015TIP3   OH257535   6.589   2.525  15.965  0.2295  0.0397 -1.2514
12015TIP3    H157536   6.652   2.593  15.987  2.4232 -1.7485 -1.6712
12015TIP3    H257537   6.563   2.487  16.049 -0.8545  1.2165 -1.0317
12016TIP3   OH257538   1.889   3.470   2.907  0.3333  0.1344 -0.3197
12016TIP3    H157539   1.886   3.557   2.865  1.5227  0.1867 -0.3454
12016TIP3    H257540   1.817   3.422   2.867  1.4815  0.1361 -2.5955
12017TIP3   OH257541   1.064   5.228  12.761 -0.1385  0.0150 -0.3130
12017TIP3    H157542   0.985   5.281  12.747 -0.0814  0.1636 -0.0758
12017TIP3    H257543   1.041   5.141  12.730 -0.7724 -0.2340  0.8283
12018TIP3   OH257544   5.788   0.458  11.792  0.2620  0.2140 -0.7194
12018TIP3    H157545   5.730   0.384  11.781  1.2187 -0.6986  0.1761
12018TIP3    H257546   5.839   0.461  11.710  1.1610 -0.9853 -0.2303
12019TIP3   OH257547   0.722   6.199  13.229  0.0921  0.4617 -0.4340
12019TIP3    H157548   0.667   6.230  13.301  2.3956  1.0020  1.2086
12019TIP3    H257549   0.731   6.105  13.244 -0.2919  0.3868 -0.6586
12020TIP3   OH257550   2.403   2.850  12.795 -0.5723  0.4102  0.5862
12020TIP3    H157551   2.397   2.826  12.703  0.7031  2.2101 -0.0225
12020TIP3    H257552   2.486   2.812  12.825 -0.1930  1.2010  0.5429
12021TIP3   OH257553   6.460   4.359   1.999 -0.0036 -0.1276  0.6622
12021TIP3    H157554   6.442   4.333   2.089 -0.1116 -0.9939  0.4025
12021TIP3    H257555   6.432   4.284   1.946  1.1105 -0.1098 -0.0032
12022TIP3   OH257556   3.497   2.284  15.392 -0.4722  0.5786 -0.1769
12022TIP3    H157557   3.567   2.228  15.359  1.9843  2.7154  1.0089
12022TIP3    H257558   3.426   2.274  15.329  1.0667 -1.3374 -1.7449
12023TIP3   OH257559   3.917   0.610  14.957  0.5428  0.0279  0.1767
12023TIP3    H157560   3.835   0.608  14.909  0.5505 -1.5491  0.2017
12023TIP3    H257561   3.978   0.656  14.899  0.1765 -0.5817 -0.7116
12024TIP3   OH257562   3.752   1.215  13.281 -0.0961  0.0351 -0.4611
12024TIP3    H157563   3.705   1.131  13.282 -0.9358  0.4570  2.0324
12024TIP3    H257564   3.832   1.196  13.232  0.3754 -2.6266  1.1303
12025TIP3   OH257565   4.561   0.134   3.810 -0.2195 -0.3486  0.0221
12025TIP3    H157566   4.547   0.064   3.875 -0.2073 -0.6158 -0.2590
12025TIP3    H257567   4.649   0.167   3.829 -0.4379 -0.0265  0.5142
12026TIP3   OH257568   5.416   3.826  16.943  0.2479 -0.7714  0.1345
12026TIP3    H157569   5.494   3.868  16.979 -0.6233  1.4691 -0.3877
12026TIP3    H257570   5.354   3.898  16.929 -2.1362 -2.4919  0.9804
12027TIP3   OH257571   4.605   4.301  16.554 -0.1081 -0.3158 -0.1797
12027TIP3    H157572   4.578   4.210  16.556 -0.0809 -0.3195  0.4268
12027TIP3    H257573   4.525   4.351  16.539 -0.0096 -0.4776 -1.2610
12028TIP3   OH257574   2.782   0.642   1.489  0.4036  0.3452  0.8936
12028TIP3    H157575   2.779   0.548   1.472 -0.8064  0.3801  0.8073
12028TIP3    H257576   2.796   0.682   1.403 -1.2235  0.3195  0.5880
12029TIP3   OH257577   6.326   2.644  11.303 -0.1126  0.1658  0.3547
12029TIP3    H157578   6.260   2.577  11.286 -1.1843  1.0796  0.7834
12029TIP3    H257579   6.404   2.595  11.330 -1.4088 -0.8774  2.4700
12030TIP3   OH257580   5.605   0.883  13.121 -0.0073  0.6534 -0.3644
12030TIP3    H157581   5.641   0.971  13.110 -1.0251  1.3879  1.6487
12030TIP3    H257582   5.563   0.864  13.037 -0.7890  2.6030 -0.4722
12031TIP3   OH257583   4.948   6.271   3.516  0.7994 -0.1346 -0.4294
12031TIP3    H157584   4.859   6.306   3.527  1.2271  0.9052 -0.1353
12031TIP3    H257585   4.937   6.176   3.520 -0.0867  0.0058  1.4252
12032TIP3   OH257586   0.947   2.889  15.540  0.2438 -0.0223  0.0947
12032TIP3    H157587   0.943   2.829  15.615  0.7010  2.6564  2.3890
12032TIP3    H257588   0.856   2.904  15.517  0.0993 -0.8028  0.1046
12033TIP3   OH257589   1.605   4.537   3.287 -0.1023  0.2785 -0.3431
12033TIP3    H157590   1.541   4.487   3.338 -0.7964  2.0114  0.5797
12033TIP3    H257591   1.646   4.595   3.351  0.6713  0.8879 -1.3639
12034TIP3   OH257592   0.283   4.662   4.818  0.1097  0.3544 -0.1502
12034TIP3    H157593   0.345   4.716   4.770 -0.0689  0.3503 -0.3890
12034TIP3    H257594   0.337   4.603   4.871  0.3052  0.5602 -0.1208
12035TIP3   OH257595   3.205   0.881   1.178  0.1327 -0.2234 -0.0836
12035TIP3    H157596   3.125   0.895   1.126 -0.5407  1.7043  1.3491
12035TIP3    H257597   3.240   0.970   1.191  2.1010 -0.9678 -0.0182
12036TIP3   OH257598   0.079   1.016  15.771  0.7661  0.1800  0.3944
12036TIP3    H157599   0.150   0.953  15.762  1.3190  0.7535  0.6773
12036TIP3    H257600   0.121   1.096  15.802  0.2878  1.1427 -1.3248
12037TIP3   OH257601   1.983   2.584   2.827 -0.4329 -0.2217  0.1374
12037TIP3    H157602   1.925   2.597   2.752  0.8251  1.5715 -0.6012
12037TIP3    H257603   2.041   2.513   2.801  0.4273  0.8265 -0.9214
12038TIP3   OH257604   1.707   4.719  14.342  0.4306  0.3725  0.4114
12038TIP3    H157605   1.727   4.627  14.325  1.1715  0.4415  0.8695
12038TIP3    H257606   1.772   4.768  14.292 -1.2806  0.7288 -1.6064
12039TIP3   OH257607   1.319   1.682   4.629  0.7933  0.7599  0.5717
12039TIP3    H157608   1.246   1.628   4.658  0.2323  1.3786  0.3343
12039TIP3    H257609   1.386   1.671   4.696  0.1731  0.8107  1.2050
12040TIP3   OH257610   0.425   3.191   1.389 -0.4849 -0.4405  0.9905
12040TIP3    H157611   0.444   3.247   1.314  0.0737 -1.6080  0.2198
12040TIP3    H257612   0.430   3.102   1.354  0.2274 -1.0354  2.5010
12041TIP3   OH257613   6.708   6.560  15.960 -0.1652  0.1683  0.6248
12041TIP3    H157614   6.772   6.629  15.981  0.2663 -0.0689  0.1182
12041TIP3    H257615   6.623   6.605  15.963  0.1217  0.7659  0.1615
12042TIP3   OH257616   1.601   0.083  13.647  0.0324 -0.2524  0.0516
12042TIP3    H157617   1.686   0.039  13.637  0.9206  1.2724  0.5443
12042TIP3    H257618   1.545   0.018  13.690  1.4933 -0.7107  1.3608
12043TIP3   OH257619   3.655   1.187  12.744  0.5859 -0.2511 -0.5321
12043TIP3    H157620   3.599   1.199  12.821  1.0243  1.1482 -0.3924
12043TIP3    H257621   3.594   1.172  12.672  0.1278 -0.6432 -0.0646
12044TIP3   OH257622   3.374   5.802   1.984  0.3393 -0.4453 -0.1895
12044TIP3    H157623   3.343   5.718   2.019 -1.4481 -0.3618 -1.4496
12044TIP3    H257624   3.377   5.860   2.060  1.0478 -1.4759  0.6039
12045TIP3   OH257625   3.648   4.932   1.283  0.1380  0.1105  0.0612
12045TIP3    H157626   3.686   4.933   1.371  1.1374 -2.4912 -0.2663
12045TIP3    H257627   3.553   4.932   1.298  0.1720  3.2173  0.9628
12046TIP3   OH257628   5.269   2.899  12.157  0.7129  0.1872  0.0925
12046TIP3    H157629   5.288   2.851  12.077  2.1951 -0.8008  0.9830
12046TIP3    H257630   5.234   2.833  12.217  2.1483  0.3154  1.1184
12047TIP3   OH257631   3.153   2.390   1.243  0.1097 -0.1590  0.0773
12047TIP3    H157632   3.072   2.342   1.253 -0.3827  1.1068  3.0525
12047TIP3    H257633   3.222   2.328   1.268 -0.1829 -0.3992  0.2851
12048TIP3   OH257634   5.316   6.123   5.026 -0.5021  0.6201  0.1936
12048TIP3    H157635   5.350   6.163   4.946 -0.2205 -0.9251 -0.4913
12048TIP3    H257636   5.313   6.195   5.089 -0.1972  1.7500 -1.0343
12049TIP3   OH257637   0.914   4.803  11.115  0.1635  0.2872  0.0001
12049TIP3    H157638   0.953   4.822  11.029  0.0546  2.2182  0.3319
12049TIP3    H257639   0.981   4.754  11.161  1.8684  2.5770  0.1595
12050TIP3   OH257640   1.726   5.726  16.309 -0.2129  0.1869 -0.1649
12050TIP3    H157641   1.739   5.816  16.341 -0.6480  0.1076  0.2357
12050TIP3    H257642   1.693   5.678  16.385  0.3459 -0.3974 -0.2833
12051TIP3   OH257643   1.642   2.979   5.423 -0.2394 -0.4073  0.7121
12051TIP3    H157644   1.672   2.890   5.401 -2.0050 -0.2930 -2.7916
12051TIP3    H257645   1.713   3.036   5.396 -0.2374 -0.6234  0.2440
12052TIP3   OH257646   5.349   2.068  15.498 -0.6208  0.6999 -0.1479
12052TIP3    H157647   5.268   2.022  15.519  0.0578  0.1668  1.4782
12052TIP3    H257648   5.402   2.062  15.578  0.3380  2.5279 -0.5761
12053TIP3   OH257649   0.908   4.771  14.861 -0.5293  0.3222  0.5500
12053TIP3    H157650   0.854   4.836  14.817 -2.1542 -1.6242 -0.4655
12053TIP3    H257651   0.955   4.727  14.791  0.5312  0.3332  1.2228
12054TIP3   OH257652   6.039   1.981   4.063 -0.1873 -0.1666 -0.2586
12054TIP3    H157653   6.134   1.990   4.066 -0.2255  0.1509  0.1981
12054TIP3    H257654   6.007   2.070   4.047 -0.3908 -0.3643 -0.9934
12055TIP3   OH257655   6.346   0.297   0.154  0.2342  0.2615  0.3367
12055TIP3    H157656   6.266   0.307   0.206 -0.2555 -3.5941  0.6067
12055TIP3    H257657   6.315   0.264   0.069  1.4163  1.1062 -0.4503
12056TIP3   OH257658   2.560   5.599  12.475 -0.6807  0.1239  0.4706
12056TIP3    H157659   2.551   5.599  12.379  0.8885 -0.6712  0.2873
12056TIP3    H257660   2.640   5.549  12.491 -0.5251  0.8567  2.1649
12057TIP3   OH257661   0.625   5.458   1.842 -0.2171  0.8008 -0.0493
12057TIP3    H157662   0.702   5.506   1.811  1.0671 -1.0077  0.2130
12057TIP3    H257663   0.599   5.504   1.923  0.8532  1.1720  0.0992
12058TIP3   OH257664   6.340   5.096  12.683 -0.2128  0.5584 -0.6240
12058TIP3    H157665   6.359   5.185  12.714  0.9693 -0.3109  1.2713
12058TIP3    H257666   6.422   5.067  12.643 -0.8656  0.5958 -2.0690
12059TIP3   OH257667   1.687   3.256   0.399 -0.5092  0.6854  0.3342
12059TIP3    H157668   1.599   3.222   0.385 -0.3540 -0.9752  2.8158
12059TIP3    H257669   1.744   3.199   0.347 -0.6933  0.2493  0.6097
12060TIP3   OH257670   1.640   0.214  11.139 -0.1323 -0.8284 -0.1513
12060TIP3    H157671   1.727   0.184  11.111 -0.1793 -0.1763 -1.0105
12060TIP3    H257672   1.646   0.215  11.235  1.2108  0.3187 -0.2075
12061TIP3   OH257673   3.396   1.843   4.385  0.5106 -0.0484  0.6215
12061TIP3    H157674   3.488   1.860   4.406  0.5082 -0.4145  0.9359
12061TIP3    H257675   3.349   1.916   4.426  0.5574 -0.4657  1.4405
12062TIP3   OH257676   1.264   6.725  12.321 -0.1717 -0.4670  0.3502
12062TIP3    H157677   1.304   6.739  12.407  0.0979  0.3872  0.0906
12062TIP3    H257678   1.297   6.639  12.293  0.8831 -0.1245  0.4830
12063TIP3   OH257679   6.717   2.097  16.915 -0.0603  0.6195  0.0149
12063TIP3    H157680   6.649   2.136  16.970 -0.9012 -0.3866 -0.2623
12063TIP3    H257681   6.718   2.151  16.836  0.4333  1.4526  0.5761
12064TIP3   OH257682   0.171   1.949   0.005  0.2423  0.4799 -0.3164
12064TIP3    H157683   0.159   1.960  -0.089  2.1542  0.8719 -0.5567
12064TIP3    H257684   0.146   2.033   0.042 -2.5476 -0.3089 -0.1835
12065TIP3   OH257685   3.303   3.613   2.478 -0.6515 -0.2947  0.1642
12065TIP3    H157686   3.360   3.678   2.520 -0.1944  0.6988 -1.9083
12065TIP3    H257687   3.242   3.587   2.548  0.2195  1.0827  1.5163
12066TIP3   OH257688   1.947   5.986  14.040  0.1218 -0.2179 -0.3036
12066TIP3    H157689   1.909   5.915  14.092 -1.6206  0.3544 -0.7267
12066TIP3    H257690   1.983   5.943  13.963 -1.9973 -0.5646 -1.1415
12067TIP3   OH257691   6.768   5.042  16.537  0.1406 -0.3522 -0.3431
12067TIP3    H157692   6.805   5.044  16.449 -0.1078 -0.2476 -0.4470
12067TIP3    H257693   6.716   5.122  16.543  2.2878  1.0262  0.8556
12068TIP3   OH257694   5.231   2.444   5.676 -0.1551 -0.2753 -0.2870
12068TIP3    H157695   5.169   2.371   5.686 -0.0657 -0.2542  0.5050
12068TIP3    H257696   5.261   2.438   5.585 -0.8946 -0.6277 -0.5140
12069TIP3   OH257697   4.123   1.058  14.642 -0.5799 -0.2165 -0.3593
12069TIP3    H157698   4.062   1.102  14.584 -0.6199 -0.4733 -0.5176
12069TIP3    H257699   4.209   1.094  14.619 -0.4761 -0.9487 -1.2095
12070TIP3   OH257700   2.484   5.729  11.670  0.4214  0.2138  0.3549
12070TIP3    H157701   2.545   5.669  11.628 -1.5218 -1.1739 -0.6491
12070TIP3    H257702   2.410   5.734  11.610 -0.4981  1.7690  1.5406
12071TIP3   OH257703   4.666   2.092  16.840  0.1166 -0.6477  0.0895
12071TIP3    H157704   4.639   2.006  16.873  0.0317 -0.7523 -0.2445
12071TIP3    H257705   4.709   2.072  16.756 -0.8046 -0.2710 -0.4772
12072TIP3   OH257706   4.059   6.153   2.066 -0.4522 -0.0913 -0.3372
12072TIP3    H157707   4.152   6.163   2.084 -0.5479  1.3578 -0.4710
12072TIP3    H257708   4.038   6.226   2.008 -1.5816 -0.6529 -0.6678
12073TIP3   OH257709   3.625   2.553  12.437 -0.2953 -0.3624 -0.5189
12073TIP3    H157710   3.701   2.499  12.413 -0.1602 -0.0010 -0.9117
12073TIP3    H257711   3.554   2.490  12.449  0.2815 -0.8070  0.7928
12074TIP3   OH257712   4.276   1.788   5.228 -0.0713 -0.2026  0.2980
12074TIP3    H157713   4.288   1.695   5.246 -2.4756 -0.5472  0.4266
12074TIP3    H257714   4.185   1.796   5.202  0.5127  1.8814 -1.4212
12075TIP3   OH257715   2.222   4.224  11.395  0.2803 -0.0314 -0.0861
12075TIP3    H157716   2.285   4.291  11.370  0.5200 -1.0478 -2.5110
12075TIP3    H257717   2.170   4.209  11.315 -1.8758 -0.4774  1.3121
12076TIP3   OH257718   1.770   3.985   5.559  0.0550  0.0604 -0.0174
12076TIP3    H157719   1.839   4.051   5.563 -0.3753  0.4371  2.5654
12076TIP3    H257720   1.802   3.914   5.615 -1.2885 -0.0850  0.6024
12077TIP3   OH257721   2.066   3.630  13.415 -0.6079 -0.1303 -0.0877
12077TIP3    H157722   2.006   3.691  13.458 -0.8405 -1.7977  2.1024
12077TIP3    H257723   2.021   3.605  13.334 -2.8829 -1.2968  1.4738
12078TIP3   OH257724   4.762   1.517  11.909  0.6615  0.2210  0.0874
12078TIP3    H157725   4.738   1.596  11.860 -2.7264  0.3687  1.7207
12078TIP3    H257726   4.764   1.448  11.844 -0.8300  0.9049 -0.7273
12079TIP3   OH257727   1.934   6.155   5.701 -0.2173  0.2547 -0.2785
12079TIP3    H157728   1.839   6.156   5.690 -0.1544  0.2834 -0.8932
12079TIP3    H257729   1.949   6.107   5.783 -0.7540  0.1532 -0.2364
12080TIP3   OH257730   2.080   4.542  13.351  0.1579 -0.2907  0.3468
12080TIP3    H157731   1.991   4.573  13.330 -0.2969 -1.6999  0.0772
12080TIP3    H257732   2.070   4.447  13.359  0.8346 -0.1720  4.2900
12081TIP3   OH257733   2.022   5.055  17.108  0.1082  0.0554  0.0009
12081TIP3    H157734   2.012   5.049  17.202  0.3790  1.3268  0.1273
12081TIP3    H257735   2.062   4.972  17.083 -3.4351 -1.9745  0.4435
12082TIP3   OH257736   1.617   5.002   5.795 -0.0066  0.4657  0.0762
12082TIP3    H157737   1.546   4.944   5.767  0.3560 -1.2897  2.5096
12082TIP3    H257738   1.696   4.948   5.787  0.3345  0.5372  2.4271
12083TIP3   OH257739   6.280   2.381   3.171  0.4036 -0.5648  0.0134
12083TIP3    H157740   6.281   2.298   3.217 -1.5556 -0.6365  0.0089
12083TIP3    H257741   6.348   2.372   3.103  1.0546 -1.6652  0.7892
12084TIP3   OH257742   4.739   4.853   4.178 -0.0840 -0.4198  0.1547
12084TIP3    H157743   4.804   4.880   4.244 -2.5768  1.1923  2.1474
12084TIP3    H257744   4.756   4.909   4.103  0.3950  0.4900  0.9231
12085TIP3   OH257745   4.232   4.802   4.247  0.0311  0.8051  0.3515
12085TIP3    H157746   4.307   4.815   4.188 -0.0422  0.3175  0.1462
12085TIP3    H257747   4.160   4.850   4.204  0.4356  2.0470  1.0109
12086TIP3   OH257748   5.854   3.002   4.710  0.1161 -0.0189 -0.2384
12086TIP3    H157749   5.934   2.956   4.734  0.9984  1.0374 -1.0945
12086TIP3    H257750   5.849   3.075   4.772 -1.3451 -1.2483  1.1975
12087TIP3   OH257751   1.504   3.101  12.182  0.0018 -0.1151 -0.5726
12087TIP3    H157752   1.589   3.132  12.150 -0.8187  1.6095 -1.2424
12087TIP3    H257753   1.444   3.119  12.110 -0.9454 -1.3550 -0.1285
12088TIP3   OH257754   5.294   4.499  13.505 -0.6134 -0.2733 -0.6148
12088TIP3    H157755   5.385   4.514  13.530 -0.2852  0.6936 -2.1832
12088TIP3    H257756   5.257   4.448  13.576  1.7118 -2.5407 -0.8898
12089TIP3   OH257757   0.974   3.743   0.605 -0.0376 -0.0606  0.1360
12089TIP3    H157758   1.048   3.748   0.544 -0.9722  2.2663 -0.9402
12089TIP3    H257759   0.896   3.743   0.549 -0.9089 -0.4841  1.2870
12090TIP3   OH257760   3.915   0.310  12.730 -0.0052  0.8106 -0.7380
12090TIP3    H157761   3.947   0.304  12.820 -0.7218  1.0031 -0.4592
12090TIP3    H257762   3.824   0.340  12.739 -0.5008 -0.3650 -1.4516
12091TIP3   OH257763   0.151   6.384   1.916  0.2007 -0.1731  0.0329
12091TIP3    H157764   0.160   6.376   1.821 -0.0176  0.4979 -0.0469
12091TIP3    H257765   0.191   6.468   1.937 -2.2430  1.0479  0.1612
12092TIP3   OH257766   3.208   1.630   3.774  0.5701 -0.6053 -0.5661
12092TIP3    H157767   3.146   1.676   3.717  0.0811  0.5511  0.8428
12092TIP3    H257768   3.157   1.606   3.851  1.9389  0.9123  0.8978
12093TIP3   OH257769   1.456   4.251   2.878  0.3288  0.2757  0.0983
12093TIP3    H157770   1.409   4.239   2.961 -0.6945  1.0235 -0.3481
12093TIP3    H257771   1.429   4.338   2.848  1.9335  0.6891 -0.2405
12094TIP3   OH257772   6.212   2.268  12.741 -0.3377  0.2479  0.1582
12094TIP3    H157773   6.259   2.329  12.684 -1.4979 -0.5888 -1.8075
12094TIP3    H257774   6.235   2.295  12.830  0.3664  2.5713 -0.6627
12095TIP3   OH257775   4.086   0.189   6.413  0.1025  0.1756 -0.6010
12095TIP3    H157776   4.105   0.199   6.320 -1.3459 -1.1623 -1.0823
12095TIP3    H257777   4.010   0.131   6.416 -0.6165  1.1269  1.3698
12096TIP3   OH257778   2.007   5.635  15.610 -0.1366  0.2548  0.0701
12096TIP3    H157779   2.050   5.551  15.598  1.6200  0.8460  1.7597
12096TIP3    H257780   1.976   5.634  15.700 -0.1034  1.4148  0.1085
12097TIP3   OH257781   5.261   2.070   0.853 -0.1906 -0.2439 -0.1044
12097TIP3    H157782   5.190   2.027   0.900 -0.6787  0.7448  0.0993
12097TIP3    H257783   5.230   2.160   0.839 -0.3708 -0.6496 -2.9239
12098TIP3   OH257784   1.746   5.979   4.263 -0.2492 -0.2121 -0.4796
12098TIP3    H157785   1.736   5.884   4.259  0.0466 -0.2810  0.2805
12098TIP3    H257786   1.841   5.993   4.271 -0.2326  0.1793 -1.2120
12099TIP3   OH257787   3.311   3.252   6.246 -0.0511 -0.4498 -0.2017
12099TIP3    H157788   3.323   3.187   6.177  1.2546  0.0191 -0.4382
12099TIP3    H257789   3.223   3.287   6.231 -0.3385 -1.3815 -0.7383
12100TIP3   OH257790   1.650   5.349   1.568  0.7065  0.0221 -0.2600
12100TIP3    H157791   1.601   5.300   1.502 -1.9588  2.3920 -0.2762
12100TIP3    H257792   1.636   5.300   1.650 -1.1501  0.2247 -0.4159
12101TIP3   OH257793   1.731   6.378  14.240 -0.0690  0.2546 -0.2692
12101TIP3    H157794   1.804   6.439  14.255  0.1154  0.7363 -2.7854
12101TIP3    H257795   1.692   6.407  14.158 -0.4461 -2.5901 -1.1838
12102TIP3   OH257796   6.553   4.880  11.960  0.5900  0.1657  0.4043
12102TIP3    H157797   6.611   4.908  12.030 -1.0169 -0.7115  2.1810
12102TIP3    H257798   6.470   4.924  11.979  0.3545  0.6244 -1.5026
12103TIP3   OH257799   4.194   5.209   0.552  0.2862  0.1401  0.4128
12103TIP3    H157800   4.228   5.287   0.595 -1.3546 -0.4418  3.0341
12103TIP3    H257801   4.101   5.229   0.536  0.3888 -0.4395 -1.0434
12104TIP3   OH257802   5.356   2.242   0.517  0.6215 -1.0385  0.7177
12104TIP3    H157803   5.263   2.223   0.530  0.3367  0.3784  0.9039
12104TIP3    H257804   5.397   2.156   0.506 -0.2204 -1.9191  3.6835
12105TIP3   OH257805   6.431   0.885   0.254  0.5044 -0.1063 -0.4541
12105TIP3    H157806   6.472   0.948   0.195 -2.0877  2.0832 -0.1263
12105TIP3    H257807   6.337   0.900   0.243 -0.2212 -3.4488  0.2560
12106TIP3   OH257808   3.762   6.121   0.344 -0.6515 -0.2757  0.0669
12106TIP3    H157809   3.790   6.033   0.319  0.5774  0.5584 -1.7357
12106TIP3    H257810   3.670   6.126   0.318 -0.1149 -0.3230 -2.0280
12107TIP3   OH257811   2.283   0.426   4.070  0.1784 -0.2504  0.1056
12107TIP3    H157812   2.269   0.397   3.980  0.2388 -1.2798  0.4142
12107TIP3    H257813   2.208   0.391   4.118  0.1867  0.2281  0.4638
12108TIP3   OH257814   4.103   6.760  12.064 -0.0567  0.0537 -0.0351
12108TIP3    H157815   4.105   6.839  12.010  1.1498 -0.4403 -0.7514
12108TIP3    H257816   4.185   6.762  12.112 -0.1593 -0.6077  0.1756
12109TIP3   OH257817   3.725   5.524  15.001 -0.3360 -0.0988  0.1164
12109TIP3    H157818   3.702   5.552  15.090 -2.6176  0.0726 -0.4643
12109TIP3    H257819   3.775   5.444  15.013  2.3557  1.6639  1.6497
12110TIP3   OH257820   3.063   2.572   3.857 -0.3533 -0.2622  0.3642
12110TIP3    H157821   3.101   2.660   3.849  1.5165 -1.1730 -1.4992
12110TIP3    H257822   3.029   2.569   3.947  0.9020  1.8384  0.9752
12111TIP3   OH257823   4.786   2.885   3.519  0.1527 -0.3289  0.3036
12111TIP3    H157824   4.768   2.798   3.483 -1.7907 -0.6095  1.8276
12111TIP3    H257825   4.816   2.868   3.608  0.1217  0.5617  0.4942
12112TIP3   OH257826   0.121   6.671  12.861 -0.3441  0.0898 -0.0348
12112TIP3    H157827   0.049   6.734  12.849  1.0163  1.4626 -1.4609
12112TIP3    H257828   0.141   6.641  12.773  1.6921  0.7442  0.1683
12113TIP3   OH257829   2.878   1.858  15.953  0.2928  0.3681 -0.2005
12113TIP3    H157830   2.861   1.952  15.953  2.9698  0.9411  0.7721
12113TIP3    H257831   2.895   1.836  15.862  1.3847  1.2288 -0.2251
12114TIP3   OH257832   0.045   0.521  14.747  0.1880 -0.3740 -0.2885
12114TIP3    H157833  -0.038   0.474  14.740  1.0024 -1.8765 -0.1233
12114TIP3    H257834   0.046   0.554  14.837  0.5386 -1.8655  0.2771
12115TIP3   OH257835   5.398   5.129   6.384 -0.2103 -0.0938 -0.3413
12115TIP3    H157836   5.401   5.132   6.480  0.8553 -1.0984 -0.3177
12115TIP3    H257837   5.438   5.045   6.362 -2.1399 -0.7365 -1.6134
12116TIP3   OH257838   2.736   3.585   3.078  0.3019 -0.2820  0.7766
12116TIP3    H157839   2.666   3.600   3.014  2.1414 -0.6284 -1.4577
12116TIP3    H257840   2.767   3.673   3.100  0.3873 -0.1945  0.3205
12117TIP3   OH257841   0.847   3.387   1.671 -0.3279  0.0018 -0.1395
12117TIP3    H157842   0.876   3.477   1.657  0.2564 -0.2023 -0.2601
12117TIP3    H257843   0.840   3.351   1.583  1.0503 -0.5639 -0.0450
12118TIP3   OH257844   6.547   1.882  12.410 -0.4354  0.3184  0.5338
12118TIP3    H157845   6.502   1.965  12.397  2.6855  1.9373 -0.9203
12118TIP3    H257846   6.613   1.901  12.477  0.4845 -0.9223  0.0093
12119TIP3   OH257847   6.107   5.785   5.020 -0.4270  0.7748 -0.4225
12119TIP3    H157848   6.177   5.751   4.964  0.2853  0.5353  0.5856
12119TIP3    H257849   6.103   5.878   4.998  0.7694  0.9595  0.0542
12120TIP3   OH257850   5.002   5.385   2.529  0.2369 -0.3142  0.3345
12120TIP3    H157851   4.920   5.422   2.561 -1.4141 -1.8352 -1.8133
12120TIP3    H257852   5.021   5.314   2.590 -0.0790 -0.0106  0.7973
12121TIP3   OH257853   0.561   5.859  15.718 -0.2997 -0.2551 -0.6720
12121TIP3    H157854   0.594   5.769  15.725  0.2184  0.0089  0.3955
12121TIP3    H257855   0.475   5.856  15.761  0.8798  0.3271  1.9081
12122TIP3   OH257856   3.982   2.397   0.570 -0.2230  0.3197  0.1530
12122TIP3    H157857   4.032   2.372   0.648  0.8685  1.1843 -0.2292
12122TIP3    H257858   3.946   2.483   0.592  0.9603  1.0569 -0.6271
12123TIP3   OH257859   1.144   4.577   1.207 -0.5446 -0.0522  0.4826
12123TIP3    H157860   1.173   4.557   1.296 -1.6247  1.0156  1.1226
12123TIP3    H257861   1.085   4.652   1.218 -2.5659 -1.3304 -0.8313
12124TIP3   OH257862   0.200   3.957   3.572  0.1422  0.3508  0.5660
12124TIP3    H157863   0.156   3.878   3.542 -0.0147  0.6230  0.0628
12124TIP3    H257864   0.269   3.972   3.507  1.2804 -0.3242  1.5875
12125TIP3   OH257865   2.397   6.599  14.197 -0.0056  0.5626  0.1153
12125TIP3    H157866   2.330   6.664  14.174 -0.5889 -0.1564 -0.2858
12125TIP3    H257867   2.360   6.516  14.166  0.1329 -0.1532  1.7713
12126TIP3   OH257868   2.370   2.310  14.359  0.2366  0.1546 -0.2621
12126TIP3    H157869   2.364   2.371  14.285 -0.8815 -0.7728 -0.9743
12126TIP3    H257870   2.286   2.320  14.404  0.2874 -0.4109 -0.0361
12127TIP3   OH257871   2.221   3.592   5.404 -0.4621  0.1163  0.8061
12127TIP3    H157872   2.194   3.508   5.367 -1.0601  0.3412  0.7118
12127TIP3    H257873   2.254   3.642   5.330  0.6240 -0.3105  0.9908
12128TIP3   OH257874   2.610   2.706  15.740 -0.2573 -0.2717  0.6650
12128TIP3    H157875   2.703   2.723  15.727 -0.5031 -0.0052 -1.0133
12128TIP3    H257876   2.576   2.692  15.652 -1.6223 -1.4215  1.3309
12129TIP3   OH257877   1.978   2.761  17.185  0.0515  0.0648  0.3397
12129TIP3    H157878   1.928   2.809  17.250  0.6678  1.9165 -0.4856
12129TIP3    H257879   1.927   2.768  17.104  0.5555  0.0561  0.0144
12130TIP3   OH257880   4.190   1.732   5.560 -0.3394  0.7356 -0.0626
12130TIP3    H157881   4.239   1.812   5.579 -0.8194  0.7191  1.3556
12130TIP3    H257882   4.166   1.697   5.646 -1.0268 -0.3803 -0.6808
12131TIP3   OH257883   0.414   1.304  12.284  0.1520 -0.3402 -0.5161
12131TIP3    H157884   0.345   1.324  12.220  0.2923  0.7096 -0.3481
12131TIP3    H257885   0.495   1.307  12.233  0.0281 -3.0549 -1.0593
12132TIP3   OH257886   0.961   4.165   0.497 -0.2025 -0.4949  0.2884
12132TIP3    H157887   0.912   4.237   0.537  3.3574  1.3428  1.8105
12132TIP3    H257888   0.976   4.104   0.569  1.3301 -0.0415  0.3860
12133TIP3   OH257889   3.187   0.311   1.491 -0.8241  0.0093 -0.4137
12133TIP3    H157890   3.243   0.246   1.448 -1.2596 -0.1283 -0.7882
12133TIP3    H257891   3.130   0.259   1.547 -0.0228  0.2190  0.6131
12134TIP3   OH257892   1.845   1.521   3.432 -0.1172  0.5740 -0.6065
12134TIP3    H157893   1.930   1.562   3.415  0.7679 -0.7576  0.4622
12134TIP3    H257894   1.859   1.465   3.508 -1.9520  0.2884 -0.4236
12135TIP3   OH257895   5.483   1.186   2.642 -0.1615 -0.4392 -0.4222
12135TIP3    H157896   5.391   1.191   2.669  0.6131  2.4127  2.2687
12135TIP3    H257897   5.484   1.221   2.553 -1.6254 -0.1974 -0.3680
12136TIP3   OH257898   2.114   0.787   0.140  0.1163  0.2282  0.0526
12136TIP3    H157899   2.185   0.723   0.142  0.3194  0.4694  2.0067
12136TIP3    H257900   2.059   0.760   0.066  2.2817  0.1174 -1.6291
12137TIP3   OH257901   2.919   6.321   0.054  0.5045  0.5989 -0.1038
12137TIP3    H157902   2.898   6.413   0.040  0.5269  0.8153  1.1776
12137TIP3    H257903   2.915   6.309   0.149 -1.3336 -1.1539 -0.3326
12138TIP3   OH257904   0.943   1.645  13.119  0.2012 -0.6965 -0.2294
12138TIP3    H157905   0.882   1.714  13.143  1.3597  0.6744 -1.0271
12138TIP3    H257906   0.984   1.619  13.202  0.1383 -0.0239  0.0213
12139TIP3   OH257907   2.651   3.836   5.353 -0.1216  0.0471  0.0804
12139TIP3    H157908   2.646   3.760   5.294 -0.4570 -2.4026  3.0366
12139TIP3    H257909   2.566   3.879   5.343 -0.1776 -0.2958 -1.1618
12140TIP3   OH257910   5.093   4.307  16.811  0.0947  0.0010  0.2706
12140TIP3    H157911   5.044   4.233  16.776 -0.5286  0.0069  1.1037
12140TIP3    H257912   5.069   4.311  16.903  0.8865  0.6371  0.4646
12141TIP3   OH257913   1.115   3.649   4.518  0.1186 -0.0782 -0.1375
12141TIP3    H157914   1.036   3.688   4.555 -1.5478 -1.3703 -2.1297
12141TIP3    H257915   1.147   3.715   4.456  0.0638  0.0452 -0.0361
12142TIP3   OH257916   1.364   5.691  16.747 -0.0583 -0.1270  0.1623
12142TIP3    H157917   1.381   5.722  16.659  0.1928  0.7037  0.4953
12142TIP3    H257918   1.440   5.718  16.798 -1.0780  1.1787  1.0601
12143TIP3   OH257919   5.978   3.823  16.064 -0.0015  0.4617 -0.2712
12143TIP3    H157920   5.978   3.863  15.977 -2.0571 -0.6413 -0.8374
12143TIP3    H257921   5.959   3.896  16.123  1.7483  1.2906 -0.6465
12144TIP3   OH257922   4.333   1.202   0.159 -0.2247  0.0799 -0.1809
12144TIP3    H157923   4.278   1.280   0.170  0.4868  0.4836  0.6003
12144TIP3    H257924   4.272   1.134   0.129 -1.1034  0.5807  0.4226
12145TIP3   OH257925   4.690   4.029   5.707 -0.2181 -0.1789  0.1304
12145TIP3    H157926   4.638   3.997   5.780 -0.9895 -0.3623 -0.4743
12145TIP3    H257927   4.653   3.984   5.630  0.2784  0.3365 -0.4207
12146TIP3   OH257928   2.058   4.721  15.476 -0.2630 -0.1542 -0.9534
12146TIP3    H157929   2.009   4.750  15.553  0.0161  2.7309 -1.7740
12146TIP3    H257930   2.078   4.629  15.495 -2.9505 -0.4834  0.9495
12147TIP3   OH257931   2.411   0.302  12.699  0.0024 -0.0258  0.2924
12147TIP3    H157932   2.350   0.311  12.626 -0.0455  1.1362  0.4586
12147TIP3    H257933   2.399   0.212  12.730 -0.6374 -0.2346 -0.5426
12148TIP3   OH257934   0.535   0.450  13.565 -0.6452 -0.0628  0.1838
12148TIP3    H157935   0.499   0.516  13.505 -0.3926  0.6473  0.7957
12148TIP3    H257936   0.482   0.372  13.549 -0.4588  0.0406 -1.0986
12149TIP3   OH257937   2.427   1.006  16.613 -0.2848 -0.6827  0.0665
12149TIP3    H157938   2.362   0.940  16.639 -0.2604 -0.1752  1.4885
12149TIP3    H257939   2.510   0.959  16.614 -0.5474 -1.2355 -1.3729
12150TIP3   OH257940   4.832   6.188  14.429 -0.6613 -0.5261  0.0894
12150TIP3    H157941   4.901   6.189  14.363 -0.4018 -1.3176  0.3351
12150TIP3    H257942   4.753   6.162  14.381 -0.3949 -1.4784  0.1502
12151TIP3   OH257943   4.377   0.657  11.372  0.1701  0.2202  0.4980
12151TIP3    H157944   4.347   0.572  11.341  0.6356  0.7739 -1.5682
12151TIP3    H257945   4.297   0.702  11.400 -0.8834  0.9825 -3.2195
12152TIP3   OH257946   3.511   3.150  15.485 -0.3978  0.1207  0.3493
12152TIP3    H157947   3.544   3.062  15.501  0.4872  0.0303 -1.6307
12152TIP3    H257948   3.418   3.138  15.465 -0.1757 -0.4363 -0.3768
12153TIP3   OH257949   0.420   0.986   0.752  0.2641  0.2884  0.4197
12153TIP3    H157950   0.437   0.969   0.845  0.9616  0.4352  0.3293
12153TIP3    H257951   0.504   0.968   0.710 -0.3871 -1.0329 -0.3599
12154TIP3   OH257952   5.089   6.272  15.274 -0.2290  0.1149 -0.0399
12154TIP3    H157953   5.039   6.223  15.209  1.1447 -2.0587  0.4177
12154TIP3    H257954   5.159   6.314  15.224  0.1769 -0.6478 -0.1207
12155TIP3   OH257955   4.842   3.377   6.004 -0.2139 -0.3244  0.3104
12155TIP3    H157956   4.910   3.317   6.035  1.6660  0.4463 -2.0203
12155TIP3    H257957   4.771   3.367   6.068  1.7247 -1.7692  2.4272
12156TIP3   OH257958   1.794   6.772   1.216  0.3793 -0.1863  0.1466
12156TIP3    H157959   1.842   6.712   1.158  0.4719  0.7170 -0.7305
12156TIP3    H257960   1.862   6.813   1.269  0.2667 -1.2644  1.1773
12157TIP3   OH257961   4.420   4.114  11.710 -0.2259 -0.3168  0.0684
12157TIP3    H157962   4.349   4.143  11.767  1.7157  0.9974  1.9959
12157TIP3    H257963   4.442   4.026  11.741 -1.0635 -0.7787 -0.6203
12158TIP3   OH257964   0.491   0.961   6.198 -0.1985  0.2859  0.1986
12158TIP3    H157965   0.546   0.974   6.276 -2.9403 -1.9712  2.7320
12158TIP3    H257966   0.402   0.978   6.228 -1.3049  0.5228 -2.8636
12159TIP3   OH257967   1.824   2.255  16.021 -0.4972 -0.3672  0.2682
12159TIP3    H157968   1.732   2.238  16.002 -0.8911 -0.8588  2.3012
12159TIP3    H257969   1.829   2.257  16.117  1.5307  0.1242  0.2141
12160TIP3   OH257970   6.642   2.041   2.641  0.5541  0.0093 -0.6057
12160TIP3    H157971   6.576   2.078   2.582 -0.3178 -1.0387 -0.3147
12160TIP3    H257972   6.691   1.979   2.587 -0.3408 -1.0602 -0.2107
12161TIP3   OH257973   2.143   5.104  10.344 -0.6443 -0.2244  0.4604
12161TIP3    H157974   2.217   5.152  10.382  0.6221 -1.4311 -0.3831
12161TIP3    H257975   2.183   5.044  10.281 -2.5238  0.4470 -1.4892
12162TIP3   OH257976   0.973   5.435  11.595  0.0604 -0.0242  0.3279
12162TIP3    H157977   0.890   5.469  11.630 -0.3149 -0.2961 -0.2981
12162TIP3    H257978   0.961   5.341  11.591 -0.1509  0.0386 -1.1362
12163TIP3   OH257979   1.812   1.853   4.293 -0.3033  0.3637 -0.0847
12163TIP3    H157980   1.799   1.830   4.385  0.0682 -0.7792 -0.3062
12163TIP3    H257981   1.724   1.877   4.262 -0.5111  0.2903  0.4360
12164TIP3   OH257982   1.084   4.899  13.169 -0.1093 -0.9264 -0.3287
12164TIP3    H157983   0.992   4.888  13.147 -0.2398  1.2901 -1.1166
12164TIP3    H257984   1.085   4.922  13.262 -0.4260 -0.0341 -0.5471
12165TIP3   OH257985   2.010   3.569   0.133 -0.5149  0.2259  0.2613
12165TIP3    H157986   1.978   3.625   0.203 -0.3663  0.3129  0.2614
12165TIP3    H257987   1.962   3.598   0.055  0.9871  1.7237 -0.1583
12166TIP3   OH257988   2.666   4.979   1.175  0.0095  0.2697  0.5222
12166TIP3    H157989   2.643   4.899   1.128 -0.8847  1.3829 -1.0039
12166TIP3    H257990   2.646   4.959   1.267  1.8461 -1.9640  0.5248
12167TIP3   OH257991   6.503   4.875   4.576  0.2912 -0.0000  0.0430
12167TIP3    H157992   6.442   4.852   4.646  2.2079 -1.4640  1.3367
12167TIP3    H257993   6.493   4.805   4.511  1.1318 -0.7124  0.6541
12168TIP3   OH257994   0.661   3.814   3.340 -0.2231  0.3903 -0.2056
12168TIP3    H157995   0.615   3.759   3.276  1.1070 -0.6965 -0.2717
12168TIP3    H257996   0.709   3.752   3.395  0.6484  1.4507  0.2729
12169TIP3   OH257997   2.819   2.760  14.183 -0.1489 -0.3353  0.4896
12169TIP3    H157998   2.734   2.722  14.163 -0.1135 -1.2897  1.9822
12169TIP3    H257999   2.810   2.793  14.272  0.0092  2.7553 -0.5145
12170TIP3   OH258000   1.798   2.818  15.363 -0.5497  0.5947 -0.2706
12170TIP3    H158001   1.704   2.816  15.348 -0.6547  2.0226  0.0771
12170TIP3    H258002   1.827   2.902  15.329  0.5134  0.4209  0.1467
12171TIP3   OH258003   1.167   2.889  15.708 -0.1017  0.3811 -0.8787
12171TIP3    H158004   1.203   2.804  15.683  0.5400  0.4988 -0.3652
12171TIP3    H258005   1.099   2.906  15.642  0.2577 -0.1897 -1.4062
12172TIP3   OH258006   2.069   2.672  16.584 -0.5617 -0.6193 -0.3688
12172TIP3    H158007   2.089   2.675  16.490  0.1407 -1.9853 -0.2875
12172TIP3    H258008   2.141   2.721  16.624 -0.6423 -0.3862 -0.5029
12173TIP3   OH258009   5.543   1.095   1.575  0.0712 -0.4422 -0.0200
12173TIP3    H158010   5.522   1.182   1.609  1.0464 -0.3861  0.4817
12173TIP3    H258011   5.550   1.040   1.653 -0.9812 -1.0875 -0.3591
12174TIP3   OH258012   2.759   2.191   1.823 -0.2826  0.2621 -0.0374
12174TIP3    H158013   2.701   2.159   1.754  1.2253 -1.3808 -0.5976
12174TIP3    H258014   2.753   2.124   1.892 -0.5482  1.0935  0.7766
12175TIP3   OH258015   5.442   5.643  14.357  0.1567 -0.2894  0.0006
12175TIP3    H158016   5.479   5.732  14.357 -2.2503  0.7834 -0.4485
12175TIP3    H258017   5.349   5.656  14.371 -0.1281 -2.8582  0.9315
12176TIP3   OH258018   5.476   4.615   3.833  0.7912 -0.4102 -0.5831
12176TIP3    H158019   5.491   4.662   3.915 -1.3808 -0.5860  0.0012
12176TIP3    H258020   5.506   4.675   3.764  1.8668  0.0939  0.3045
12177TIP3   OH258021   1.336   4.953   3.326  0.1667 -0.2206 -0.1904
12177TIP3    H158022   1.260   4.898   3.308 -0.1373  0.6786 -1.9470
12177TIP3    H258023   1.344   5.008   3.248  1.7179  0.7539  0.6066
12178TIP3   OH258024   0.815   4.490   0.168 -0.0267 -0.0719  0.5157
12178TIP3    H158025   0.844   4.495   0.077 -0.3196 -0.0218  0.4253
12178TIP3    H258026   0.767   4.571   0.182  0.9815  0.4454  1.0528
12179TIP3   OH258027   2.332   3.613  12.391 -0.4242  0.0747 -0.9133
12179TIP3    H158028   2.250   3.652  12.359 -0.4967  0.1280 -0.6660
12179TIP3    H258029   2.352   3.544  12.327  0.5079  1.4875 -2.2121
12180TIP3   OH258030   3.343   0.938   2.632  0.4043  0.0213  0.3697
12180TIP3    H158031   3.340   0.865   2.570  0.8495  0.3942 -0.0970
12180TIP3    H258032   3.319   1.015   2.580 -1.2143  0.0658  1.1045
12181TIP3   OH258033   5.419   1.051   1.830 -0.4637  0.0749  0.0522
12181TIP3    H158034   5.327   1.068   1.809  0.1541  0.9393 -2.2782
12181TIP3    H258035   5.430   1.084   1.919 -2.2267  0.6560  0.0891
12182TIP3   OH258036   3.528   0.852   4.633 -0.0249  0.1012  0.2788
12182TIP3    H158037   3.622   0.840   4.647  0.0467  1.4413  1.1066
12182TIP3    H258038   3.518   0.943   4.606 -1.1803  0.3323  1.3552
12183TIP3   OH258039   1.556   3.027   4.944 -0.5726  0.3162 -0.1393
12183TIP3    H158040   1.527   2.964   5.010 -0.7670  0.2464 -0.2915
12183TIP3    H258041   1.643   2.997   4.919  0.5696  1.7216  1.8585
12184TIP3   OH258042   5.597   5.208   5.799  0.2450 -0.1305  0.0698
12184TIP3    H158043   5.510   5.203   5.840  0.8709 -0.6506  1.3994
12184TIP3    H258044   5.597   5.136   5.736  0.6658 -2.0170  2.0897
12185TIP3   OH258045   2.616   1.405  16.699  0.2245  0.6551 -0.0928
12185TIP3    H158046   2.571   1.387  16.617  0.1785  0.2437  0.0225
12185TIP3    H258047   2.553   1.381  16.767  1.3869 -2.1761  0.1242
12186TIP3   OH258048   5.413   1.638   0.455 -0.0456  0.3671  0.3737
12186TIP3    H158049   5.322   1.630   0.424  0.7526 -0.5576 -1.9727
12186TIP3    H258050   5.424   1.732   0.472 -1.1873  0.6208 -0.1818
12187TIP3   OH258051   4.507   4.761  11.967  0.4441 -0.0719 -0.1033
12187TIP3    H158052   4.563   4.767  11.890 -0.7760 -0.9882 -1.1087
12187TIP3    H258053   4.419   4.777  11.933 -0.2197 -1.3449  0.9339
12188TIP3   OH258054   1.649   4.354   5.255 -0.8585  0.1211 -0.4671
12188TIP3    H158055   1.635   4.273   5.305 -0.2096  0.2034 -0.1429
12188TIP3    H258056   1.566   4.402   5.264 -1.5102 -0.8135 -1.2483
12189TIP3   OH258057   1.096   0.633   1.821  0.5159 -0.3590 -0.7540
12189TIP3    H158058   1.136   0.716   1.796 -0.9147 -0.5680 -4.2808
12189TIP3    H258059   1.166   0.569   1.812  1.3551  0.2453  0.9966
12190TIP3   OH258060   0.233   1.533  11.541  0.1226  0.5673 -0.1295
12190TIP3    H158061   0.261   1.484  11.619 -0.1529 -0.4946 -0.6717
12190TIP3    H258062   0.177   1.602  11.576 -0.4664 -0.2405  0.5959
12191TIP3   OH258063   3.619   4.170   4.460 -0.3012  0.2621 -0.2803
12191TIP3    H158064   3.611   4.229   4.535 -0.6643  1.2753 -1.0880
12191TIP3    H258065   3.591   4.085   4.493 -0.6127  0.7247  0.6828
12192TIP3   OH258066   2.191   6.086   5.890  0.1183 -0.4191  0.3278
12192TIP3    H158067   2.177   6.176   5.919  0.8912  0.2342 -1.2656
12192TIP3    H258068   2.279   6.064   5.922 -0.3811 -0.9316  1.4237
12193TIP3   OH258069   5.523   3.164   0.833 -0.1898  0.2297  0.3743
12193TIP3    H158070   5.615   3.155   0.812 -0.2929  0.4914 -0.1870
12193TIP3    H258071   5.487   3.076   0.819 -0.6467  0.7636 -2.5050
12194TIP3   OH258072   2.918   6.193  14.200  0.2042 -0.3640 -0.2113
12194TIP3    H158073   2.907   6.284  14.226 -0.5148 -1.0590  2.2044
12194TIP3    H258074   2.957   6.151  14.277 -0.2597 -2.2468 -0.9543
12195TIP3   OH258075   3.429   0.756   0.224 -0.2683  0.3098 -0.1818
12195TIP3    H158076   3.412   0.698   0.298  1.4737 -0.3438 -0.2451
12195TIP3    H258077   3.344   0.793   0.202 -1.0043 -0.3442  1.4270
12196TIP3   OH258078   3.006   3.441   0.940 -0.2800  0.4611 -0.2943
12196TIP3    H158079   2.918   3.439   0.979  0.0412 -0.0748  0.4179
12196TIP3    H258080   3.047   3.518   0.980 -0.1560  0.2570 -0.0284
12197TIP3   OH258081   3.155   0.770   1.517 -0.2457 -0.4059 -0.6194
12197TIP3    H158082   3.082   0.751   1.576  1.1592 -0.4912  1.1481
12197TIP3    H258083   3.167   0.690   1.467 -0.6895 -0.7525 -0.1774
12198TIP3   OH258084   1.960   2.446  12.375  0.0969 -0.0620 -0.1153
12198TIP3    H158085   2.047   2.482  12.360  0.0739  0.7345  1.3989
12198TIP3    H258086   1.920   2.443  12.288 -0.0051  3.9614 -0.4263
12199TIP3   OH258087   3.520   3.470   4.028  0.0350  0.1730  0.2004
12199TIP3    H158088   3.534   3.377   4.007 -0.4919 -0.0803  0.9161
12199TIP3    H258089   3.601   3.498   4.070  0.5423  0.2920 -0.8366
12200TIP3   OH258090   5.595   3.867  12.264  0.1265 -0.2561 -0.4626
12200TIP3    H158091   5.678   3.907  12.289  0.1021  0.0641 -0.8887
12200TIP3    H258092   5.588   3.882  12.170 -1.2901  1.3646 -0.1552
12201TIP3   OH258093   4.643   4.273  12.265  0.0028 -0.0389 -0.5501
12201TIP3    H158094   4.636   4.178  12.278 -0.0535 -0.0361 -0.5586
12201TIP3    H258095   4.610   4.311  12.346  0.1409 -0.0276 -0.4983
12202TIP3   OH258096   1.562   6.322  13.288 -0.8121 -0.1413 -0.0262
12202TIP3    H158097   1.585   6.383  13.218 -0.2375 -0.5465 -0.2000
12202TIP3    H258098   1.496   6.368  13.339  1.3566  1.6648  1.3305
12203TIP3   OH258099   2.251   4.754  16.847  0.3357 -0.0677  0.8077
12203TIP3    H158100   2.230   4.842  16.814  1.4148  0.6065  1.8464
12203TIP3    H258101   2.165   4.715  16.866 -0.2959 -0.1525 -1.8064
12204TIP3   OH258102   1.512   4.749   2.766 -0.4782  0.2944 -0.6826
12204TIP3    H158103   1.590   4.754   2.711 -1.6853 -0.3364 -2.5513
12204TIP3    H258104   1.453   4.816   2.731 -1.6780 -0.8163 -0.8846
12205TIP3   OH258105   0.239   1.206  11.727  0.1512  0.5831  0.0504
12205TIP3    H158106   0.288   1.288  11.740  0.1700  0.5912 -0.0695
12205TIP3    H258107   0.245   1.189  11.633 -0.9065  1.0998 -0.1263
12206TIP3   OH258108   1.408   3.703  15.877 -0.6049 -0.6705 -0.0404
12206TIP3    H158109   1.470   3.773  15.897  0.6528 -2.2090  1.8475
12206TIP3    H258110   1.351   3.739  15.810  1.5369  1.2783 -0.9329
12207TIP3   OH258111   5.112   4.071   4.616 -0.0385  0.0125 -0.0968
12207TIP3    H158112   5.142   4.077   4.526  1.1875 -0.7102  0.2423
12207TIP3    H258113   5.177   4.121   4.666 -0.5085  0.0990  0.4348
12208TIP3   OH258114   5.675   5.484   2.386  0.0024 -0.5481  0.1010
12208TIP3    H158115   5.734   5.408   2.387  1.2909  0.4075 -0.3062
12208TIP3    H258116   5.728   5.554   2.347 -1.2866  0.4569  0.1190
12209TIP3   OH258117   1.487   4.043  16.290  0.7015 -0.5947  0.3235
12209TIP3    H158118   1.482   4.085  16.377 -0.7343  0.9316 -0.4254
12209TIP3    H258119   1.405   3.993  16.284 -0.2277  0.9625 -0.8786
12210TIP3   OH258120   3.060   0.004  17.137 -0.4740 -0.0697 -0.1135
12210TIP3    H158121   3.044   0.085  17.088 -1.2482 -0.9223 -1.3448
12210TIP3    H258122   3.138  -0.034  17.096 -1.9398 -1.5040 -1.7683
12211TIP3   OH258123   6.508   0.895  16.235 -0.2662  0.0910 -0.6550
12211TIP3    H158124   6.455   0.961  16.280 -1.4573 -1.3036  0.0865
12211TIP3    H258125   6.549   0.845  16.306  1.5298  0.6843 -1.2126
12212TIP3   OH258126   5.888   5.851  17.153 -0.1897 -0.0499 -0.0309
12212TIP3    H158127   5.926   5.928  17.111 -1.0805  1.6379  2.1075
12212TIP3    H258128   5.814   5.827  17.096 -0.3854  1.1803 -0.3301
12213TIP3   OH258129   6.394   0.195  12.268 -0.2788  0.2054 -0.3038
12213TIP3    H158130   6.411   0.262  12.202 -0.5751  0.1329 -0.4543
12213TIP3    H258131   6.334   0.237  12.330 -0.1504  0.2107 -0.1836
12214TIP3   OH258132   4.674   6.754   2.889  0.0948 -0.1257 -0.4135
12214TIP3    H158133   4.701   6.803   2.811  2.1117 -1.0591 -0.3813
12214TIP3    H258134   4.743   6.771   2.953 -0.7760 -0.5397  0.6723
12215TIP3   OH258135   3.509   4.124   1.830  0.4342 -0.0344  0.4652
12215TIP3    H158136   3.506   4.102   1.923  2.7138 -2.2391  0.1301
12215TIP3    H258137   3.492   4.218   1.828 -0.4235 -0.0363  3.0110
12216TIP3   OH258138   1.125   4.359  12.455  1.3318 -0.7065 -0.1417
12216TIP3    H158139   1.140   4.336  12.364  1.5626  0.1874 -0.3407
12216TIP3    H258140   1.167   4.289  12.505  0.9173 -1.3779 -0.7107
12217TIP3   OH258141   0.713   0.342   1.895 -0.2365 -0.3232 -0.4923
12217TIP3    H158142   0.685   0.391   1.972  0.4959  2.0474 -1.6342
12217TIP3    H258143   0.806   0.328   1.907  0.2618  1.5992 -1.6397
12218TIP3   OH258144   0.045   2.243  16.111  0.0195 -0.1875  0.6920
12218TIP3    H158145   0.035   2.257  16.017  0.5975  1.1293  0.8118
12218TIP3    H258146   0.011   2.154  16.125 -1.4958  0.1488 -0.5107
12219TIP3   OH258147   4.469   3.691   3.947 -0.2456  0.6972 -0.7955
12219TIP3    H158148   4.394   3.747   3.926 -0.2651  1.3403  0.8285
12219TIP3    H258149   4.494   3.716   4.036  1.2336 -0.2593 -0.8959
12220TIP3   OH258150   6.668   5.667  15.777 -0.4666 -0.4295 -0.0502
12220TIP3    H158151   6.585   5.635  15.741  0.2607 -1.5003 -0.8296
12220TIP3    H258152   6.733   5.601  15.751  0.5284  0.0542  1.0976
12221TIP3   OH258153   5.448   0.001   5.581  0.9830  0.5311  0.3099
12221TIP3    H158154   5.393  -0.062   5.535  1.2204  0.7217 -0.2465
12221TIP3    H258155   5.536  -0.038   5.580  0.9653  0.4804  0.7071
12222TIP3   OH258156   4.266   0.179  10.989  0.1837  0.1783 -0.3265
12222TIP3    H158157   4.328   0.111  11.013 -0.4281 -0.4288 -0.4413
12222TIP3    H258158   4.265   0.179  10.893  0.2759  0.4452 -0.3305
12223TIP3   OH258159   1.690   5.276  17.135  0.4732  0.5429 -0.2921
12223TIP3    H158160   1.609   5.231  17.158  0.5590  0.5389  0.0040
12223TIP3    H258161   1.758   5.209  17.142  0.5490  0.6280 -0.2192
12224TIP3   OH258162   0.874   0.325  16.091 -0.0337 -0.8566 -0.1926
12224TIP3    H158163   0.881   0.409  16.136 -0.5974 -0.6807 -0.4216
12224TIP3    H258164   0.965   0.296  16.079  0.1514 -0.4277  0.1581
12225TIP3   OH258165   5.503   4.760  13.412  0.2648  0.3127  0.1090
12225TIP3    H158166   5.562   4.770  13.336  1.3220 -0.3990  0.8079
12225TIP3    H258167   5.526   4.674  13.448 -1.4187 -0.1009  0.2471
12226TIP3   OH258168   0.126   4.991   0.592  0.0920  0.3847 -0.2962
12226TIP3    H158169   0.082   4.909   0.571  0.5786  0.0956 -0.2021
12226TIP3    H258170   0.213   4.982   0.554 -0.8722  2.1970 -3.2379
12227TIP3   OH258171   3.762   2.605   0.447 -1.0169  0.0941  0.1845
12227TIP3    H158172   3.719   2.522   0.466 -1.3990 -0.0742 -1.3262
12227TIP3    H258173   3.835   2.582   0.391 -0.4762  0.6742  0.6314
12228TIP3   OH258174   4.792   5.509   1.527  0.3221 -0.0774 -0.0306
12228TIP3    H158175   4.850   5.576   1.492 -0.3681  0.5517  0.0039
12228TIP3    H258176   4.815   5.429   1.479  2.1464 -0.1835  0.9291
12229TIP3   OH258177   1.756   4.895  13.017  0.1341 -0.6001  0.0814
12229TIP3    H158178   1.741   4.925  12.927 -0.3703 -0.4198  0.2190
12229TIP3    H258179   1.668   4.875  13.050  0.2562 -0.1030  0.7272
12230TIP3   OH258180   6.245   4.299   5.685  0.5595  0.2123 -0.6493
12230TIP3    H158181   6.305   4.246   5.633  0.6870  1.3384 -1.7025
12230TIP3    H258182   6.229   4.247   5.763  0.6181 -1.3997 -1.6614
12231TIP3   OH258183   5.682   4.342   1.460  0.4046 -0.6773  0.2630
12231TIP3    H158184   5.751   4.362   1.397 -0.8901  0.5952 -0.8029
12231TIP3    H258185   5.615   4.298   1.408 -1.3815  1.7892  0.3510
12232TIP3   OH258186   2.450   3.527  17.176 -0.5364  0.2946 -0.0246
12232TIP3    H158187   2.392   3.512  17.251  0.4490  1.3140  0.9833
12232TIP3    H258188   2.494   3.609  17.196  3.3030 -1.7055  0.6176
12233TIP3   OH258189   1.897   5.631  15.170  0.1401 -0.1151  0.0377
12233TIP3    H158190   1.898   5.537  15.184  0.1903 -0.3534 -1.4978
12233TIP3    H258191   1.878   5.667  15.257 -0.1141 -1.5350  0.6027
12234TIP3   OH258192   3.502   3.836  11.829  0.4317  0.1802 -0.2507
12234TIP3    H158193   3.521   3.768  11.893  1.0224  1.3932  0.9360
12234TIP3    H258194   3.424   3.880  11.863  1.6641  1.8649  0.6066
12235TIP3   OH258195   6.800   6.784  14.790 -0.1870  0.6693 -0.1085
12235TIP3    H158196   6.730   6.821  14.844 -0.3692  2.4107 -1.4451
12235TIP3    H258197   6.767   6.791  14.701  1.2000  0.4019 -0.6635
12236TIP3   OH258198   1.998   0.123  11.429  0.4568  0.8186 -0.2325
12236TIP3    H158199   1.913   0.093  11.462 -0.3736  1.0706 -2.0353
12236TIP3    H258200   2.014   0.071  11.350  2.0629  0.6959  0.1268
12237TIP3   OH258201   2.738   0.752  15.392  0.4206  0.0469 -0.4397
12237TIP3    H158202   2.829   0.772  15.370  1.1202 -1.5227  0.8199
12237TIP3    H258203   2.742   0.666  15.434 -1.7075 -0.2293 -0.7052
12238TIP3   OH258204   1.059   4.529  11.628  0.1770 -0.0509  0.1285
12238TIP3    H158205   1.135   4.529  11.570  0.2290 -1.1583  0.1726
12238TIP3    H258206   1.033   4.437  11.634  0.0218  0.0560  1.6507
12239TIP3   OH258207   3.991   5.451   2.489 -0.6246 -0.7070  0.4297
12239TIP3    H158208   4.005   5.545   2.477 -1.7481 -0.6577 -0.7356
12239TIP3    H258209   4.080   5.414   2.491 -0.1735  0.1538 -1.3134
12240TIP3   OH258210   3.194   0.416  15.098  0.7473  0.1213  0.3380
12240TIP3    H158211   3.199   0.442  15.006 -0.3387  0.1790  0.2826
12240TIP3    H258212   3.262   0.468  15.141  0.3592  1.1084 -0.2073
12241TIP3   OH258213   6.807   6.545   3.994 -0.0721  0.3351 -0.3566
12241TIP3    H158214   6.866   6.606   3.950  1.4752 -2.2069 -2.0482
12241TIP3    H258215   6.865   6.483   4.038 -1.4943 -1.2976 -0.6954
12242TIP3   OH258216   6.379   2.929  12.886  0.1625 -0.0923 -0.2611
12242TIP3    H158217   6.426   2.899  12.809  2.1804  0.9436  0.4868
12242TIP3    H258218   6.288   2.937  12.857  0.7168 -0.5193 -2.2804
12243TIP3   OH258219   5.143   4.758   0.252 -0.0441 -0.3415  0.1945
12243TIP3    H158220   5.063   4.710   0.229  0.1256 -0.2965 -0.5362
12243TIP3    H258221   5.121   4.807   0.331 -0.6750 -0.4846  0.1107
12244TIP3   OH258222   6.590   2.644   2.077 -0.1745 -0.1333  0.2258
12244TIP3    H158223   6.586   2.651   1.982  0.1564 -0.2265  0.2034
12244TIP3    H258224   6.569   2.733   2.108 -1.6032 -0.4055  0.1145
12245TIP3   OH258225   1.369   0.222  12.651  0.2256 -0.5513 -0.0066
12245TIP3    H158226   1.297   0.284  12.664 -0.2458 -1.0282 -0.2631
12245TIP3    H258227   1.410   0.214  12.737  0.8090  0.7223 -0.1519
12246TIP3   OH258228   0.431   5.209  15.541 -0.4459 -0.2255 -0.4445
12246TIP3    H158229   0.481   5.288  15.561 -0.1969 -0.5470  0.2462
12246TIP3    H258230   0.487   5.137  15.573 -0.6291 -0.6884 -1.1302
12247TIP3   OH258231   1.436   6.737   5.009  0.1316  0.3159 -0.1176
12247TIP3    H158232   1.393   6.818   4.983 -1.4767 -0.6409 -0.5370
12247TIP3    H258233   1.382   6.668   4.972  2.5482 -0.9751 -1.5025
12248TIP3   OH258234   5.621   4.087  15.249 -0.9793 -0.2973  0.3418
12248TIP3    H158235   5.682   4.042  15.191 -0.0510 -0.8648  1.7057
12248TIP3    H258236   5.561   4.134  15.190 -0.1093 -0.8848 -1.0463
12249TIP3   OH258237   5.277   3.661  13.445 -0.0444 -0.3294 -0.3314
12249TIP3    H158238   5.351   3.718  13.467 -1.6363  1.4018  0.9134
12249TIP3    H258239   5.234   3.706  13.372  0.4424 -1.6351 -1.4460
12250TIP3   OH258240   2.848   0.436   4.433 -0.5059  0.0206 -0.4018
12250TIP3    H158241   2.848   0.383   4.512 -0.3948 -1.1548 -1.1652
12250TIP3    H258242   2.926   0.490   4.440  0.9295 -1.8743 -0.8363
12251TIP3   OH258243   0.646   4.753  14.151 -0.4919  0.0118 -0.0106
12251TIP3    H158244   0.709   4.821  14.177 -0.1637  0.8969 -2.7338
12251TIP3    H258245   0.683   4.672  14.185  0.5808  0.8672  0.9434
12252TIP3   OH258246   0.770   0.869   0.428  0.2704  0.5434  0.4959
12252TIP3    H158247   0.719   0.911   0.497 -1.3357 -0.3111 -0.1032
12252TIP3    H258248   0.752   0.920   0.349  0.6400  0.4468  0.3430
12253TIP3   OH258249   5.451   4.713   1.869 -0.1077 -0.2741  0.3276
12253TIP3    H158250   5.443   4.649   1.939 -0.8381  0.2052  0.6922
12253TIP3    H258251   5.391   4.683   1.801  0.6192 -0.7532 -0.1206
12254TIP3   OH258252   3.711   6.626   5.742  0.4625 -0.5499  0.5801
12254TIP3    H158253   3.703   6.604   5.834 -0.8035 -0.5923  0.4789
12254TIP3    H258254   3.621   6.644   5.713  1.0557  1.8087 -0.0568
12255TIP3   OH258255   5.654   2.101  16.628  0.2051 -0.3203  0.3512
12255TIP3    H158256   5.704   2.084  16.708 -0.0792 -0.2283  0.5489
12255TIP3    H258257   5.626   2.192  16.635  0.6565 -0.1390 -0.1179
12256TIP3   OH258258   6.112   1.204  15.370  0.2817  0.3828  0.5637
12256TIP3    H158259   6.047   1.135  15.380 -2.7920  3.2282  2.7573
12256TIP3    H258260   6.060   1.283  15.355  3.5607  2.2917 -1.8182
12257TIP3   OH258261   6.325   6.818  11.602 -0.2581  0.3602  0.1772
12257TIP3    H158262   6.322   6.898  11.653  0.8292  0.6162 -0.1334
12257TIP3    H258263   6.416   6.812  11.571  0.1915 -1.9001  1.6635
12258TIP3   OH258264   3.428   4.850   6.116 -0.3293  0.2359 -0.3615
12258TIP3    H158265   3.471   4.900   6.046  1.7077  0.9519  1.3119
12258TIP3    H258266   3.408   4.915   6.183 -0.5906 -0.7201  0.5088
12259TIP3   OH258267   4.829   4.314   0.653 -0.4938 -0.1360 -0.5196
12259TIP3    H158268   4.891   4.253   0.613  2.0700  1.4173  0.7919
12259TIP3    H258269   4.838   4.395   0.602  0.1893  0.7624  0.9620
12260TIP3   OH258270   4.741   1.981  15.132  0.3011  0.4431 -0.1244
12260TIP3    H158271   4.733   1.931  15.213  1.9454 -0.5370 -0.5208
12260TIP3    H258272   4.826   2.026  15.140 -1.4098  3.8868  0.5486
12261TIP3   OH258273   1.825   3.210   4.692 -0.2699  0.3321  0.2527
12261TIP3    H158274   1.823   3.305   4.686 -0.1645  0.2582 -1.1830
12261TIP3    H258275   1.912   3.185   4.661 -0.4371 -0.2543  0.2434
12262TIP3   OH258276   1.087   5.606   0.278  0.1836  0.2254 -0.2970
12262TIP3    H158277   1.055   5.696   0.280 -0.2075  0.0945 -0.6997
12262TIP3    H258278   1.039   5.564   0.207 -2.5816 -1.3949  2.2868
12263TIP3   OH258279   3.038   3.308  14.113  0.9508 -0.0902  0.2101
12263TIP3    H158280   2.991   3.268  14.040  0.3687 -0.7556  0.9328
12263TIP3    H258281   2.979   3.298  14.188 -0.3225  4.2041  0.0262
12264TIP3   OH258282   3.410   5.481   0.566 -0.6265 -0.2867  0.4850
12264TIP3    H158283   3.346   5.516   0.628 -1.1727  0.1047 -0.2791
12264TIP3    H258284   3.401   5.537   0.489  0.8996 -0.0022  0.4940
12265TIP3   OH258285   2.838   4.335  14.619 -0.0591  0.4781 -0.2531
12265TIP3    H158286   2.743   4.343  14.619 -0.0000  1.3487 -0.8411
12265TIP3    H258287   2.864   4.361  14.707 -0.2729  1.6815 -0.5329
12266TIP3   OH258288   1.422   4.121  15.322 -0.1958 -0.2099 -0.2045
12266TIP3    H158289   1.424   4.102  15.228  1.3492  1.7568 -0.6267
12266TIP3    H258290   1.503   4.168  15.339  0.3217 -1.8388  2.4579
12267TIP3   OH258291   5.261   0.147   3.482 -0.1107  0.3834  0.0709
12267TIP3    H158292   5.222   0.096   3.411  0.0562 -0.0501  0.2883
12267TIP3    H258293   5.342   0.101   3.502 -0.1549  0.5093  0.5405
12268TIP3   OH258294   2.649   4.227   6.098  0.2072 -0.3120  0.0795
12268TIP3    H158295   2.556   4.249   6.104  0.0012 -1.5593  3.0394
12268TIP3    H258296   2.688   4.263   6.177  1.8763 -1.4618 -0.1603
12269TIP3   OH258297   4.091   1.981  13.831  0.0326 -0.2179 -0.2356
12269TIP3    H158298   4.144   1.922  13.885 -0.4054  0.3038  0.7882
12269TIP3    H258299   4.042   1.923  13.773  0.2277 -0.8137  0.1859
12270TIP3   OH258300   6.457   2.659   5.154  0.1075  0.2696  0.4096
12270TIP3    H158301   6.491   2.649   5.243  0.8429  1.1856  0.2417
12270TIP3    H258302   6.379   2.713   5.163  0.5018  0.8395  0.4408
12271TIP3   OH258303   5.791   0.740  11.887 -0.6284 -0.0478  0.2087
12271TIP3    H158304   5.774   0.814  11.829 -0.7586  1.2593  1.8430
12271TIP3    H258305   5.749   0.665  11.845  1.3720  0.2574 -2.6305
12272TIP3   OH258306   1.393   2.480  10.911  1.1035  0.3139  0.3964
12272TIP3    H158307   1.330   2.491  10.840  0.3910  1.1051  1.1164
12272TIP3    H258308   1.406   2.386  10.918 -0.0646  0.1358  0.2821
12273TIP3   OH258309   2.297   2.834   4.567  0.2953  0.3435  0.1449
12273TIP3    H158310   2.206   2.861   4.555  0.5262  0.5993 -1.2863
12273TIP3    H258311   2.312   2.769   4.498  0.5523 -1.4574  1.8076
12274TIP3   OH258312   3.332   2.743  12.758  0.0728  0.3829 -0.3844
12274TIP3    H158313   3.342   2.701  12.843 -3.1968 -0.6404 -0.3671
12274TIP3    H258314   3.373   2.829  12.768 -0.7794  0.5481  2.4460
12275TIP3   OH258315   4.990   1.107   5.483  0.1333  0.3996  0.1954
12275TIP3    H158316   4.929   1.033   5.476 -0.7493  1.1528 -0.2964
12275TIP3    H258317   4.936   1.184   5.465  1.2362  1.0899 -0.2489
12276TIP3   OH258318   4.625   3.239   2.971 -0.3429 -0.2937  0.3310
12276TIP3    H158319   4.626   3.297   2.896  0.8667 -1.4481 -0.5817
12276TIP3    H258320   4.535   3.246   3.005 -0.6143  1.0088 -0.5843
12277TIP3   OH258321   5.599   4.626  15.569 -0.3516  0.0281  0.1374
12277TIP3    H158322   5.674   4.566  15.559 -0.9028 -1.0816  2.0854
12277TIP3    H258323   5.523   4.573  15.545 -0.6833  0.5865 -0.0530
12278TIP3   OH258324   4.180   1.854  16.732 -0.7450 -0.2392 -0.1242
12278TIP3    H158325   4.246   1.918  16.757 -1.0673  0.3189 -0.6624
12278TIP3    H258326   4.097   1.893  16.760 -0.8240 -1.1200  0.9215
12279TIP3   OH258327   5.724   5.563  11.784  0.4803 -0.4945  0.1653
12279TIP3    H158328   5.709   5.541  11.692  0.2143 -1.2669  0.3808
12279TIP3    H258329   5.678   5.494  11.833  1.0676 -0.4011  0.8735
12280TIP3   OH258330   5.621   6.258  11.247 -0.2776  0.0416  0.0056
12280TIP3    H158331   5.529   6.233  11.253  0.1985 -1.6404  0.9662
12280TIP3    H258332   5.633   6.280  11.154 -0.9827 -2.7395 -0.8513
12281TIP3   OH258333   0.662   3.257  11.571  0.9915  0.0776  0.1033
12281TIP3    H158334   0.652   3.348  11.599  0.9792 -0.2206  1.0933
12281TIP3    H258335   0.660   3.206  11.652  1.6052 -0.7612 -0.3901
12282TIP3   OH258336   2.667   1.922   1.929  0.0596  0.3564  0.2523
12282TIP3    H158337   2.671   1.833   1.964 -1.6884 -0.8065 -2.2093
12282TIP3    H258338   2.580   1.953   1.953 -0.6665  0.0269 -1.7266
12283TIP3   OH258339   1.946   1.140  12.026 -0.3268 -0.2421  0.4106
12283TIP3    H158340   1.987   1.174  11.947  0.0099 -1.1736  0.1724
12283TIP3    H258341   2.015   1.091  12.070 -0.6452 -0.1467  1.0312
12284TIP3   OH258342   2.461   3.051   1.074 -0.5727 -0.5199  0.1830
12284TIP3    H158343   2.386   3.057   1.133  0.2754  0.6494  1.1805
12284TIP3    H258344   2.503   3.137   1.079  1.7182 -1.5961  0.8739
12285TIP3   OH258345   5.640   2.817  17.264 -0.2248  0.5792  0.5039
12285TIP3    H158346   5.596   2.751  17.319  1.7545  0.0782  1.5845
12285TIP3    H258347   5.613   2.901  17.302  0.6075  0.2544  1.9046
12286TIP3   OH258348   2.652   5.176  15.284  0.5641 -0.6041 -0.1332
12286TIP3    H158349   2.734   5.183  15.333  3.1368 -0.7476 -4.0057
12286TIP3    H258350   2.589   5.226  15.335  2.2663 -2.5060  4.3228
12287TIP3   OH258351   3.751   1.857   1.343  0.6081 -0.3323 -0.2259
12287TIP3    H158352   3.696   1.920   1.297 -0.8099 -0.6076  1.0064
12287TIP3    H258353   3.768   1.788   1.280  1.0911  0.6326 -1.1837
12288TIP3   OH258354   1.971   5.134  16.025 -0.3905  0.4243 -0.0799
12288TIP3    H158355   1.924   5.078  16.087  0.0469  1.3368  1.1145
12288TIP3    H258356   1.940   5.222  16.044 -0.6610  0.6723 -1.5680
12289TIP3   OH258357   0.054   3.047   3.762  0.3745  0.3581 -0.3647
12289TIP3    H158358   0.117   3.022   3.694 -0.6980  0.6420 -1.4783
12289TIP3    H258359   0.021   3.132   3.735 -1.3329 -0.2885 -0.4001
12290TIP3   OH258360   2.082   5.183  16.311 -0.2333  0.1055 -0.0033
12290TIP3    H158361   2.026   5.192  16.388 -0.8995 -2.8134 -0.0079
12290TIP3    H258362   2.033   5.226  16.241 -1.0374  0.2034  0.5991
12291TIP3   OH258363   5.154   4.059  14.509  0.0152 -0.3802  0.2435
12291TIP3    H158364   5.162   4.030  14.418 -1.0736 -0.8476  0.2841
12291TIP3    H258365   5.160   3.978  14.561 -0.6537 -0.2623  0.5073
12292TIP3   OH258366   6.695   0.096   1.096  0.6876 -0.1476 -0.1275
12292TIP3    H158367   6.693   0.192   1.103  1.5532 -0.1458  0.1770
12292TIP3    H258368   6.696   0.078   1.003  0.5936  0.1389 -0.1853
12293TIP3   OH258369   3.345   5.423  10.913 -0.5788 -0.2739 -0.1190
12293TIP3    H158370   3.319   5.339  10.874 -1.1795  0.2367 -0.8301
12293TIP3    H258371   3.262   5.463  10.939 -0.1997 -0.8230  2.2083
12294TIP3   OH258372   2.594   3.309  15.841  0.1957 -0.1249  0.2495
12294TIP3    H158373   2.681   3.324  15.804 -0.7262  0.5759 -1.7891
12294TIP3    H258374   2.602   3.339  15.932  1.8760  0.6594 -0.1028
12295TIP3   OH258375   4.985   6.709   2.145 -0.5580 -0.6463  0.7344
12295TIP3    H158376   4.923   6.745   2.081 -0.4383  0.4043  1.1927
12295TIP3    H258377   5.068   6.704   2.098  0.3436  3.1509  1.6170
12296TIP3   OH258378   5.702   3.623  14.760 -0.1583  0.4910  0.1691
12296TIP3    H158379   5.709   3.535  14.725 -0.9536 -0.4197  2.1263
12296TIP3    H258380   5.791   3.645  14.789  0.1388  0.5632 -0.7551
12297TIP3   OH258381   1.603   1.151   2.101  0.8506 -0.9304  0.5533
12297TIP3    H158382   1.550   1.111   2.032  2.4707 -1.0268 -0.7252
12297TIP3    H258383   1.683   1.098   2.102  2.3528  1.1958 -0.0026
12298TIP3   OH258384   5.838   2.233   3.713  0.0579  0.4100  0.5173
12298TIP3    H158385   5.855   2.143   3.686  0.3548  0.3269  0.9732
12298TIP3    H258386   5.783   2.269   3.643  0.2075 -0.0238  0.1736
12299TIP3   OH258387   4.117   5.750   0.105 -0.0534 -0.5737 -0.8016
12299TIP3    H158388   4.185   5.817   0.111  1.0559 -1.5783 -1.8074
12299TIP3    H258389   4.064   5.777   0.029 -1.0824  0.4315  0.2233
12300TIP3   OH258390   4.773   4.029  11.869 -0.0826 -0.8045  0.3335
12300TIP3    H158391   4.714   3.958  11.845 -1.2181  0.7361 -1.7245
12300TIP3    H258392   4.715   4.098  11.901  0.7110  0.2345 -0.4014
12301TIP3   OH258393   2.366   2.313   1.050  0.1758  0.2469 -0.4211
12301TIP3    H158394   2.332   2.278   1.132 -1.2132  0.2998 -0.9630
12301TIP3    H258395   2.450   2.353   1.075  0.6359 -1.2821  0.6421
12302TIP3   OH258396   0.422   0.593   2.636 -0.1127  0.0563 -0.3457
12302TIP3    H158397   0.337   0.635   2.634  0.8960  2.5356  2.4351
12302TIP3    H258398   0.479   0.651   2.585  0.5862  0.2609  0.6374
12303TIP3   OH258399   3.053   2.643  15.105 -0.2797 -0.3991 -0.6437
12303TIP3    H158400   3.110   2.700  15.156 -3.2636  1.6220  0.7135
12303TIP3    H258401   3.029   2.694  15.029  0.0288 -1.4102 -1.4478
12304TIP3   OH258402   5.260   4.918  15.390  0.3161 -0.3754  0.1019
12304TIP3    H158403   5.293   4.888  15.475 -0.2059 -0.6029  0.2290
12304TIP3    H258404   5.306   4.862  15.326  1.0657  0.1159  0.1952
12305TIP3   OH258405   0.399   5.760  15.154 -0.0934  0.2001 -0.3703
12305TIP3    H158406   0.318   5.719  15.126 -0.2315 -0.5359  1.0133
12305TIP3    H258407   0.400   5.846  15.110 -0.7618 -0.4664 -1.7373
12306TIP3   OH258408   3.152   5.645  17.081  0.4867 -0.1631 -0.6002
12306TIP3    H158409   3.199   5.646  16.998 -1.0314  0.8822 -1.5008
12306TIP3    H258410   3.179   5.725  17.126 -0.7908  0.7406 -1.3741
12307TIP3   OH258411   0.560   1.616  16.776 -0.5570 -0.0614 -0.2111
12307TIP3    H158412   0.544   1.664  16.695  3.0546  0.0334 -1.0060
12307TIP3    H258413   0.534   1.526  16.755  1.5988 -0.3434 -2.0478
12308TIP3   OH258414   0.081   3.239  15.200 -0.8014  0.7228  0.2394
12308TIP3    H158415   0.052   3.175  15.265  0.2074 -0.6668 -0.6120
12308TIP3    H258416   0.008   3.246  15.138 -0.4002 -0.6864 -0.4184
12309TIP3   OH258417   4.901   3.446   3.556  0.1503  0.6600 -0.1896
12309TIP3    H158418   4.967   3.475   3.620  1.5279 -1.9151 -0.2871
12309TIP3    H258419   4.947   3.380   3.503 -2.2244 -0.5015 -0.9434
12310TIP3   OH258420   6.782   2.787   3.120 -0.4212  0.0394 -0.1530
12310TIP3    H158421   6.763   2.838   3.042 -0.3584 -2.1382 -1.6859
12310TIP3    H258422   6.748   2.700   3.101  0.8819 -0.9467  1.6589
12311TIP3   OH258423   2.321   5.661   4.938 -0.0060  0.6994  0.0068
12311TIP3    H158424   2.251   5.647   5.001 -0.3748  0.8234 -0.3753
12311TIP3    H258425   2.343   5.754   4.945  2.1854  0.1245  2.2735
12312TIP3   OH258426   3.578   5.238  14.557 -0.0173 -0.3869 -0.0043
12312TIP3    H158427   3.492   5.241  14.516 -0.2301 -0.0855  0.4565
12312TIP3    H258428   3.581   5.315  14.614  1.5215  1.0574 -1.8853
12313TIP3   OH258429   3.004   6.738  11.336 -0.1562 -0.2636  0.0762
12313TIP3    H158430   3.091   6.760  11.368 -0.4380  1.2771 -0.1776
12313TIP3    H258431   2.996   6.782  11.252 -1.7269  0.9081  0.7774
12314TIP3   OH258432   5.485   6.065   2.796 -0.5629  0.2535 -0.2350
12314TIP3    H158433   5.487   5.969   2.790 -1.4089  0.2350 -0.2872
12314TIP3    H258434   5.449   6.093   2.712 -1.3475  0.5601  0.1960
12315TIP3   OH258435   6.627   5.911  15.872 -0.1170  0.0399 -0.0776
12315TIP3    H158436   6.648   5.824  15.838 -1.1984 -0.8661  1.4071
12315TIP3    H258437   6.709   5.942  15.910  0.2719 -0.3458 -0.5813
12316TIP3   OH258438   0.117   5.725  12.432 -0.4716  0.1319 -0.3524
12316TIP3    H158439   0.129   5.700  12.524  1.0108 -0.8882 -0.7854
12316TIP3    H258440   0.196   5.776  12.411  0.4564 -1.7441 -1.6992
12317TIP3   OH258441   6.757   2.147   0.406 -0.1474 -0.4677 -0.6991
12317TIP3    H158442   6.712   2.218   0.361 -0.5420  0.0783  0.4878
12317TIP3    H258443   6.828   2.191   0.454 -0.0596 -0.9478 -0.3896
12318TIP3   OH258444   4.926   0.358   3.276  0.4264 -0.2036  0.7425
12318TIP3    H158445   4.978   0.367   3.356  0.9218 -2.5889  0.7622
12318TIP3    H258446   4.906   0.448   3.251  4.3685  0.9151  0.8664
12319TIP3   OH258447   6.328   2.753  13.489  0.4375  0.2313 -0.4624
12319TIP3    H158448   6.353   2.684  13.550 -1.2645 -1.7403 -1.8603
12319TIP3    H258449   6.406   2.809  13.483  1.5330 -0.9653  1.4833
12320TIP3   OH258450   5.228   4.077   0.022 -0.3721  0.0377  0.3627
12320TIP3    H158451   5.260   4.135  -0.047 -0.9901  0.1288  0.1469
12320TIP3    H258452   5.258   4.117   0.104  0.4895 -0.1480  0.1519
12321TIP3   OH258453   6.473   0.137  11.991  0.6825  0.3737 -0.0501
12321TIP3    H158454   6.540   0.073  11.968 -1.5748 -2.1056 -0.2356
12321TIP3    H258455   6.449   0.117  12.081  0.3511  1.3908  0.1064
12322TIP3   OH258456   2.778   6.158   3.042 -0.3274 -0.5528 -0.2745
12322TIP3    H158457   2.846   6.127   2.983 -0.1202 -0.4658 -0.0814
12322TIP3    H258458   2.777   6.253   3.030  2.4196  0.0337  2.6638
12323TIP3   OH258459   2.196   0.869  16.662 -0.0229 -0.2235  0.4936
12323TIP3    H158460   2.140   0.939  16.631  0.1205 -0.1876  0.3131
12323TIP3    H258461   2.220   0.820  16.583  0.8236  0.2183  0.4607
12324TIP3   OH258462   1.673   4.584  15.935 -0.1651 -0.3772 -0.6296
12324TIP3    H158463   1.675   4.503  15.885 -0.8988 -1.2052  0.6367
12324TIP3    H258464   1.648   4.651  15.871 -2.1227 -1.5698 -1.1878
12325TIP3   OH258465   3.257   2.015  13.501  0.0329  0.1007 -0.1473
12325TIP3    H158466   3.210   1.942  13.462 -0.4620 -1.2267  2.6849
12325TIP3    H258467   3.331   1.975  13.546  2.2396  1.8471 -1.9361
12326TIP3   OH258468   1.350   4.347  10.782  0.5738  0.1685 -0.0095
12326TIP3    H158469   1.346   4.285  10.709  2.0962  1.2005 -1.0192
12326TIP3    H258470   1.313   4.428  10.747 -0.9581  0.0258  1.1587
12327TIP3   OH258471   0.652   0.713   6.237 -0.2609  0.2052 -0.0293
12327TIP3    H158472   0.590   0.736   6.167  0.4210  1.9050 -0.1213
12327TIP3    H258473   0.605   0.733   6.318 -0.1968  0.5437 -0.0738
12328TIP3   OH258474   2.310   0.030   1.574  0.7136 -0.2426 -0.7089
12328TIP3    H158475   2.218   0.001   1.573  1.2536 -2.1275 -0.8415
12328TIP3    H258476   2.322   0.069   1.661 -0.1902 -0.0940 -0.6435
12329TIP3   OH258477   5.263   5.410   0.848  0.3676  0.0248  0.1692
12329TIP3    H158478   5.328   5.481   0.857 -1.9329  2.1064  1.7571
12329TIP3    H258479   5.255   5.397   0.753  2.2430  0.4968 -0.0994
12330TIP3   OH258480   6.162   6.577   3.752  0.5534 -0.0102  0.2815
12330TIP3    H158481   6.111   6.495   3.755  2.3589 -1.2804 -1.2784
12330TIP3    H258482   6.096   6.646   3.756 -1.0997 -1.5350  0.8558
12331TIP3   OH258483   5.903   5.491   4.332 -0.2879 -0.0270  0.2496
12331TIP3    H158484   5.960   5.417   4.352  0.7660  0.3398 -1.1684
12331TIP3    H258485   5.940   5.564   4.380  1.2225  0.4731 -1.5362
12332TIP3   OH258486   3.798   0.204  11.785 -0.2559 -0.2452 -0.1244
12332TIP3    H158487   3.771   0.113  11.796  1.6612 -0.7441  0.9558
12332TIP3    H258488   3.773   0.226  11.695  0.3338 -2.2478 -0.8273
12333TIP3   OH258489   3.375   2.497   4.897  0.4933  0.2525  0.4093
12333TIP3    H158490   3.335   2.567   4.949  0.7678  0.1243  0.7948
12333TIP3    H258491   3.339   2.509   4.809  0.1606  0.5781  0.5870
12334TIP3   OH258492   4.209   1.989   4.723  0.0671 -0.1689 -0.4670
12334TIP3    H158493   4.199   2.012   4.630  0.5004  0.2312 -0.4191
12334TIP3    H258494   4.121   1.999   4.759  0.1462  1.0380 -0.5450
12335TIP3   OH258495   3.136   5.207  12.906  0.4572 -0.0179  0.1289
12335TIP3    H158496   3.081   5.135  12.934  1.8682 -0.1338  2.8644
12335TIP3    H258497   3.082   5.255  12.843 -1.7244 -1.5907  0.6961
12336TIP3   OH258498   4.905   6.768  16.457 -0.1762 -0.1603  0.0819
12336TIP3    H158499   4.980   6.826  16.457 -0.6086  0.4034 -0.0419
12336TIP3    H258500   4.840   6.812  16.512  0.3733 -1.6908  2.1175
12337TIP3   OH258501   3.303   6.661  12.127 -0.1518 -0.2076 -0.0211
12337TIP3    H158502   3.230   6.623  12.079 -2.2089  0.6466  2.2239
12337TIP3    H258503   3.346   6.587  12.170  0.4554 -0.7286 -1.4701
12338TIP3   OH258504   5.136   5.003   4.669  0.4563 -0.0373  0.3364
12338TIP3    H158505   5.043   5.022   4.658  0.2492 -0.8213  0.6464
12338TIP3    H258506   5.159   5.044   4.752  0.8111  1.5865 -0.5130
12339TIP3   OH258507   6.092   4.558  14.483  0.5120  0.0946  0.0326
12339TIP3    H158508   6.031   4.608  14.537  0.8704  0.5911 -0.0130
12339TIP3    H258509   6.158   4.525  14.545  1.2194  1.1073 -0.1519
12340TIP3   OH258510   0.255   0.684  14.546 -0.0939  0.5824  0.0184
12340TIP3    H158511   0.207   0.664  14.465  1.7321 -0.5372 -0.8397
12340TIP3    H258512   0.210   0.633  14.613  0.0051 -0.6618 -0.8165
12341TIP3   OH258513   5.768   0.969  11.730 -0.0352 -0.0754 -0.5927
12341TIP3    H158514   5.809   0.975  11.643  0.6487  0.7042 -0.2266
12341TIP3    H258515   5.691   1.025  11.724 -1.1644 -1.6080 -1.3093
12342TIP3   OH258516   1.497   4.093  15.028  0.3150  0.7187  0.0655
12342TIP3    H158517   1.487   4.020  14.968  1.1458  0.9672 -0.3974
12342TIP3    H258518   1.472   4.170  14.977  1.6019  1.0027 -0.1859
12343TIP3   OH258519   0.769   3.678  16.635  0.1468 -0.2927  0.2773
12343TIP3    H158520   0.832   3.631  16.690 -0.6117 -1.0955  0.4783
12343TIP3    H258521   0.822   3.712  16.563  0.6710 -1.7757 -0.0752
12344TIP3   OH258522   2.768   5.129  15.815  0.1254 -0.4769  0.7307
12344TIP3    H158523   2.853   5.085  15.825 -0.3006 -2.0107 -1.5892
12344TIP3    H258524   2.705   5.058  15.810 -1.1397  0.5910  0.9276
12345TIP3   OH258525   2.671   3.054  14.576  0.7408  0.2542  0.0131
12345TIP3    H158526   2.692   3.147  14.566 -0.0554  0.8466  2.7863
12345TIP3    H258527   2.578   3.047  14.553  0.4794  0.4292  0.9611
12346TIP3   OH258528   3.539   0.987  15.745  0.2646  0.3079 -0.1471
12346TIP3    H158529   3.469   0.965  15.684 -0.2217  1.3443  0.0081
12346TIP3    H258530   3.543   0.913  15.805 -0.6754  0.2078 -0.1917
12347TIP3   OH258531   1.346   4.057   3.243  0.6487  0.5572  0.1914
12347TIP3    H158532   1.431   4.066   3.285  0.4592 -0.7254  0.9110
12347TIP3    H258533   1.314   4.147   3.233  1.1927  0.9662  1.8214
12348TIP3   OH258534   6.500   6.204  12.339 -0.1700 -0.0783 -0.5889
12348TIP3    H158535   6.581   6.243  12.375 -0.4142  1.8497 -1.9903
12348TIP3    H258536   6.500   6.115  12.374  2.6784 -0.2305 -0.6935
12349TIP3   OH258537   1.342   6.021  16.654  0.2911 -0.9550 -0.8488
12349TIP3    H158538   1.351   5.990  16.745  1.3338  1.9634  0.1571
12349TIP3    H258539   1.250   6.049  16.648 -0.1791 -2.4826 -1.2142
12350TIP3   OH258540   3.489   5.027   4.617  0.2679 -0.4588 -0.9942
12350TIP3    H158541   3.468   5.042   4.524 -2.6147  0.0785 -0.3354
12350TIP3    H258542   3.406   5.000   4.656  1.4968 -0.9636  1.4059
12351TIP3   OH258543   0.615   0.813  12.493  0.5018 -0.2327 -0.0699
12351TIP3    H158544   0.692   0.868  12.481  1.1613 -0.9792  0.6698
12351TIP3    H258545   0.649   0.723  12.495 -0.3608 -0.5623  0.4357
12352TIP3   OH258546   0.642   4.798  16.583 -0.3608 -0.2351  0.3536
12352TIP3    H158547   0.630   4.889  16.610 -1.3302 -0.5060  0.9112
12352TIP3    H258548   0.616   4.796  16.491 -0.0944  0.0973  0.2715
12353TIP3   OH258549   6.372   4.402  13.898 -0.0413 -0.5323 -0.1400
12353TIP3    H158550   6.354   4.323  13.949  1.6966  0.0537  1.4822
12353TIP3    H258551   6.436   4.374  13.833  1.1640 -0.3336  0.9279
12354TIP3   OH258552   5.347   5.887  16.829  0.2626  0.4694 -0.3013
12354TIP3    H158553   5.397   5.919  16.754  0.8454  2.3071  0.8123
12354TIP3    H258554   5.370   5.946  16.900 -2.2900  0.4137  0.6696
12355TIP3   OH258555   1.219   4.057  16.115 -0.1068  0.3835  1.1780
12355TIP3    H158556   1.300   4.005  16.121  0.8797  1.7297  0.2599
12355TIP3    H258557   1.246   4.145  16.141 -1.1178  0.9902  0.2452
12356TIP3   OH258558   1.284   5.489   4.183  0.1931 -0.4256 -0.2183
12356TIP3    H158559   1.321   5.430   4.117 -0.8636  0.7672 -1.9570
12356TIP3    H258560   1.346   5.561   4.188  0.6845 -0.8970  0.7365
12357TIP3   OH258561   1.426   0.681   5.234  0.0919  0.3277 -0.6733
12357TIP3    H158562   1.399   0.750   5.294  0.6395  1.2683 -1.4626
12357TIP3    H258563   1.420   0.722   5.147  0.5268 -0.5883 -1.1470
12358TIP3   OH258564   0.729   1.544   2.774 -0.3356 -0.0281  0.3532
12358TIP3    H158565   0.660   1.569   2.712  0.1645 -0.4967 -0.4125
12358TIP3    H258566   0.735   1.618   2.835  1.2020  1.8828 -1.9080
12359TIP3   OH258567   5.411   3.628  15.612 -0.2281  0.0391  0.0757
12359TIP3    H158568   5.440   3.539  15.629  1.7087  1.0722  3.0268
12359TIP3    H258569   5.490   3.675  15.588 -1.1832  1.0679 -1.2322
12360TIP3   OH258570   5.275   4.636   5.605  0.1776  0.0685  0.1850
12360TIP3    H158571   5.247   4.567   5.666 -0.0306  1.2330  1.4419
12360TIP3    H258572   5.258   4.718   5.651  1.7000  0.9462 -0.7264
12361TIP3   OH258573   6.725   5.775  13.813 -0.3409 -0.1518  0.2843
12361TIP3    H158574   6.630   5.765  13.815 -0.5318 -0.3131 -3.0624
12361TIP3    H258575   6.742   5.863  13.846 -1.7490  0.1955  0.1195
12362TIP3   OH258576   0.920   5.024  13.399  0.2084  0.4116  0.6395
12362TIP3    H158577   0.916   5.106  13.350  0.6325 -0.2507 -0.5212
12362TIP3    H258578   1.002   5.028  13.448 -0.0595  0.9279  1.0571
12363TIP3   OH258579   3.289   1.424   0.475  0.4194  0.1121 -0.4374
12363TIP3    H158580   3.235   1.379   0.410 -1.6631 -0.3544  1.5011
12363TIP3    H258581   3.349   1.357   0.507  0.3094 -0.0993 -0.6689
12364TIP3   OH258582   1.417   3.770  16.172 -0.3523 -0.4960 -0.5486
12364TIP3    H158583   1.380   3.731  16.093 -1.3435  1.3561 -1.0660
12364TIP3    H258584   1.503   3.801  16.145  0.2928 -1.9093 -0.2273
12365TIP3   OH258585   5.130   1.783   2.900  0.4123 -0.0789 -0.3516
12365TIP3    H158586   5.198   1.845   2.925 -0.8362  1.0957  0.2655
12365TIP3    H258587   5.099   1.813   2.814 -0.8223  0.7375  0.3543
12366TIP3   OH258588   5.841   6.466   1.757 -0.1904 -0.1766  0.2442
12366TIP3    H158589   5.853   6.467   1.852 -0.6870  3.1323  0.4045
12366TIP3    H258590   5.746   6.465   1.745 -0.1432 -2.3691 -0.3409
12367TIP3   OH258591   0.356   5.386  14.724  0.1346 -0.2507 -0.6423
12367TIP3    H158592   0.369   5.313  14.785  0.9755 -0.4837 -1.0946
12367TIP3    H258593   0.411   5.456  14.759  1.9470 -0.9142 -2.0040
12368TIP3   OH258594   1.794   1.908   1.787 -0.3918  0.4268 -0.2953
12368TIP3    H158595   1.710   1.878   1.751 -0.8460  0.1925  0.8963
12368TIP3    H258596   1.829   1.966   1.720 -1.7014  0.8369 -0.6675
12369TIP3   OH258597   0.319   5.465   5.912 -0.3768  0.2479  0.2729
12369TIP3    H158598   0.296   5.548   5.953  1.2009  1.8980 -1.9671
12369TIP3    H258599   0.240   5.441   5.862 -0.6399  0.6546  0.4877
12370TIP3   OH258600   0.027   3.284   2.823 -0.0203  0.3656  0.4428
12370TIP3    H158601  -0.024   3.349   2.775 -0.1501  1.5427  2.0648
12370TIP3    H258602  -0.036   3.245   2.884  0.4538  0.0419  0.7294
12371TIP3   OH258603   3.060   2.992  14.139 -0.0917 -0.1484  0.0984
12371TIP3    H158604   3.053   3.038  14.055  1.7967  0.1410  0.0543
12371TIP3    H258605   2.978   3.011  14.184 -0.7772  0.4084 -1.3304
12372TIP3   OH258606   0.489   6.506  15.139 -0.5181  0.6823  0.5263
12372TIP3    H158607   0.507   6.480  15.230 -0.1610  0.9116  0.5241
12372TIP3    H258608   0.482   6.601  15.142 -0.2188  0.7154  0.2700
12373TIP3   OH258609   6.205   4.104  13.765  0.1019 -0.0613  0.2216
12373TIP3    H158610   6.259   4.102  13.845  1.6714 -2.3906 -0.7606
12373TIP3    H258611   6.178   4.013  13.753 -0.2984  0.2748 -1.7666
12374TIP3   OH258612   5.721   2.285   2.833  0.1792  0.1663 -0.5214
12374TIP3    H158613   5.634   2.300   2.871  1.1806  2.9070  0.9172
12374TIP3    H258614   5.705   2.224   2.761 -3.0654  1.1338 -0.7836
12375TIP3   OH258615   5.830   4.560  16.863 -0.3148 -0.0319 -0.0106
12375TIP3    H158616   5.817   4.503  16.787 -1.4166  1.4660 -1.0008
12375TIP3    H258617   5.796   4.645  16.835 -0.6257  0.5957  2.1318
12376TIP3   OH258618   5.781   3.730  13.797 -0.1725 -0.1094 -0.0540
12376TIP3    H158619   5.782   3.778  13.715 -0.4857  0.7612  0.4317
12376TIP3    H258620   5.859   3.675  13.794  1.5267  2.0996  0.3056
12377TIP3   OH258621   4.550   1.310   6.301 -0.0346  0.5764  0.2821
12377TIP3    H158622   4.616   1.244   6.281  0.0684  0.8401 -0.2768
12377TIP3    H258623   4.600   1.387   6.327  0.0287  1.5083 -2.2670
12378TIP3   OH258624   5.979   0.290  15.480  0.0424  0.1033  0.6803
12378TIP3    H158625   5.893   0.281  15.521 -1.0845 -1.3091 -1.7335
12378TIP3    H258626   6.011   0.200  15.471  1.3158  0.5349  0.6052
12379TIP3   OH258627   1.525   0.638  16.591 -0.6957 -0.2085  0.7816
12379TIP3    H158628   1.521   0.543  16.602 -0.2456 -0.2477  0.6397
12379TIP3    H258629   1.614   0.661  16.618 -0.7432  0.1509  0.6396
12380TIP3   OH258630   3.411   5.514  17.191 -0.2774 -0.0208  0.6530
12380TIP3    H158631   3.324   5.478  17.201 -1.5687  2.1805 -1.4442
12380TIP3    H258632   3.441   5.481  17.106 -0.2415  1.3329  0.1120
12381TIP3   OH258633   1.026   1.931   5.097 -0.0149 -0.4391 -0.1189
12381TIP3    H158634   1.110   1.936   5.051 -0.1855 -0.8107 -0.4783
12381TIP3    H258635   1.029   2.002   5.161  0.8585 -0.8691  0.3356
12382TIP3   OH258636   0.122   6.439  16.749 -0.1703 -0.3588 -0.5729
12382TIP3    H158637   0.051   6.388  16.710 -0.3360 -1.0466  0.5860
12382TIP3    H258638   0.112   6.426  16.843  1.8323 -0.9337 -0.3981
12383TIP3   OH258639   4.259   5.989  16.662 -0.6741 -0.3265 -0.1393
12383TIP3    H158640   4.314   6.056  16.621 -1.3095 -0.3066 -1.0019
12383TIP3    H258641   4.230   6.028  16.744 -1.4785  0.6878 -0.8849
12384TIP3   OH258642   2.539   0.796   0.334  0.6919 -0.3714  0.0996
12384TIP3    H158643   2.577   0.763   0.253 -1.4013 -0.4389 -0.8983
12384TIP3    H258644   2.553   0.725   0.397  2.4044 -0.2826 -0.1338
12385TIP3   OH258645   1.797   1.039   2.450 -0.0401  0.2284  0.4596
12385TIP3    H158646   1.768   0.968   2.393  1.2767 -1.6199  1.9546
12385TIP3    H258647   1.880   1.068   2.412  0.1097  0.0025  0.6114
12386TIP3   OH258648   2.876   4.755   1.450 -0.0652 -0.3242  0.0417
12386TIP3    H158649   2.952   4.698   1.434  0.5486  0.5649 -0.2401
12386TIP3    H258650   2.816   4.699   1.500 -0.2485 -1.8054 -1.7125
12387TIP3   OH258651   1.171   4.360   1.044 -0.2566 -0.3517 -0.6132
12387TIP3    H158652   1.264   4.365   1.024 -0.2050 -0.4814 -0.4047
12387TIP3    H258653   1.152   4.439   1.094 -0.8124  1.0273 -2.8657
12388TIP3   OH258654   3.087   2.265  11.801 -0.4433  0.2784  0.7558
12388TIP3    H158655   3.027   2.269  11.875  0.8516 -0.8123  1.9241
12388TIP3    H258656   3.172   2.286  11.838  0.3484 -0.9714 -0.2515
12389TIP3   OH258657   3.533   3.889   0.226 -0.1748 -0.0136  0.3087
12389TIP3    H158658   3.544   3.796   0.248 -0.9490  0.4432  3.0904
12389TIP3    H258659   3.438   3.902   0.222 -0.2339  1.1305  2.9549
12390TIP3   OH258660   4.501   2.884  14.270  0.0677 -0.3017  0.4307
12390TIP3    H158661   4.452   2.952  14.224 -0.3231 -1.0321 -0.2536
12390TIP3    H258662   4.515   2.920  14.358  2.0659  1.7540 -0.5942
12391TIP3   OH258663   1.585   3.776  11.577 -0.2677 -0.0800 -0.4650
12391TIP3    H158664   1.531   3.708  11.618  1.0131 -0.4022  0.7739
12391TIP3    H258665   1.645   3.728  11.520  0.3458  0.0450  0.0710
12392TIP3   OH258666   1.765   1.524  16.890 -0.5709 -0.2377 -0.3382
12392TIP3    H158667   1.720   1.607  16.876 -0.6118  0.1212  1.6145
12392TIP3    H258668   1.858   1.547  16.886 -0.5721  0.1186  1.0751
12393TIP3   OH258669   5.065   5.025   5.515  0.0392  0.0057 -0.3735
12393TIP3    H158670   5.045   5.109   5.474 -1.9757 -1.0327 -1.7186
12393TIP3    H258671   4.980   4.979   5.517  1.4364 -2.9366 -1.9702
12394TIP3   OH258672   5.891   4.199   4.012 -0.3185 -0.0026  0.0190
12394TIP3    H158673   5.872   4.286   3.976 -1.4132  0.0454  0.6983
12394TIP3    H258674   5.837   4.193   4.090  1.3953 -0.4465  1.2185
12395TIP3   OH258675   3.925   3.406  12.770  0.4977 -0.5280  0.0230
12395TIP3    H158676   3.943   3.500  12.763  2.4077 -0.8109  0.4948
12395TIP3    H258677   3.976   3.378  12.846  0.0953 -1.9834 -0.2139
12396TIP3   OH258678   0.451   3.340  13.542  0.2973  0.0499  0.3004
12396TIP3    H158679   0.484   3.425  13.572  0.5420  0.2370 -0.4812
12396TIP3    H258680   0.362   3.335  13.576  0.2812  0.6219  0.3433
12397TIP3   OH258681   5.978   4.042  11.021  0.3663 -0.2856 -0.7154
12397TIP3    H158682   5.915   4.102  10.979 -0.0214 -0.8717 -0.9795
12397TIP3    H258683   5.961   3.957  10.980 -0.2414 -0.9505  0.8617
12398TIP3   OH258684   4.032   0.188  11.961  0.3883  0.4651 -0.3373
12398TIP3    H158685   3.946   0.198  11.921 -0.2204  1.4291  1.1345
12398TIP3    H258686   4.090   0.242  11.907  0.3086 -0.9824 -1.9354
12399TIP3   OH258687   3.643   2.284   3.205  0.3736 -0.2898  0.6331
12399TIP3    H158688   3.581   2.286   3.133  0.9822 -0.8893  0.0775
12399TIP3    H258689   3.589   2.284   3.284 -0.3653 -1.4474  0.1522
12400TIP3   OH258690   2.103   4.643  16.065 -0.3199  0.0984 -0.1976
12400TIP3    H158691   2.098   4.605  16.153 -1.4871 -0.6397 -0.5680
12400TIP3    H258692   2.023   4.694  16.057 -0.4705 -0.2653 -1.0296
12401TIP3   OH258693   0.504   5.060  11.694 -0.4339 -0.0831 -0.8196
12401TIP3    H158694   0.461   4.976  11.711 -1.1678  0.4300 -0.1111
12401TIP3    H258695   0.568   5.040  11.625 -0.0701 -1.3823 -0.1373
12402TIP3   OH258696   1.545   1.675   3.111  0.7818 -0.0902  0.1694
12402TIP3    H158697   1.538   1.580   3.123  1.3597 -0.1192  0.3048
12402TIP3    H258698   1.504   1.712   3.188  0.1050 -0.2238 -0.1219
12403TIP3   OH258699   4.468   5.699  14.226  0.3229 -0.5820 -0.7846
12403TIP3    H158700   4.502   5.757  14.294  0.3135  1.8614 -2.7161
12403TIP3    H258701   4.467   5.612  14.267 -0.7473  0.8718  2.6973
12404TIP3   OH258702   2.832   5.342   3.301 -0.2521 -0.2609  0.0623
12404TIP3    H158703   2.764   5.313   3.240 -0.7570  1.2204 -0.1406
12404TIP3    H258704   2.819   5.437   3.306  1.1629 -0.0873  0.8161
12405TIP3   OH258705   1.556   0.942   3.417  0.0842  0.3633 -0.0823
12405TIP3    H158706   1.462   0.959   3.426 -0.1650 -1.0096  0.1582
12405TIP3    H258707   1.569   0.933   3.322 -0.1679 -0.1093 -0.0773
12406TIP3   OH258708   4.928   3.387   1.973 -0.3780 -0.0420  0.3604
12406TIP3    H158709   4.911   3.328   2.046  2.1866 -0.0324  1.0726
12406TIP3    H258710   4.843   3.396   1.929 -1.0468 -3.6350  0.6230
12407TIP3   OH258711   1.536   3.974   5.918  0.1578 -0.1437 -0.7130
12407TIP3    H158712   1.589   4.047   5.885 -0.9575  0.4629 -1.2393
12407TIP3    H258713   1.451   4.014   5.939  0.4456 -0.7170  1.8766
12408TIP3   OH258714   5.530   5.483   0.131  0.0609 -0.0964  0.0531
12408TIP3    H158715   5.458   5.479   0.068  0.8716  1.5400 -1.0265
12408TIP3    H258716   5.606   5.510   0.080  1.0824 -0.1260  1.4796
12409TIP3   OH258717   2.827   0.772   3.679  0.2948  0.2781 -0.4604
12409TIP3    H158718   2.771   0.777   3.602 -0.7365  1.9865  0.3383
12409TIP3    H258719   2.891   0.705   3.658  0.6551  1.3572 -3.2009
12410TIP3   OH258720   6.700   5.542   1.166  0.0552 -0.1344 -0.0102
12410TIP3    H158721   6.618   5.521   1.123 -0.1449  1.3426 -0.4246
12410TIP3    H258722   6.767   5.527   1.099 -0.1094  0.7276 -0.3850
12411TIP3   OH258723   2.505   1.472   2.869 -0.6804 -0.6457  1.0332
12411TIP3    H158724   2.538   1.386   2.843 -1.2842 -0.8504  0.9297
12411TIP3    H258725   2.583   1.519   2.899  0.0410 -0.4391 -1.0244
12412TIP3   OH258726   4.754   3.665  12.922  0.2479  0.2999 -0.3837
12412TIP3    H158727   4.825   3.634  12.978  0.0448  1.8832  0.8142
12412TIP3    H258728   4.797   3.692  12.841  0.7858 -0.3408 -0.3145
12413TIP3   OH258729   2.185   1.739   5.186  0.1736  0.0789 -0.8319
12413TIP3    H158730   2.111   1.778   5.232 -1.5332 -1.7720 -1.8810
12413TIP3    H258731   2.196   1.653   5.227  1.8169  0.3485 -0.6529
12414TIP3   OH258732   3.882   6.143   4.827  0.3093  0.2060 -0.1338
12414TIP3    H158733   3.899   6.178   4.740 -0.9855 -0.7079 -0.7980
12414TIP3    H258734   3.968   6.130   4.866  0.9619 -0.6083 -1.7919
12415TIP3   OH258735   3.334   5.648  16.888 -0.0982 -0.4766 -0.6571
12415TIP3    H158736   3.405   5.711  16.901  0.9290 -1.3979 -1.5885
12415TIP3    H258737   3.376   5.562  16.898 -1.2383 -1.0373 -0.5177
12416TIP3   OH258738   6.412   0.937  11.427 -0.3324 -0.1509  0.2339
12416TIP3    H158739   6.466   0.895  11.494 -0.4179 -1.6883 -0.6144
12416TIP3    H258740   6.461   0.924  11.346  0.0134  2.1094  0.0213
12417TIP3   OH258741   1.689   1.701   1.389 -0.1127  0.6708  0.9273
12417TIP3    H158742   1.748   1.774   1.370  0.6427 -0.0310  0.5317
12417TIP3    H258743   1.654   1.676   1.303  2.2786 -1.6362  0.4970
12418TIP3   OH258744   6.674   5.751   2.551 -0.6054 -0.0533  0.7464
12418TIP3    H158745   6.748   5.786   2.600 -1.0121 -0.0306  1.3551
12418TIP3    H258746   6.633   5.828   2.511 -0.2190 -0.0823  0.2764
12419TIP3   OH258747   3.235   0.673  12.954  0.3882  0.3085 -0.0010
12419TIP3    H158748   3.142   0.647  12.949  0.2733 -0.0130  2.4728
12419TIP3    H258749   3.235   0.748  13.013  1.5145  1.7146 -1.7165
12420TIP3   OH258750   1.969   0.689   3.982 -0.6629 -0.1490 -0.2578
12420TIP3    H158751   2.040   0.689   4.045 -0.1368  0.3994 -0.8362
12420TIP3    H258752   1.929   0.602   3.990 -0.4570 -0.1620  0.6502
12421TIP3   OH258753   2.077   4.797  12.600  0.4184 -0.1800 -0.3663
12421TIP3    H158754   2.073   4.797  12.504 -0.7221  2.1803 -0.3672
12421TIP3    H258755   2.056   4.707  12.624 -0.2113 -0.6010 -2.2926
12422TIP3   OH258756   5.142   6.805   3.291 -0.1848 -0.0320 -0.2898
12422TIP3    H158757   5.124   6.711   3.297 -1.5669  0.2811  1.3773
12422TIP3    H258758   5.056   6.846   3.298  0.4724  1.3795 -0.1541
12423TIP3   OH258759   0.811   3.431  15.307  0.6423  0.0235  0.5523
12423TIP3    H158760   0.864   3.509  15.295  1.7012 -0.8088 -0.3666
12423TIP3    H258761   0.725   3.454  15.272  0.3372  1.4017  2.0850
12424TIP3   OH258762   1.840   4.962   3.878  0.6253  0.0708  0.5109
12424TIP3    H158763   1.851   4.928   3.967 -1.9206 -0.4277  0.7227
12424TIP3    H258764   1.745   4.971   3.868  0.8541  0.2548 -2.1215
12425TIP3   OH258765   0.381   5.593  11.003  0.1681 -0.1393  0.4047
12425TIP3    H158766   0.381   5.497  11.005 -0.8567 -0.1399  0.9445
12425TIP3    H258767   0.420   5.615  10.919  1.4425 -1.0084  0.7238
12426TIP3   OH258768   1.680   3.991   0.632 -0.6780 -0.3365 -0.4014
12426TIP3    H158769   1.613   4.057   0.649 -0.3058  0.5101 -2.0106
12426TIP3    H258770   1.632   3.916   0.597 -0.8816 -0.0307 -0.7869
12427TIP3   OH258771   2.098   4.231   5.501 -0.2672  0.1910  0.6437
12427TIP3    H158772   2.044   4.249   5.423 -1.7739 -0.8964  1.3657
12427TIP3    H258773   2.068   4.295   5.566  0.5762  0.7187  0.5218
12428TIP3   OH258774   3.267   3.422   2.992 -0.2445 -0.0103 -0.2765
12428TIP3    H158775   3.178   3.456   2.984  0.5559  2.0255 -0.8849
12428TIP3    H258776   3.318   3.494   3.029  1.2418 -1.0358 -0.2115
12429TIP3   OH258777   5.512   2.651   3.437 -0.0558  0.5578 -0.2614
12429TIP3    H158778   5.520   2.641   3.532 -0.3765  0.8476 -0.2002
12429TIP3    H258779   5.420   2.630   3.419 -0.7049  2.9623 -0.1578
12430TIP3   OH258780   5.249   3.284   5.247 -0.0514 -0.2903  0.2909
12430TIP3    H158781   5.225   3.315   5.160 -0.0863  1.5433  0.9138
12430TIP3    H258782   5.171   3.299   5.300 -0.6192 -2.9245  0.3405
12431TIP3   OH258783   5.697   2.713  15.718 -0.1366 -0.3374 -0.1673
12431TIP3    H158784   5.737   2.759  15.644  1.4033  1.3851  1.6285
12431TIP3    H258785   5.764   2.714  15.786 -1.6135 -1.5746  1.4004
12432TIP3   OH258786   3.603   3.153  13.967  0.4704 -0.1948 -0.4043
12432TIP3    H158787   3.573   3.195  14.047  3.1238 -1.0879  1.1741
12432TIP3    H258788   3.568   3.064  13.972 -0.3402  0.0887 -0.8598
12433TIP3   OH258789   6.297   3.543   0.639  0.3534 -0.3871 -0.2117
12433TIP3    H158790   6.235   3.583   0.700 -0.1958 -1.7527  0.1611
12433TIP3    H258791   6.362   3.612   0.622  1.4072 -0.3883  3.1056
12434TIP3   OH258792   1.076   5.511  16.058  0.1595 -0.0864 -0.0647
12434TIP3    H158793   1.059   5.585  16.116 -0.5898  0.3509 -0.8277
12434TIP3    H258794   0.990   5.475  16.039  0.5768 -2.2480  1.6431
12435TIP3   OH258795   0.507   1.910   3.262  0.4899  0.0208  0.0521
12435TIP3    H158796   0.549   1.995   3.248  1.7904 -0.6363 -0.2645
12435TIP3    H258797   0.482   1.910   3.354  1.3718  0.3955  0.3039
12436TIP3   OH258798   2.678   4.765   2.893  0.0937  0.6612 -0.2126
12436TIP3    H158799   2.751   4.704   2.900 -0.2250 -0.6492 -5.1212
12436TIP3    H258800   2.719   4.850   2.873  0.4030  0.0127 -2.5623
12437TIP3   OH258801   5.942   6.577   0.575  0.0501 -0.1190 -0.3606
12437TIP3    H158802   5.984   6.492   0.560  1.2634  0.6357 -1.4952
12437TIP3    H258803   5.965   6.600   0.664  2.4142  0.4231 -1.0473
12438TIP3   OH258804   5.482   6.421  14.222  0.6413  0.4097 -0.1031
12438TIP3    H158805   5.569   6.392  14.249  1.8187  3.1835 -0.5547
12438TIP3    H258806   5.441   6.452  14.302  0.2870 -0.3170  0.0057
12439TIP3   OH258807   2.832   0.223   2.201 -0.2470 -0.4441  0.0078
12439TIP3    H158808   2.920   0.186   2.192 -0.3084 -1.1632  1.8845
12439TIP3    H258809   2.808   0.206   2.292 -1.7769  0.9971 -0.0751
12440TIP3   OH258810   4.645   5.402  10.702  0.2978 -0.4805 -0.1634
12440TIP3    H158811   4.700   5.366  10.772  0.3609 -0.4976 -0.2219
12440TIP3    H258812   4.556   5.375  10.726  0.5773 -2.9959 -1.5716
12441TIP3   OH258813   4.036   6.507  11.976 -0.0012 -0.2374 -0.0724
12441TIP3    H158814   4.086   6.581  12.010 -1.7862  1.1471 -0.2571
12441TIP3    H258815   4.059   6.503  11.884  1.1291 -0.7991  0.2288
12442TIP3   OH258816   5.283   2.704  15.033  0.7699 -0.4879 -0.2591
12442TIP3    H158817   5.291   2.669  14.945  0.4514  1.9744 -1.3657
12442TIP3    H258818   5.372   2.725  15.060  0.9065 -1.5817  0.1965
12443TIP3   OH258819   6.019   6.142  15.087  0.0021  0.1276 -0.6534
12443TIP3    H158820   6.043   6.063  15.038 -0.0061  0.3284 -0.9865
12443TIP3    H258821   5.930   6.163  15.058 -1.0049 -1.1538  1.2816
12444TIP3   OH258822   2.314   3.047  14.138  0.1323 -0.3125  0.4869
12444TIP3    H158823   2.280   3.109  14.202 -0.6525  0.8905 -1.0124
12444TIP3    H258824   2.256   3.057  14.063  1.4725 -1.0870 -0.7039
12445TIP3   OH258825   3.044   5.632   0.618 -0.5977 -0.1161  0.2954
12445TIP3    H158826   3.067   5.567   0.684 -1.7611 -0.3470  0.4924
12445TIP3    H258827   2.971   5.681   0.656 -1.3640 -0.3207 -0.8532
12446TIP3   OH258828   4.420   0.770   3.126 -0.4930 -0.3896 -0.3452
12446TIP3    H158829   4.373   0.746   3.046 -0.6689  1.7537 -0.9369
12446TIP3    H258830   4.495   0.821   3.096 -0.3856  0.1929  0.8501
12447TIP3   OH258831   1.010   6.671   3.888  0.4516 -0.3221 -0.3293
12447TIP3    H158832   0.977   6.687   3.800 -0.5950  0.1202  0.1295
12447TIP3    H258833   1.007   6.756   3.931 -0.2585 -0.7559  0.5206
12448TIP3   OH258834   4.918   5.512  14.942  0.1345 -0.3146 -0.0589
12448TIP3    H158835   4.999   5.511  14.993  0.6154 -0.5172 -0.8105
12448TIP3    H258836   4.849   5.507  15.008  0.6460  2.0464  0.7469
12449TIP3   OH258837   3.054   1.480  16.461  0.1322 -0.1516  0.1600
12449TIP3    H158838   3.081   1.565  16.427 -1.8538  0.1011 -0.9247
12449TIP3    H258839   2.997   1.500  16.535 -1.2823 -0.4558 -0.8061
12450TIP3   OH258840   0.785   2.487  10.711  0.1450 -0.3861  0.1093
12450TIP3    H158841   0.750   2.569  10.746 -0.6514 -0.5641 -0.2491
12450TIP3    H258842   0.718   2.422  10.732  0.6090 -0.8795  0.0711
12451TIP3   OH258843   5.448   3.743   2.046 -0.2913  0.1500  0.5254
12451TIP3    H158844   5.446   3.839   2.043 -0.2129  0.1266 -1.3027
12451TIP3    H258845   5.474   3.723   2.136 -1.5764  1.8028  1.3192
12452TIP3   OH258846   1.970   0.187   0.421  0.2255 -0.0803 -1.0320
12452TIP3    H158847   1.920   0.162   0.498 -1.0951  1.8947 -1.1680
12452TIP3    H258848   2.043   0.125   0.418  1.2284  0.7241  2.6546
12453TIP3   OH258849   6.545   0.439  17.196 -0.1452 -0.4985  0.1697
12453TIP3    H158850   6.469   0.385  17.173  0.5516 -1.1941 -0.5496
12453TIP3    H258851   6.588   0.457  17.112 -0.1680  0.8919  0.4411
12454TIP3   OH258852   1.647   3.989  11.348  0.2568  0.1879  0.9444
12454TIP3    H158853   1.675   3.897  11.354 -1.5440 -0.3642  1.4132
12454TIP3    H258854   1.691   4.022  11.269 -0.3783 -1.5814 -0.2199
12455TIP3   OH258855   1.765   1.017   6.157  0.6835 -0.0567  0.2809
12455TIP3    H158856   1.805   1.045   6.239 -0.6751 -1.0730  1.3356
12455TIP3    H258857   1.703   1.087   6.136  1.6995  0.6635 -0.4182
12456TIP3   OH258858   4.515   5.113  14.905 -0.3825  0.3242 -0.4794
12456TIP3    H158859   4.503   5.207  14.893 -0.6291  0.5238  1.1032
12456TIP3    H258860   4.436   5.084  14.951  0.2352 -0.4128  0.1508
12457TIP3   OH258861   5.492   6.048   4.442 -0.4684  0.0940  0.2950
12457TIP3    H158862   5.456   6.134   4.420 -1.9057 -0.8467 -1.2833
12457TIP3    H258863   5.444   6.020   4.520 -0.0916  0.6496  0.7319
12458TIP3   OH258864   6.475   5.200   1.521  0.2412 -0.3096 -0.2232
12458TIP3    H158865   6.431   5.285   1.524  2.1127  0.7846 -1.9508
12458TIP3    H258866   6.523   5.195   1.604  1.0481  0.8586 -0.6023
12459TIP3   OH258867   2.306   3.293   2.121 -0.2562  0.3185 -0.1307
12459TIP3    H158868   2.320   3.329   2.209  2.0031 -1.0362  0.1570
12459TIP3    H258869   2.362   3.345   2.064 -0.9203  0.5305 -0.5948
12460TIP3   OH258870   3.229   2.917  16.039  0.3836  0.9317  0.5012
12460TIP3    H158871   3.211   2.953  15.952  1.8804 -1.3594 -0.8651
12460TIP3    H258872   3.315   2.876  16.031  1.4618  2.2526  3.6661
12461TIP3   OH258873   5.910   0.587   6.884 -0.3438  0.5721 -0.2973
12461TIP3    H158874   5.884   0.612   6.795 -1.1099  0.0678 -0.2270
12461TIP3    H258875   5.970   0.656   6.912 -0.4089  0.9460 -1.0554
12462TIP3   OH258876   6.463   3.302  16.070 -0.2949 -0.7102 -0.3045
12462TIP3    H158877   6.399   3.371  16.052 -2.0952 -2.3494 -0.5384
12462TIP3    H258878   6.450   3.281  16.162  1.4996  0.4080  0.2585
12463TIP3   OH258879   4.979   5.398   0.662  0.1185  0.2382 -0.6047
12463TIP3    H158880   5.070   5.385   0.632  0.0640  0.5318 -0.9010
12463TIP3    H258881   4.988   5.435   0.750  0.2960  0.9859 -0.9260
12464TIP3   OH258882   6.476   4.398  15.362  0.5637  0.3774 -0.2341
12464TIP3    H158883   6.413   4.434  15.425 -0.9512  0.9472 -1.9778
12464TIP3    H258884   6.556   4.448  15.378  0.0521  0.8889  0.8707
12465TIP3   OH258885   4.478   6.186  15.575  0.5780 -0.0227 -0.6002
12465TIP3    H158886   4.390   6.153  15.558 -0.0193  0.8562  0.6868
12465TIP3    H258887   4.466   6.262  15.632  2.1948 -0.2766  0.1570
12466TIP3   OH258888   4.759   2.765  17.211  0.0698 -0.3047 -0.6709
12466TIP3    H158889   4.729   2.790  17.299  1.7141 -1.6780  0.3315
12466TIP3    H258890   4.680   2.731  17.168 -0.6129 -0.2943  0.5343
12467TIP3   OH258891   0.814   4.866  13.061 -0.3690 -0.4201 -0.5820
12467TIP3    H158892   0.737   4.826  13.102 -0.8923  0.0696 -1.0538
12467TIP3    H258893   0.848   4.799  13.002  1.5272 -1.8586  1.9513
12468TIP3   OH258894   4.766   3.598  14.434 -0.3424  0.0135  0.4825
12468TIP3    H158895   4.795   3.649  14.358  0.2590 -0.1932  0.5694
12468TIP3    H258896   4.719   3.661  14.488  0.5995  0.5487  0.7050
12469TIP3   OH258897   3.073   0.598   2.011 -0.2895  0.3331 -0.2546
12469TIP3    H158898   3.073   0.508   2.043 -0.1489  0.6928  0.7702
12469TIP3    H258899   3.082   0.589   1.916 -1.2422 -0.7669 -0.2729
12470TIP3   OH258900   5.985   1.891  15.507 -0.5446 -0.0927  0.5027
12470TIP3    H158901   6.016   1.903  15.417  1.7315  0.2309  1.2840
12470TIP3    H258902   5.944   1.804  15.506 -0.9527  0.0780 -0.9236
12471TIP3   OH258903   5.729   6.338  14.265 -0.5114 -0.0314 -0.1702
12471TIP3    H158904   5.789   6.271  14.233 -1.2648 -1.4555  1.2497
12471TIP3    H258905   5.752   6.349  14.357 -1.6783  0.2120  0.1135
12472TIP3   OH258906   5.915   2.703   3.293  0.2393 -0.0067  0.2056
12472TIP3    H158907   5.998   2.657   3.283 -0.1041 -0.3527 -1.2340
12472TIP3    H258908   5.848   2.635   3.288 -0.2274  0.5095 -1.0686
12473TIP3   OH258909   5.739   6.677  16.516  0.3943  0.0101 -0.5945
12473TIP3    H158910   5.824   6.644  16.543 -0.5170 -1.9694  0.0691
12473TIP3    H258911   5.698   6.708  16.597  0.7901  1.8141 -1.0438
12474TIP3   OH258912   1.077   0.303   3.189 -0.2829  0.1738  0.0530
12474TIP3    H158913   1.167   0.290   3.158 -0.4759 -1.2377  0.0354
12474TIP3    H258914   1.086   0.325   3.281  0.0761  0.1679  0.0208
12475TIP3   OH258915   5.500   4.129   1.329 -0.2860 -0.0489  0.1999
12475TIP3    H158916   5.513   4.163   1.241  1.5825 -2.7099 -0.7011
12475TIP3    H258917   5.408   4.106   1.334 -0.9609  2.3467 -0.1140
12476TIP3   OH258918   0.536   0.145   5.559  0.7577 -0.0762 -0.2787
12476TIP3    H158919   0.488   0.124   5.479 -2.6049  1.6275  1.0575
12476TIP3    H258920   0.536   0.064   5.610 -0.1856 -0.2977 -0.6073
12477TIP3   OH258921   5.196   5.233  13.866 -0.3622  0.2608 -0.0482
12477TIP3    H158922   5.280   5.279  13.867  0.0920 -0.5411  0.4527
12477TIP3    H258923   5.183   5.208  13.774  0.9817 -1.3820  0.1474
12478TIP3   OH258924   4.666   0.239  14.012  0.0602  0.6033  0.2570
12478TIP3    H158925   4.616   0.311  14.050 -0.1475  0.9883 -0.7276
12478TIP3    H258926   4.609   0.162  14.024  0.3328  0.5597  1.4130
12479TIP3   OH258927   5.714   4.516   1.958  0.4044 -0.1993  0.2324
12479TIP3    H158928   5.748   4.508   1.869  2.5434 -0.8146  1.0328
12479TIP3    H258929   5.634   4.464   1.958  0.2973 -0.0851 -1.3437
12480TIP3   OH258930   2.692   1.837   1.360  0.1220  0.0133 -0.2808
12480TIP3    H158931   2.656   1.893   1.291 -1.0235 -1.5947 -1.0617
12480TIP3    H258932   2.665   1.879   1.442  1.1959  1.7624 -0.7796
12481TIP3   OH258933   4.811   5.579   1.195  0.0659 -0.1889  0.2489
12481TIP3    H158934   4.763   5.497   1.182  1.0134 -0.2886 -4.0267
12481TIP3    H258935   4.903   5.553   1.201  0.1810  0.4555  2.3068
12482TIP3   OH258936   4.659   5.239  16.384  0.6648  1.2275  0.0057
12482TIP3    H158937   4.645   5.146  16.366  0.0025  1.2906  0.1791
12482TIP3    H258938   4.726   5.240  16.453 -0.6440  0.7882  1.3545
12483TIP3   OH258939   5.795   2.553   0.337 -0.1228 -0.2349 -0.4907
12483TIP3    H158940   5.802   2.648   0.344 -0.6310 -0.3173  2.2231
12483TIP3    H258941   5.714   2.538   0.288 -0.1018  0.7333 -0.8298
12484TIP3   OH258942   5.988   6.611  16.589 -0.6343 -0.4866 -0.0962
12484TIP3    H158943   6.058   6.589  16.527 -0.5871  0.8429 -0.5584
12484TIP3    H258944   6.033   6.655  16.662 -0.9744  0.4849 -0.4508
12485TIP3   OH258945   0.673   0.980   2.627  0.2111  0.8895 -0.5667
12485TIP3    H158946   0.602   0.958   2.687  0.7933  0.6064  0.0207
12485TIP3    H258947   0.752   0.980   2.681  0.9723 -0.9293 -1.6012
12486TIP3   OH258948   5.431   4.217   5.161  0.1329  0.4099 -0.3816
12486TIP3    H158949   5.439   4.245   5.253  0.2868 -1.3115  0.1557
12486TIP3    H258950   5.337   4.220   5.144 -0.2470 -2.0683  0.8158
12487TIP3   OH258951   4.722   4.797  15.136 -0.2118 -0.3061 -0.0898
12487TIP3    H158952   4.773   4.867  15.177 -0.2079 -0.5878  0.4003
12487TIP3    H258953   4.760   4.788  15.049 -0.1358  0.2226 -0.1133
12488TIP3   OH258954   6.560   0.304  13.357  0.2350  0.0793  0.4543
12488TIP3    H158955   6.590   0.362  13.287 -3.3654  2.6946  0.7616
12488TIP3    H258956   6.518   0.231  13.311 -3.8703  2.7242 -0.5307
12489TIP3   OH258957   6.178   0.976   6.050  0.0534 -0.1959  0.8554
12489TIP3    H158958   6.201   0.953   6.140 -0.0987 -1.9038  0.4917
12489TIP3    H258959   6.116   0.908   6.023 -1.3901  1.3666  0.0686
12490TIP3   OH258960   2.519   6.070  13.769 -0.6259 -0.3883 -0.0932
12490TIP3    H158961   2.530   6.090  13.862 -0.7385 -2.2728  0.3523
12490TIP3    H258962   2.465   6.142  13.736  0.4238  0.9748  0.9952
12491TIP3   OH258963   3.734   3.047  15.071  0.7020 -0.3243  0.5194
12491TIP3    H158964   3.684   3.056  14.989  2.8035  2.3068 -0.6024
12491TIP3    H258965   3.790   3.125  15.074  3.1080 -1.9785  2.8274
12492TIP3   OH258966   6.576   5.483   0.846  0.3819  0.0995 -0.4453
12492TIP3    H158967   6.584   5.391   0.871 -1.3648  0.2373  0.8153
12492TIP3    H258968   6.510   5.484   0.777 -0.4341  0.5034  0.3263
12493TIP3   OH258969   1.007   0.277   1.399  0.2499  0.3045  0.0970
12493TIP3    H158970   0.934   0.226   1.434 -0.4626  1.2782  0.0894
12493TIP3    H258971   1.010   0.254   1.306 -1.0859  1.3938 -0.2588
12494TIP3   OH258972   1.742   0.458  13.940 -0.2196 -0.1999  0.2542
12494TIP3    H158973   1.822   0.462  13.992 -0.9345  0.5038  1.3421
12494TIP3    H258974   1.740   0.542  13.894  0.0616 -0.5452 -0.4064
12495TIP3   OH258975   2.632   0.504   0.210 -0.1329  0.0618 -0.4285
12495TIP3    H158976   2.642   0.549   0.294  0.1777 -0.7954  0.0019
12495TIP3    H258977   2.698   0.434   0.211 -0.9259 -0.7208 -0.8639
12496TIP3   OH258978   3.285   1.865  17.200  0.0652 -0.1125  0.3359
12496TIP3    H158979   3.305   1.959  17.207 -0.2702 -0.0478  0.4646
12496TIP3    H258980   3.240   1.844  17.282 -0.6278 -0.1888 -0.0529
12497TIP3   OH258981   1.473   6.658   0.629 -0.5110  0.5697 -0.5877
12497TIP3    H158982   1.445   6.749   0.637 -0.1245  0.5818  0.8770
12497TIP3    H258983   1.413   6.610   0.686 -0.8437 -0.1405 -1.5080
12498TIP3   OH258984   6.603   0.296  15.291  0.3788 -0.1722 -0.5748
12498TIP3    H158985   6.571   0.369  15.344  2.2438  1.5269 -1.6320
12498TIP3    H258986   6.550   0.299  15.211  0.5875  0.1720 -0.7026
12499TIP3   OH258987   1.218   3.404   1.015  0.2499  0.5356  0.5410
12499TIP3    H158988   1.259   3.438   0.935 -2.4981  2.1969 -0.3009
12499TIP3    H258989   1.220   3.309   1.004  1.5151  0.6571 -0.6332
12500TIP3   OH258990   0.335   3.416  16.627  0.5908  0.1682 -0.0978
12500TIP3    H158991   0.245   3.393  16.651  0.4923  0.0519 -0.5668
12500TIP3    H258992   0.358   3.486  16.688  0.3721 -0.1634  0.3724
12501TIP3   OH258993   0.561   6.555  13.839  0.6440  0.6495 -0.0904
12501TIP3    H158994   0.604   6.637  13.866  1.2852  0.2994 -0.0334
12501TIP3    H258995   0.615   6.523  13.767  1.0563 -0.2983  0.6223
12502TIP3   OH258996   6.684   5.637  16.483  0.2951 -0.1421  0.5159
12502TIP3    H158997   6.770   5.599  16.501  2.2175  1.7767 -3.3370
12502TIP3    H258998   6.657   5.595  16.401 -1.9729  0.1346  1.0566
12503TIP3   OH258999   3.616   1.041   6.668  0.3755  0.1776  0.2466
12503TIP3    H159000   3.676   1.025   6.741  3.0974  0.8935 -1.6819
12503TIP3    H259001   3.576   1.126   6.687  0.9507  0.2935  0.9558
12504TIP3   OH259002   0.586   2.907   4.742  0.4968 -0.4748  0.4461
12504TIP3    H159003   0.583   2.943   4.830  3.3276  0.6837  0.1843
12504TIP3    H259004   0.666   2.853   4.741  1.1468  0.4230 -1.6491
12505TIP3   OH259005   6.086   4.453   3.114 -0.3142 -0.1571  0.2562
12505TIP3    H159006   6.039   4.495   3.042 -1.6832 -0.5867  0.8589
12505TIP3    H259007   6.052   4.496   3.193  0.8348  0.0019  0.6869
12506TIP3   OH259008   2.139   5.709   2.288  0.5697  0.2373  0.3745
12506TIP3    H159009   2.219   5.671   2.251  0.8071  0.7900  0.3056
12506TIP3    H259010   2.070   5.683   2.228  0.8970  0.8211 -0.2609
12507TIP3   OH259011   3.486   6.537   5.467  0.1504  0.3392  0.1500
12507TIP3    H159012   3.413   6.489   5.429  1.8480 -2.1264 -0.2104
12507TIP3    H259013   3.534   6.571   5.392 -0.7442  2.3177  0.3935
12508TIP3   OH259014   3.950   6.767   0.412  0.1389 -0.3726  0.7705
12508TIP3    H159015   3.872   6.719   0.441  0.6447 -1.9240 -0.3297
12508TIP3    H259016   4.015   6.749   0.480  0.5065 -1.7935  0.0758
12509TIP3   OH259017   5.887   2.978  11.295 -0.1459  0.3484  0.4259
12509TIP3    H159018   5.981   2.961  11.286 -0.3343 -2.5273  2.3932
12509TIP3    H259019   5.850   2.893  11.318 -2.9249  1.8064  1.8169
12510TIP3   OH259020   6.763   3.362   5.090  0.1201 -0.7090  0.2172
12510TIP3    H159021   6.815   3.422   5.037  0.1620  0.2022  1.2569
12510TIP3    H259022   6.808   3.278   5.082  1.3251 -0.1080  0.4746
12511TIP3   OH259023   5.779   4.519   4.805 -0.7477 -0.2283 -0.1159
12511TIP3    H159024   5.848   4.471   4.759 -0.4358 -0.2372  0.3457
12511TIP3    H259025   5.746   4.457   4.870 -0.7512 -0.0100  0.0897
12512TIP3   OH259026   1.008   4.780  16.228  0.1607 -0.0025 -0.5329
12512TIP3    H159027   0.921   4.742  16.241 -0.2214  0.9858 -0.0816
12512TIP3    H259028   0.997   4.842  16.156  0.5300  0.0152 -0.5791
12513TIP3   OH259029   3.074   1.862  16.141 -0.2493  0.6143  0.1676
12513TIP3    H159030   3.116   1.945  16.121  0.5899 -0.4736 -3.2406
12513TIP3    H259031   2.997   1.860  16.083 -0.5344 -0.7709  0.5624
12514TIP3   OH259032   3.367   4.736  14.171  0.2975  0.3689  0.1164
12514TIP3    H159033   3.369   4.792  14.248 -1.2194 -1.5468  1.6754
12514TIP3    H259034   3.295   4.770  14.118  0.2652  0.7002  0.3731
12515TIP3   OH259035   1.279   0.516  13.617 -0.1055 -0.8764 -0.3901
12515TIP3    H159036   1.327   0.558  13.689 -0.7374  0.2919 -0.6209
12515TIP3    H259037   1.190   0.551  13.623 -0.6332 -2.1100 -0.6878
12516TIP3   OH259038   5.313   2.076  11.664 -0.5323  0.0624 -0.4400
12516TIP3    H159039   5.231   2.115  11.694 -1.7018 -1.3329 -1.6380
12516TIP3    H259040   5.320   2.104  11.573  0.6521  0.6526 -0.1793
12517TIP3   OH259041   5.671   2.661   4.124 -1.0265  0.2634  0.0491
12517TIP3    H159042   5.710   2.736   4.171  0.5369 -0.3068 -0.2839
12517TIP3    H259043   5.673   2.590   4.188  4.4338 -1.5665 -1.6645
12518TIP3   OH259044   0.340   0.655   4.851  0.0594  0.4034 -0.0345
12518TIP3    H159045   0.339   0.559   4.860 -0.6843  0.4089 -0.0566
12518TIP3    H259046   0.399   0.671   4.777 -1.6250 -0.1706 -1.5547
12519TIP3   OH259047   2.806   4.557   5.024 -0.3164 -0.2260  0.3846
12519TIP3    H159048   2.795   4.463   5.036 -0.1773 -0.7762 -2.9588
12519TIP3    H259049   2.877   4.565   4.961 -1.3249  2.0481 -0.5425
12520TIP3   OH259050   0.588   3.580  14.789  0.2932  0.0698  0.3294
12520TIP3    H159051   0.576   3.486  14.805  0.7295 -0.0084  0.2235
12520TIP3    H259052   0.675   3.599  14.824 -0.2554  0.6819  1.3984
12521TIP3   OH259053   3.952   5.649   5.614  0.6017 -0.3275 -0.2580
12521TIP3    H159054   3.908   5.726   5.650 -0.0490  0.4168 -2.4521
12521TIP3    H259055   3.910   5.575   5.657  0.0711  0.4929  0.6789
12522TIP3   OH259056   6.526   1.704  15.213 -0.1497  0.2582 -0.5016
12522TIP3    H159057   6.613   1.689  15.178 -0.5997 -2.4598 -0.7222
12522TIP3    H259058   6.468   1.656  15.154 -1.4004 -0.7591  1.4235
12523TIP3   OH259059   1.182   3.360  16.710  0.2443  0.3774 -0.3803
12523TIP3    H159060   1.160   3.267  16.718  1.6791 -0.1935 -2.4432
12523TIP3    H259061   1.167   3.395  16.798  1.2272 -2.1615  0.9140
12524TIP3   OH259062   4.385   4.387  14.911  0.2797 -0.3456  0.1476
12524TIP3    H159063   4.355   4.298  14.888 -0.6896  0.3823 -1.5879
12524TIP3    H259064   4.363   4.396  15.004 -1.1709 -1.3414 -0.0639
12525TIP3   OH259065   2.409   2.031   5.868  0.1264  0.1068 -0.8211
12525TIP3    H159066   2.432   1.958   5.810  1.2889 -0.8356  0.7509
12525TIP3    H259067   2.346   1.994   5.929  1.6353  0.0096  0.7513
12526TIP3   OH259068   0.470   4.099   5.575  0.0599  0.3307  0.2034
12526TIP3    H159069   0.482   4.028   5.512  1.0364  0.2714  0.4411
12526TIP3    H259070   0.426   4.168   5.527  1.5604  0.6290 -0.7912
12527TIP3   OH259071   4.136   5.391   4.966  0.5238  0.0136  0.0115
12527TIP3    H159072   4.118   5.423   4.878  0.8184  0.9737  0.2905
12527TIP3    H259073   4.148   5.470   5.019  0.4804 -0.5509  0.8861
12528TIP3   OH259074   5.480   4.025   2.092 -0.1761  0.6188  0.3716
12528TIP3    H159075   5.558   4.079   2.077 -0.5144  1.4243  1.4588
12528TIP3    H259076   5.475   4.016   2.187  0.0226 -1.5764  0.2395
12529TIP3   OH259077   2.658   1.110  12.798 -0.2543 -0.0262 -0.0655
12529TIP3    H159078   2.700   1.195  12.804  0.6445 -0.5325  1.3148
12529TIP3    H259079   2.637   1.100  12.705  0.6103  1.2215 -0.4127
12530TIP3   OH259080   2.619   6.394  13.631 -0.3189 -0.4726  0.8619
12530TIP3    H159081   2.540   6.377  13.683 -0.7649  0.0253  0.3764
12530TIP3    H259082   2.644   6.484  13.654  0.5660 -0.8957  1.5859
12531TIP3   OH259083   2.439   5.390  14.354  0.2382 -0.3288 -0.4381
12531TIP3    H159084   2.448   5.468  14.409  0.8148 -1.2882  0.8800
12531TIP3    H259085   2.354   5.401  14.311  0.2278  0.9273 -0.1458
12532TIP3   OH259086   5.488   3.082   2.460 -0.1809  0.3217 -0.5498
12532TIP3    H159087   5.538   3.160   2.483  1.9253 -0.2978 -2.5816
12532TIP3    H259088   5.417   3.115   2.405  0.3390  0.9086 -0.8902
12533TIP3   OH259089   5.456   5.278  13.877 -0.9147  0.2913 -0.0282
12533TIP3    H159090   5.501   5.362  13.881 -0.1877 -0.0253 -1.0485
12533TIP3    H259091   5.522   5.217  13.845 -1.0101 -1.0024  2.0575
12534TIP3   OH259092   6.020   0.272  10.817  0.1135  0.0215 -0.2380
12534TIP3    H159093   6.098   0.221  10.841 -0.6725 -0.9131  0.4381
12534TIP3    H259094   5.957   0.206  10.788 -0.8432  0.6239  0.4077
12535TIP3   OH259095   4.424   3.292   2.548 -0.1767 -0.1319  0.1501
12535TIP3    H159096   4.467   3.375   2.564  0.3984 -0.8725  2.8460
12535TIP3    H259097   4.483   3.245   2.489  1.3987 -0.0776  1.6419
12536TIP3   OH259098   0.844   5.389  12.759  0.1474  0.0272  0.2941
12536TIP3    H159099   0.802   5.338  12.690 -1.8367  1.8513  0.0442
12536TIP3    H259100   0.807   5.355  12.840 -0.6081  0.5447  0.1760
12537TIP3   OH259101   6.510   1.102   5.098 -0.2781 -0.4599 -0.1595
12537TIP3    H159102   6.463   1.170   5.049  1.8192  1.4434  0.3008
12537TIP3    H259103   6.484   1.115   5.189 -2.2033 -2.3308 -0.3808
12538TIP3   OH259104   4.438   5.002   2.502  0.3958 -0.2718  0.4221
12538TIP3    H159105   4.441   4.918   2.549 -1.3275 -2.0446 -2.3336
12538TIP3    H259106   4.376   5.055   2.552 -1.3567 -2.0689  0.3008
12539TIP3   OH259107   4.824   2.014  12.488 -0.1029  0.1462 -0.8571
12539TIP3    H159108   4.903   2.037  12.439 -0.7135 -0.0485 -1.9625
12539TIP3    H259109   4.753   2.054  12.438 -0.6812  0.5849  0.3007
12540TIP3   OH259110   0.659   3.595   5.461  0.0204  0.1436  0.2173
12540TIP3    H159111   0.612   3.611   5.379 -0.6792  0.2159  0.6253
12540TIP3    H259112   0.745   3.564   5.434 -1.6479 -4.6032 -0.6563
12541TIP3   OH259113   6.396   2.086   0.674  0.1642  0.7437  0.4343
12541TIP3    H159114   6.308   2.073   0.709  0.1981  0.8573  0.5652
12541TIP3    H259115   6.383   2.132   0.591  0.0794  0.4306  0.2727
12542TIP3   OH259116   4.003   6.498   5.173 -0.0733 -0.6061 -0.2308
12542TIP3    H159117   3.964   6.433   5.113  0.6002 -0.8094 -0.4510
12542TIP3    H259118   3.940   6.570   5.174  0.4464 -0.0810 -2.1163
12543TIP3   OH259119   5.842   4.702   4.534 -0.2172 -0.4184 -0.5805
12543TIP3    H159120   5.869   4.794   4.531 -2.3241  0.2791  0.1602
12543TIP3    H259121   5.817   4.686   4.625 -5.6796  0.2269 -1.6076
12544TIP3   OH259122   2.523   2.525   1.115  0.1429 -0.1161  0.4006
12544TIP3    H159123   2.583   2.549   1.186  1.1361  0.5080 -0.6044
12544TIP3    H259124   2.572   2.545   1.035 -1.7735  1.3411 -0.4824
12545TIP3   OH259125   4.224   1.444  15.944 -0.1419 -0.4243  0.0153
12545TIP3    H159126   4.167   1.467  15.871  0.9170 -3.3237 -1.8994
12545TIP3    H259127   4.172   1.385  15.997 -0.4427  0.6270  0.9363
12546TIP3   OH259128   1.584   1.146   2.581  0.1544  0.0252  0.0609
12546TIP3    H159129   1.647   1.092   2.533  0.8394  1.0003 -0.1823
12546TIP3    H259130   1.637   1.215   2.620 -0.6682  0.3920  0.5630
12547TIP3   OH259131   5.172   4.171   5.051 -0.5864 -0.4626 -1.1175
12547TIP3    H159132   5.114   4.100   5.026 -3.0148  1.9728 -3.0046
12547TIP3    H259133   5.221   4.192   4.971 -1.5232  1.2999 -1.2956
12548TIP3   OH259134   0.986   1.241  13.946 -0.1671 -0.1793  0.3046
12548TIP3    H159135   1.076   1.248  13.915 -0.1117 -0.1383  0.4698
12548TIP3    H259136   0.950   1.166  13.899 -0.5363  0.7480 -0.9254
12549TIP3   OH259137   2.490   4.109   4.423  0.2830 -0.2950  0.1697
12549TIP3    H159138   2.562   4.094   4.361  0.3305 -0.3325  0.2345
12549TIP3    H259139   2.450   4.024   4.435  0.9155 -0.4933  0.9877
12550TIP3   OH259140   2.315   2.779  10.371  0.1516  0.2604 -0.5029
12550TIP3    H159141   2.243   2.842  10.370  1.2370  1.5487 -0.2534
12550TIP3    H259142   2.383   2.818  10.315  1.0294 -0.4715  0.0135
12551TIP3   OH259143   5.674   5.418  12.220 -0.3949 -0.3833 -0.2556
12551TIP3    H159144   5.764   5.436  12.244 -0.7217  0.0879  0.6400
12551TIP3    H259145   5.656   5.332  12.257 -0.7823  0.1828  0.9077
12552TIP3   OH259146   3.954   3.321   0.243  0.0347 -0.2694 -0.3101
12552TIP3    H159147   3.972   3.408   0.279 -0.0570  0.2100 -1.3722
12552TIP3    H259148   3.996   3.261   0.304 -3.1794  0.2090  2.6655
12553TIP3   OH259149   5.169   1.206  13.705  0.0318  0.2758  0.2666
12553TIP3    H159150   5.180   1.205  13.800  0.8214 -0.6909  0.1802
12553TIP3    H259151   5.116   1.129  13.685  0.8674 -0.2009 -0.1750
12554TIP3   OH259152   6.024   5.770  12.303 -0.2981 -0.1803 -0.1608
12554TIP3    H159153   6.048   5.848  12.354 -0.6502  0.0853 -0.3984
12554TIP3    H259154   6.088   5.768  12.232 -0.0478 -0.3316  0.0645
12555TIP3   OH259155   2.662   6.490  16.939 -0.4541  0.0514 -0.3035
12555TIP3    H159156   2.571   6.471  16.915  0.0431 -0.9005 -1.5145
12555TIP3    H259157   2.702   6.405  16.953 -0.7366  0.4323  4.4827
12556TIP3   OH259158   5.481   1.403  16.526  0.0434 -0.1322 -0.2368
12556TIP3    H159159   5.404   1.392  16.581  1.0471 -0.5523  1.1290
12556TIP3    H259160   5.547   1.440  16.584  2.2550 -3.7907 -0.0972
12557TIP3   OH259161   3.458   1.479  14.946 -0.0956  0.1608 -0.0363
12557TIP3    H159162   3.368   1.450  14.937  0.0030  0.2833 -1.7073
12557TIP3    H259163   3.452   1.575  14.955 -0.0623  0.5604 -3.1906
12558TIP3   OH259164   6.557   6.103  17.152 -0.0629 -0.4377  0.0924
12558TIP3    H159165   6.569   6.194  17.127 -2.8697  0.7268  2.4650
12558TIP3    H259166   6.613   6.092  17.230  0.8569 -1.0207 -0.6290
12559TIP3   OH259167   5.190   5.481  14.532 -0.3262 -0.1967 -0.1499
12559TIP3    H159168   5.099   5.459  14.548  0.2353 -2.4168  0.2994
12559TIP3    H259169   5.187   5.569  14.494 -2.5568  0.1742  0.7440
12560TIP3   OH259170   0.406   6.708   2.230 -0.0352 -0.0063  0.0542
12560TIP3    H159171   0.386   6.689   2.139 -1.8826 -3.4858  1.0104
12560TIP3    H259172   0.498   6.735   2.230 -0.1859  0.7734 -2.8407
12561TIP3   OH259173   2.286   3.383  13.227  0.3022 -0.0701  0.1553
12561TIP3    H159174   2.308   3.312  13.167  4.5151 -0.7758  2.1346
12561TIP3    H259175   2.324   3.462  13.188 -0.3509  0.2216  0.0966
12562TIP3   OH259176   2.055   1.088  16.615  0.2342  0.0024  0.2329
12562TIP3    H159177   1.967   1.125  16.614  0.6167  1.3070  3.4895
12562TIP3    H259178   2.104   1.140  16.551 -1.6167 -1.9309 -3.0388
12563TIP3   OH259179   4.707   5.936  16.697 -0.0182  0.3186 -0.3413
12563TIP3    H159180   4.744   6.007  16.750  1.4476 -0.2271 -0.5996
12563TIP3    H259181   4.726   5.962  16.606 -0.4801  0.1257 -0.4968
12564TIP3   OH259182   3.236   2.508  14.537  0.6292 -0.4408 -0.0903
12564TIP3    H159183   3.308   2.444  14.531  2.0279  1.1912 -2.6782
12564TIP3    H259184   3.237   2.552  14.453 -1.9216  1.3231  0.6987
12565TIP3   OH259185   2.216   1.897  13.615 -0.3803  0.8310  0.5138
12565TIP3    H159186   2.138   1.941  13.648  0.4004  1.5013  1.5462
12565TIP3    H259187   2.258   1.963  13.559 -1.7449 -0.3221 -2.0663
12566TIP3   OH259188   5.751   3.129  15.522  0.3516  0.0450 -0.0326
12566TIP3    H159189   5.701   3.126  15.604  0.7315  1.2169  0.2636
12566TIP3    H259190   5.780   3.220  15.515  1.5734 -0.3728 -0.7221
12567TIP3   OH259191   6.448   3.291  13.593  0.0950  0.0241 -0.4106
12567TIP3    H159192   6.392   3.213  13.584  0.7481 -0.4812 -0.1708
12567TIP3    H259193   6.488   3.302  13.507 -0.5692  0.5513 -0.6633
12568TIP3   OH259194   2.688   4.862  12.521  0.0379  0.8618 -0.0398
12568TIP3    H159195   2.728   4.803  12.586  0.9486 -0.2491 -1.5471
12568TIP3    H259196   2.594   4.851  12.535  0.2061 -0.0241  0.5199
12569TIP3   OH259197   6.188   2.996   6.061  0.6682  0.0717 -0.1953
12569TIP3    H159198   6.108   2.976   6.109  0.1311  1.1666 -0.5950
12569TIP3    H259199   6.242   3.044   6.124 -0.0430  1.5225 -0.6400
12570TIP3   OH259200   1.513   0.697   5.674  0.1242  0.3311 -0.6489
12570TIP3    H159201   1.484   0.616   5.632 -1.7723  0.1901  0.7631
12570TIP3    H259202   1.598   0.675   5.711  0.2388 -0.6083 -1.4181
12571TIP3   OH259203   2.527   5.971  14.311  0.0872 -0.1543  0.0017
12571TIP3    H159204   2.442   5.936  14.284 -1.1536  1.8821  0.9995
12571TIP3    H259205   2.578   5.894  14.335 -1.2315 -1.4795 -1.2777
12572TIP3   OH259206   6.487   0.664   0.894 -0.2892  0.4663  0.2045
12572TIP3    H159207   6.527   0.580   0.916 -0.3431  0.3151 -0.2648
12572TIP3    H259208   6.561   0.723   0.884  0.3374 -0.7159 -4.8380
12573TIP3   OH259209   2.579   1.480  16.207  0.0795 -0.5415  0.6200
12573TIP3    H159210   2.536   1.532  16.275 -1.8956 -0.4033 -0.6701
12573TIP3    H259211   2.604   1.544  16.140 -1.1610 -1.0293 -0.3549
12574TIP3   OH259212   0.966   5.170   2.545  0.2833 -0.9698  0.5954
12574TIP3    H159213   0.990   5.220   2.467  1.7535 -0.2570  1.4675
12574TIP3    H259214   1.048   5.160   2.594 -0.8228 -0.2223  2.7333
12575TIP3   OH259215   4.588   3.895   5.476  0.0909  0.0457 -0.1478
12575TIP3    H159216   4.530   3.913   5.402  1.4462 -0.8949 -1.4839
12575TIP3    H259217   4.668   3.861   5.436  0.8008 -0.6365  1.7685
12576TIP3   OH259218   4.197   5.099   1.183 -0.0583  0.1317  0.0417
12576TIP3    H159219   4.213   5.072   1.273 -0.2877  0.2774  0.1261
12576TIP3    H259220   4.124   5.161   1.189  0.1468  0.3979 -0.2064
12577TIP3   OH259221   3.780   5.343   1.658  0.9697 -0.1969  0.2293
12577TIP3    H159222   3.745   5.299   1.581  0.1721 -0.2415  0.6050
12577TIP3    H259223   3.708   5.399   1.688  0.9575 -0.8244  1.4385
12578TIP3   OH259224   5.731   2.031   3.511  0.4063 -0.0529  0.1736
12578TIP3    H159225   5.742   1.989   3.596  0.1409 -0.4830 -0.0018
12578TIP3    H259226   5.806   2.001   3.460 -0.4128 -1.2910 -0.3396
12579TIP3   OH259227   4.918   5.420   3.056 -0.2680 -0.0732  0.4743
12579TIP3    H159228   4.840   5.395   3.106 -1.0374 -0.6228 -0.9446
12579TIP3    H259229   4.972   5.468   3.119 -1.7225  0.2712  1.5176
12580TIP3   OH259230   5.763   0.862   4.635 -0.1197 -0.3253  0.5838
12580TIP3    H159231   5.690   0.865   4.697 -2.5857 -1.1657 -2.0663
12580TIP3    H259232   5.803   0.776   4.649 -0.3615 -0.3288  1.2852
12581TIP3   OH259233   1.649   0.277   1.570  0.1679  0.0054 -0.0356
12581TIP3    H159234   1.640   0.319   1.484  1.7434 -1.1239 -0.7991
12581TIP3    H259235   1.741   0.251   1.575 -0.2199 -1.2499  1.3939
12582TIP3   OH259236   0.088   6.452  13.308  0.3726 -0.0191 -0.5095
12582TIP3    H159237   0.019   6.456  13.242  0.1435 -0.7070 -0.3236
12582TIP3    H259238   0.164   6.419  13.261  0.1685 -0.6530 -0.4082
12583TIP3   OH259239   6.146   3.639  13.283 -0.3075  0.0043  0.0083
12583TIP3    H159240   6.093   3.590  13.220  2.7486 -1.7579 -1.3744
12583TIP3    H259241   6.104   3.725  13.286 -1.2921 -0.1729 -3.5850
12584TIP3   OH259242   6.211   2.994  14.153 -0.0539 -0.0080  0.2334
12584TIP3    H159243   6.175   3.074  14.114  0.7529 -0.6780 -2.0028
12584TIP3    H259244   6.138   2.932  14.151  0.3089 -0.4206 -1.4522
12585TIP3   OH259245   1.802   1.359   5.771 -0.2104  0.3733  0.0812
12585TIP3    H159246   1.813   1.304   5.848 -0.4197  0.9479  0.5201
12585TIP3    H259247   1.734   1.314   5.719  1.1868 -0.9914 -0.6694
12586TIP3   OH259248   0.870   6.761   1.248 -0.3687 -0.0016 -0.0410
12586TIP3    H159249   0.954   6.728   1.219  0.1877  0.9093  0.4648
12586TIP3    H259250   0.842   6.820   1.178 -0.1639  0.3479  0.1617
12587TIP3   OH259251   1.718   3.522  11.729 -0.0739  0.5730  0.1642
12587TIP3    H159252   1.798   3.542  11.777  0.6593 -0.7432 -0.4562
12587TIP3    H259253   1.649   3.527  11.795  1.0284 -2.1826  1.6761
12588TIP3   OH259254   1.827   1.945  16.371  0.2387 -0.1835  0.2686
12588TIP3    H159255   1.894   2.013  16.362  0.7810 -0.9290 -1.8171
12588TIP3    H259256   1.877   1.865  16.390  0.1464 -0.9900 -2.5031
12589TIP3   OH259257   4.859   4.438  16.338 -0.2214  0.0588  0.2293
12589TIP3    H159258   4.802   4.364  16.318  0.6596 -0.3225 -0.9834
12589TIP3    H259259   4.914   4.407  16.410  0.1956 -0.5192 -0.3237
12590TIP3   OH259260   4.205   3.886   2.106 -0.3418  0.1140  0.4140
12590TIP3    H159261   4.289   3.865   2.065  0.1690  1.0592  0.9645
12590TIP3    H259262   4.223   3.884   2.200 -0.9647  0.2383  0.5396
12591TIP3   OH259263   4.093   2.254   1.291  0.5237 -0.4238  0.9855
12591TIP3    H159264   4.072   2.227   1.381  0.4394  1.4802  1.5851
12591TIP3    H259265   4.047   2.337   1.280  0.6072 -0.5758 -0.8193
12592TIP3   OH259266   4.376   3.575   3.565  0.4496 -0.4895 -0.1784
12592TIP3    H159267   4.433   3.526   3.624 -1.1439 -0.7840  1.1841
12592TIP3    H259268   4.403   3.547   3.477  2.1436 -0.8595  0.4230
12593TIP3   OH259269   4.681   4.754   0.591  0.2719  0.4285 -0.3839
12593TIP3    H159270   4.629   4.803   0.655  0.0844 -1.9881  1.4220
12593TIP3    H259271   4.625   4.682   0.564  0.8271  0.6968 -2.3999
12594TIP3   OH259272   0.289   3.412   5.857  0.2676 -0.3544 -0.4674
12594TIP3    H159273   0.270   3.436   5.948 -0.7255  0.6234 -0.9113
12594TIP3    H259274   0.363   3.468   5.833 -0.3884  0.4467 -0.6868
12595TIP3   OH259275   0.265   2.890   5.438 -0.1375  0.2678 -0.1326
12595TIP3    H159276   0.295   2.826   5.502 -0.0577  0.8265  0.3987
12595TIP3    H259277   0.183   2.924   5.475 -1.4600 -1.1931 -1.5277
12596TIP3   OH259278   4.077   1.747  12.656  0.5868 -0.3880 -0.4013
12596TIP3    H159279   4.069   1.770  12.564 -1.1926 -2.0856 -0.7297
12596TIP3    H259280   3.987   1.752  12.690  0.9849 -1.2580  0.8628
12597TIP3   OH259281   1.732   3.956   4.366 -0.2183 -0.1556 -1.0630
12597TIP3    H159282   1.827   3.950   4.378 -0.1434  1.3317 -0.7202
12597TIP3    H259283   1.721   3.977   4.273 -0.1827  0.2140 -0.9844
12598TIP3   OH259284   2.868   0.559  16.833 -0.2772  0.2018  0.3090
12598TIP3    H159285   2.837   0.498  16.900  0.6366  1.1673  1.6443
12598TIP3    H259286   2.827   0.642  16.856  0.9808  0.8128  0.3716
12599TIP3   OH259287   1.555   0.828  14.862 -0.8369 -0.0810 -0.0657
12599TIP3    H159288   1.536   0.747  14.909 -0.7148 -0.2220 -0.2552
12599TIP3    H259289   1.579   0.891  14.930 -0.5512 -0.3147  0.0538
12600TIP3   OH259290   2.035   4.052   2.503 -0.2352 -0.1754 -0.5634
12600TIP3    H159291   1.947   4.083   2.523 -0.2602 -0.4225 -0.2896
12600TIP3    H259292   2.093   4.118   2.541 -0.2479 -1.3772  1.6485
12601TIP3   OH259293   3.898   0.043   2.301 -0.6955 -0.0513 -0.1728
12601TIP3    H159294   3.905   0.117   2.360  0.7160 -0.2847 -0.0066
12601TIP3    H259295   3.967  -0.017   2.330  0.5919  0.1793 -2.5215
12602TIP3   OH259296   3.359   4.748   5.238  0.3222  0.1213 -0.3387
12602TIP3    H159297   3.310   4.799   5.301  0.3804 -0.9793  0.6265
12602TIP3    H259298   3.293   4.716   5.176 -0.0351 -0.4413  0.3211
12603TIP3   OH259299   3.397   5.136  12.069  0.1109  0.4201  0.3575
12603TIP3    H159300   3.409   5.117  11.976 -0.4467  1.5059  0.0420
12603TIP3    H259301   3.346   5.062  12.103  0.5795 -0.1313 -0.1185
12604TIP3   OH259302   5.444   6.098   1.727 -0.5190 -0.4434  0.2467
12604TIP3    H159303   5.392   6.163   1.774 -0.7299  0.6832 -1.4169
12604TIP3    H259304   5.497   6.056   1.794  1.0561  2.7883  1.2289
12605TIP3   OH259305   4.171   3.733  15.022  0.0127 -0.2599  0.1798
12605TIP3    H159306   4.248   3.711  15.074  0.0593  0.0631  0.2520
12605TIP3    H259307   4.201   3.732  14.931 -0.0299 -0.6667  0.1683
12606TIP3   OH259308   2.865   6.215  14.538  0.0510  0.2277 -0.5048
12606TIP3    H159309   2.811   6.226  14.616 -0.6264 -0.7116 -0.8344
12606TIP3    H259310   2.947   6.177  14.571 -0.3226 -0.3913 -0.2733
12607TIP3   OH259311   3.347   4.175  11.458  0.1916 -0.0884  0.0723
12607TIP3    H159312   3.328   4.111  11.527  0.4440 -2.3753 -1.8642
12607TIP3    H259313   3.276   4.165  11.395  0.2743  1.5495 -0.3402
12608TIP3   OH259314   0.678   1.231  16.593 -0.1651 -0.4399  0.0972
12608TIP3    H159315   0.654   1.276  16.675  1.0118 -0.4119  0.4416
12608TIP3    H259316   0.595   1.197  16.560 -0.6131 -0.8433  1.5470
12609TIP3   OH259317   2.049   1.164  11.309 -0.1476 -0.1827  0.1115
12609TIP3    H159318   2.136   1.157  11.270  0.9256  0.8669  2.1451
12609TIP3    H259319   2.066   1.171  11.403 -2.0733  4.2940  0.3679
12610TIP3   OH259320   1.357   0.215  13.582 -0.8039  0.2560  0.4075
12610TIP3    H159321   1.349   0.258  13.668  1.9531  1.9037 -0.0271
12610TIP3    H259322   1.442   0.171  13.585  0.1111  1.6402 -1.9104
12611TIP3   OH259323   6.159   3.227  11.624  0.1176  0.8342  0.5810
12611TIP3    H159324   6.199   3.181  11.698  0.5008  0.8147  0.3678
12611TIP3    H259325   6.229   3.232  11.559  0.2535  2.1615  0.7843
12612TIP3   OH259326   5.107   5.027  12.768  0.1029  0.1320 -0.2699
12612TIP3    H159327   5.016   4.996  12.769 -0.0267  0.4745  0.9446
12612TIP3    H259328   5.107   5.100  12.707 -0.8566  1.2072  0.9536
12613TIP3   OH259329   3.291   1.960  11.903  0.2487 -0.0431 -0.1940
12613TIP3    H159330   3.298   2.000  11.816  0.7556 -0.3724 -0.3075
12613TIP3    H259331   3.323   1.871  11.891 -1.5980 -0.7621 -0.1157
12614TIP3   OH259332   3.324   2.234   3.327  0.6411  0.2587  0.4759
12614TIP3    H159333   3.374   2.263   3.404  2.1507 -0.8288 -0.0469
12614TIP3    H259334   3.386   2.181   3.278 -0.5329  0.3341 -1.1359
12615TIP3   OH259335   4.493   4.371  17.077 -0.3237 -0.2712 -0.8581
12615TIP3    H159336   4.431   4.396  17.146 -1.8409  2.1083 -2.9187
12615TIP3    H259337   4.455   4.293  17.037  0.2015 -1.2448  0.4666
12616TIP3   OH259338   0.723   4.632   4.010 -0.8689  0.7205 -0.0036
12616TIP3    H159339   0.756   4.581   3.935 -0.7104  0.5472  0.1833
12616TIP3    H259340   0.802   4.669   4.050 -0.9645  0.9068  0.0107
12617TIP3   OH259341   6.802   3.015  12.418 -0.2547  0.1629 -0.2587
12617TIP3    H159342   6.769   3.088  12.471 -0.7244 -0.0605 -0.2461
12617TIP3    H259343   6.886   3.047  12.385  0.8038 -0.2457  1.8290
12618TIP3   OH259344   5.214   6.662   2.002  0.2329  0.2688 -0.2702
12618TIP3    H159345   5.262   6.741   1.975  0.6382  0.3121  0.5328
12618TIP3    H259346   5.269   6.623   2.070  0.3191 -1.0327 -1.0582
12619TIP3   OH259347   3.766   5.825  11.419  0.1925  0.1381  0.5288
12619TIP3    H159348   3.814   5.747  11.447  1.4168  0.3137 -0.9581
12619TIP3    H259349   3.792   5.838  11.328 -0.6384  1.8022  0.4953
12620TIP3   OH259350   5.192   1.260   5.902  0.1759  0.1439  0.5202
12620TIP3    H159351   5.203   1.333   5.841 -0.3060  0.6468  1.0282
12620TIP3    H259352   5.141   1.195   5.853 -1.2331  1.0323  0.7688
12621TIP3   OH259353   2.445   1.262  13.438  0.1503  0.3438  0.2774
12621TIP3    H159354   2.506   1.257  13.364  2.1322 -1.5155  1.9245
12621TIP3    H259355   2.373   1.317  13.405  0.4381 -1.1245 -3.3400
12622TIP3   OH259356   1.151   3.648  11.984 -0.1604  0.3297  0.0633
12622TIP3    H159357   1.076   3.600  11.950 -0.7913  0.4484  1.2293
12622TIP3    H259358   1.179   3.597  12.060  2.2388 -0.8356 -1.4768
12623TIP3   OH259359   0.099   4.800   1.889  0.2949 -0.4878  0.1158
12623TIP3    H159360   0.159   4.793   1.963  0.0185 -0.9295  0.2989
12623TIP3    H259361   0.020   4.840   1.926 -0.3665 -1.9706  0.3758
12624TIP3   OH259362   3.875   2.278   6.757  0.6286  0.1637 -0.1519
12624TIP3    H159363   3.939   2.301   6.825  0.4735  1.5660 -0.4322
12624TIP3    H259364   3.918   2.306   6.675 -0.3280  1.1470 -0.3396
12625TIP3   OH259365   1.827   5.804  14.288  0.4883 -0.1407  0.5885
12625TIP3    H159366   1.839   5.892  14.325 -0.1055  0.1665  0.0654
12625TIP3    H259367   1.813   5.748  14.365 -0.7531  0.4936  0.8596
12626TIP3   OH259368   0.379   0.325   3.005  0.4397 -0.4649  0.3820
12626TIP3    H159369   0.435   0.285   3.072  1.6049  0.8747  0.2718
12626TIP3    H259370   0.439   0.343   2.932 -0.4849 -0.4583 -0.3917
12627TIP3   OH259371   0.849   6.007   3.652 -0.1330  0.0488  0.3558
12627TIP3    H159372   0.876   6.054   3.730  3.9871  0.4189 -1.0147
12627TIP3    H259373   0.779   6.060   3.614  1.2366  2.6296  1.2128
12628TIP3   OH259374   0.969   0.095  14.833  0.0530  0.1890  0.9351
12628TIP3    H159375   1.002   0.097  14.923 -0.1325  0.7713  0.9900
12628TIP3    H259376   0.879   0.063  14.841 -0.3199  1.2580  1.0670
12629TIP3   OH259377   3.518   6.256   5.878 -0.2294  0.0086  0.1409
12629TIP3    H159378   3.434   6.229   5.914 -1.3971  0.3571 -2.1670
12629TIP3    H259379   3.556   6.175   5.843  0.5501 -0.1813  1.3188
12630TIP3   OH259380   1.560   1.209   5.667  0.0774  0.0712 -0.5926
12630TIP3    H159381   1.473   1.250   5.666 -0.0510  0.0141  2.0128
12630TIP3    H259382   1.545   1.122   5.704  1.3014  0.3371  0.6353
12631TIP3   OH259383   2.297   5.108  14.235 -0.3221 -0.0714 -0.8418
12631TIP3    H159384   2.221   5.052  14.250 -0.3448  0.3437  0.7503
12631TIP3    H259385   2.265   5.196  14.254  0.3118  0.2294 -1.1407
12632TIP3   OH259386   1.256   3.767  11.100 -0.1431  0.0625 -1.0410
12632TIP3    H159387   1.303   3.775  11.017 -1.2134  1.6058 -1.5518
12632TIP3    H259388   1.297   3.832  11.157  0.5783 -0.9820 -0.3354
12633TIP3   OH259389   3.278   0.162  14.397 -0.0158  0.2102 -0.3660
12633TIP3    H159390   3.321   0.213  14.466  3.4534 -0.3602 -1.9001
12633TIP3    H259391   3.311   0.198  14.315  1.4399 -3.3349 -1.5684
12634TIP3   OH259392   0.527   5.767   1.914 -0.1666  0.5649 -0.1112
12634TIP3    H159393   0.537   5.860   1.932 -0.2393  0.7419 -0.9545
12634TIP3    H259394   0.557   5.723   1.994  0.4932  1.2861  0.0419
12635TIP3   OH259395   3.386   0.962   5.657  0.2723 -0.6758 -0.0046
12635TIP3    H159396   3.309   0.933   5.706  0.2113  0.1815  0.4217
12635TIP3    H259397   3.460   0.922   5.704  0.2800  0.8248  1.3395
12636TIP3   OH259398   4.164   2.979   1.670  0.3001 -0.4364  0.1989
12636TIP3    H159399   4.201   2.949   1.753 -0.8397 -0.3351  0.7680
12636TIP3    H259400   4.101   2.911   1.646  1.8367 -1.3422 -1.4990
12637TIP3   OH259401   0.051   6.204  14.109 -0.2244  0.0971  0.2095
12637TIP3    H159402   0.099   6.227  14.029  0.3804 -0.7039  0.3277
12637TIP3    H259403   0.118   6.167  14.166 -0.3142  2.1178  1.7290
12638TIP3   OH259404   5.150   4.247   4.399  0.2425  0.5472  0.3855
12638TIP3    H159405   5.181   4.326   4.355  0.7539  1.2881  1.9796
12638TIP3    H259406   5.060   4.268   4.426  0.5425  0.7833  1.2271
12639TIP3   OH259407   2.662   1.516   3.224 -0.0550  0.2328  0.5116
12639TIP3    H159408   2.599   1.572   3.179  1.4866  1.3717 -0.2873
12639TIP3    H259409   2.689   1.453   3.158  0.2141  0.2109  0.6435
12640TIP3   OH259410   2.497   3.750   0.994  0.1170  0.3277 -0.6137
12640TIP3    H159411   2.411   3.737   1.034  1.3751  0.1267  2.2665
12640TIP3    H259412   2.543   3.807   1.055  2.6741 -1.1214 -1.0626
12641TIP3   OH259413   3.859   0.126   2.029  0.0641  0.6289 -0.3034
12641TIP3    H159414   3.790   0.182   1.994 -0.7889  1.5709  2.6373
12641TIP3    H259415   3.845   0.126   2.123  3.3788 -0.1162  0.3197
12642TIP3   OH259416   2.466   6.633  11.562 -0.5209  0.2003 -0.3024
12642TIP3    H159417   2.464   6.688  11.640  0.1115 -1.1733  0.7312
12642TIP3    H259418   2.544   6.663  11.514 -0.8540  0.9809 -0.3652
12643TIP3   OH259419   1.037   5.562  13.838 -0.5524 -0.1052 -0.0639
12643TIP3    H159420   0.965   5.622  13.816  0.7311  1.3764 -0.4088
12643TIP3    H259421   1.002   5.509  13.910 -1.5021  1.6229  0.8400
12644TIP3   OH259422   5.134   0.947   4.480 -0.0453  0.4791  0.1148
12644TIP3    H159423   5.116   0.931   4.387 -1.7845 -0.3248  0.5434
12644TIP3    H259424   5.224   0.978   4.482  0.7050 -1.3407 -1.6663
12645TIP3   OH259425   6.289   2.527  11.645  0.5254  0.3682  0.8157
12645TIP3    H159426   6.359   2.591  11.631  1.4223 -0.8901 -0.8446
12645TIP3    H259427   6.318   2.476  11.720  0.9825  0.3682  0.6391
12646TIP3   OH259428   3.312   3.372  11.695 -0.5525 -0.2569 -0.0374
12646TIP3    H159429   3.291   3.376  11.789 -2.5587  1.4759 -0.4969
12646TIP3    H259430   3.255   3.437  11.655  1.3211  0.1107 -2.3088
12647TIP3   OH259431   2.977   1.659   3.591  0.5208  0.4067  0.1971
12647TIP3    H159432   2.890   1.649   3.551 -0.0311 -0.2750  1.4994
12647TIP3    H259433   3.018   1.730   3.542  0.1262 -0.7840 -1.9559
12648TIP3   OH259434   3.264   4.220  10.810 -0.5344 -0.7518 -0.2820
12648TIP3    H159435   3.204   4.169  10.865 -1.1676  0.1117 -0.1508
12648TIP3    H259436   3.210   4.292  10.777  0.1006 -0.6925 -1.2219
12649TIP3   OH259437   5.909   5.923   0.246  0.3122 -0.0463  0.2506
12649TIP3    H159438   5.839   5.926   0.181 -0.2878 -1.0716  0.8116
12649TIP3    H259439   5.990   5.931   0.195 -0.1947  1.0830 -0.4161
12650TIP3   OH259440   5.201   5.111  14.310 -0.5059 -0.9157 -0.5682
12650TIP3    H159441   5.135   5.163  14.266 -0.7843 -0.6917  0.0924
12650TIP3    H259442   5.226   5.043  14.247 -0.1596 -0.0072 -1.4336
12651TIP3   OH259443   2.450   0.212   5.686 -0.3964 -0.6982 -0.2313
12651TIP3    H159444   2.433   0.270   5.760 -0.4737 -0.3551 -0.5121
12651TIP3    H259445   2.411   0.258   5.611  1.4732 -0.0236 -0.8535
12652TIP3   OH259446   6.387   3.676  13.651  0.4305  0.0610 -0.2596
12652TIP3    H159447   6.432   3.608  13.700 -1.7832 -0.2053  1.5348
12652TIP3    H259448   6.384   3.643  13.561  3.1612 -0.1621 -0.3506
12653TIP3   OH259449   5.298   2.736  11.940  0.2042  0.0827 -0.1934
12653TIP3    H159450   5.204   2.720  11.932  0.0231  0.7853  0.4480
12653TIP3    H259451   5.334   2.706  11.857 -0.8992  2.0683 -1.4808
12654TIP3   OH259452   4.556   2.779  17.029  0.6281  0.2157 -0.0800
12654TIP3    H159453   4.471   2.774  16.985  0.0927 -0.9820  1.0273
12654TIP3    H259454   4.603   2.848  16.982 -0.4611  0.0101 -1.5466
12655TIP3   OH259455   3.476   6.080   3.076  0.2465  0.0739 -0.3071
12655TIP3    H159456   3.464   6.168   3.111 -1.1652 -0.7001  1.2698
12655TIP3    H259457   3.462   6.090   2.981  0.6979  1.6179 -0.2372
12656TIP3   OH259458   4.831   4.645   3.680  0.4950  0.4601  0.2215
12656TIP3    H159459   4.829   4.567   3.625 -0.6865  2.1865 -2.3542
12656TIP3    H259460   4.903   4.698   3.644  0.6652  1.0077  1.3154
12657TIP3   OH259461   1.502   1.267   4.743 -0.1798 -0.2865  0.1190
12657TIP3    H159462   1.453   1.189   4.768 -1.9946  0.6322 -0.3896
12657TIP3    H259463   1.509   1.318   4.824 -0.3987 -0.2463  0.1124
12658TIP3   OH259464   0.973   0.603  16.624 -0.0125  0.5570  0.1435
12658TIP3    H159465   0.878   0.616  16.621 -0.2203 -0.7671  0.6426
12658TIP3    H259466   0.996   0.610  16.716 -0.1690 -2.4628  0.5073
12659TIP3   OH259467   0.335   1.701  13.132 -1.0707  0.3267  0.1146
12659TIP3    H159468   0.382   1.713  13.214  0.6689  0.4086 -0.8507
12659TIP3    H259469   0.274   1.774  13.129 -0.3705  0.9577  0.8116
12660TIP3   OH259470   3.025   5.187  11.369  0.1011 -0.1288 -0.6953
12660TIP3    H159471   3.038   5.276  11.337 -0.1478  0.0061 -0.4240
12660TIP3    H259472   2.973   5.197  11.449  1.5091 -0.3854  0.2849
12661TIP3   OH259473   5.956   5.734   4.175 -0.3889 -0.0528 -0.4268
12661TIP3    H159474   5.950   5.796   4.103  0.4251  2.0384  1.1955
12661TIP3    H259475   6.025   5.769   4.231 -0.4879 -1.9949  1.0130
12662TIP3   OH259476   0.040   4.001   2.658 -0.1568 -0.0400  0.1731
12662TIP3    H159477   0.049   4.020   2.751 -0.3892  0.7554  0.0363
12662TIP3    H259478   0.123   3.959   2.634 -0.7656 -1.9169  1.1172
12663TIP3   OH259479   0.604   4.367  11.910  0.3145  0.0552 -0.3495
12663TIP3    H159480   0.620   4.459  11.932  0.1345 -0.0643  0.3258
12663TIP3    H259481   0.670   4.319  11.959 -0.4262 -0.2577  0.3726
12664TIP3   OH259482   2.330   1.382  14.972  0.4843  0.4278 -0.2767
12664TIP3    H159483   2.365   1.301  15.009  0.2250 -0.0027 -0.9571
12664TIP3    H259484   2.242   1.390  15.011  0.3585  0.1766 -0.5088
12665TIP3   OH259485   1.374   0.541   4.524  0.1655 -0.2063  0.5610
12665TIP3    H159486   1.281   0.531   4.543  0.1537 -0.0983  0.5602
12665TIP3    H259487   1.408   0.452   4.522  0.0546 -0.2471  0.5231
12666TIP3   OH259488   3.445   1.966   3.779 -0.3104 -0.3589 -0.1204
12666TIP3    H159489   3.398   1.969   3.863 -0.6599 -0.8105 -0.2961
12666TIP3    H259490   3.535   1.989   3.801 -0.5900  0.4603  0.2358
12667TIP3   OH259491   5.246   4.544   2.926 -0.0794 -0.6729  0.4056
12667TIP3    H159492   5.168   4.490   2.939  0.9315 -1.9103  1.6590
12667TIP3    H259493   5.222   4.630   2.959 -2.6770  0.6663 -4.1640
12668TIP3   OH259494   0.131   2.354   0.476 -0.3764 -0.1347  0.5645
12668TIP3    H159495   0.159   2.358   0.385  0.9190 -0.3077  0.9250
12668TIP3    H259496   0.123   2.445   0.504 -2.9090 -0.0313 -0.2970
12669TIP3   OH259497   0.946   0.921   3.463  0.0748  0.5577  0.0539
12669TIP3    H159498   0.921   0.992   3.404  0.2843  0.2737 -0.3817
12669TIP3    H259499   0.863   0.887   3.496 -0.0698  0.3772 -0.4845
12670TIP3   OH259500   0.695   3.618  12.362  0.1778  0.4179  0.6066
12670TIP3    H159501   0.711   3.551  12.296  0.0363 -0.6280  1.5979
12670TIP3    H259502   0.672   3.696  12.312  1.3293  0.0113 -0.6113
12671TIP3   OH259503   3.026   5.653   3.285  0.3404 -0.3161  0.2349
12671TIP3    H159504   2.934   5.649   3.308  0.7142 -0.1131  1.9144
12671TIP3    H259505   3.058   5.732   3.328  1.0659  0.2433 -1.2782
12672TIP3   OH259506   5.739   1.087  12.192 -0.7631  0.0506 -0.8849
12672TIP3    H159507   5.831   1.113  12.198  0.1825 -3.1870  0.6156
12672TIP3    H259508   5.715   1.062  12.281 -2.2270 -1.8543 -1.7498
12673TIP3   OH259509   3.390   1.761  15.015 -0.0087 -0.4869 -0.3543
12673TIP3    H159510   3.471   1.744  15.064 -0.4302 -2.3914 -0.2660
12673TIP3    H259511   3.368   1.852  15.037  2.3995  0.2864 -0.8421
12674TIP3   OH259512   3.266   3.397   3.909  0.5920 -0.3675  0.3082
12674TIP3    H159513   3.310   3.319   3.876 -0.9507 -0.9216 -0.5344
12674TIP3    H259514   3.329   3.438   3.968  1.8200 -1.6721 -0.0724
12675TIP3   OH259515   4.952   4.257  14.030 -0.0898 -0.3027  0.4905
12675TIP3    H159516   4.899   4.236  13.953  0.8977 -0.9854 -0.0296
12675TIP3    H259517   5.042   4.242  14.001  0.3547  0.3423  1.5046
12676TIP3   OH259518   6.791   5.489   4.381 -0.4899 -0.2656 -0.6137
12676TIP3    H159519   6.863   5.489   4.318 -0.6755  1.2827 -0.8699
12676TIP3    H259520   6.795   5.402   4.422  2.0929  0.0715  0.0448
12677TIP3   OH259521   0.774   4.207  11.296 -0.2966 -0.7523  0.4653
12677TIP3    H159522   0.728   4.176  11.218 -0.1769 -0.0400  0.1055
12677TIP3    H259523   0.860   4.164  11.292  0.0040 -0.0969 -0.2257
12678TIP3   OH259524   0.508   1.407  11.457 -0.4631 -0.4967 -0.0411
12678TIP3    H159525   0.416   1.416  11.479 -0.3762  0.1106  0.1032
12678TIP3    H259526   0.508   1.376  11.366 -0.8131  0.7520 -0.4889
12679TIP3   OH259527   4.196   0.577  16.920  0.0774  0.2652 -0.4259
12679TIP3    H159528   4.133   0.505  16.915 -0.5689  0.6904  1.1316
12679TIP3    H259529   4.262   0.555  16.853 -0.5653 -1.2977 -0.5998
12680TIP3   OH259530   1.061   5.291  14.851 -0.3503 -0.0951  0.1675
12680TIP3    H159531   1.001   5.251  14.788  0.9171 -0.2864 -0.9642
12680TIP3    H259532   1.048   5.385  14.841 -2.0361 -0.1243  1.5480
12681TIP3   OH259533   0.227   5.758   4.106 -0.0891  0.0065 -0.3544
12681TIP3    H159534   0.141   5.800   4.100 -0.4589 -0.5789  0.4878
12681TIP3    H259535   0.290   5.828   4.092 -0.7075  0.5164 -0.6199
12682TIP3   OH259536   0.353   3.291   6.365  0.1046  0.1989  0.1578
12682TIP3    H159537   0.341   3.370   6.417 -0.1928  0.4262 -0.2473
12682TIP3    H259538   0.276   3.288   6.308  0.0136 -0.4905  0.3099
12683TIP3   OH259539   5.809   6.063  12.162  0.1493  0.0993 -0.1655
12683TIP3    H159540   5.738   6.006  12.133  0.4135 -0.2099 -0.2173
12683TIP3    H259541   5.877   6.054  12.095  0.9931 -1.0521  0.7747
12684TIP3   OH259542   1.120   1.321   1.980  0.0761  0.2464 -0.5378
12684TIP3    H159543   1.055   1.368   2.032 -1.8308 -3.5447  0.8491
12684TIP3    H259544   1.190   1.300   2.043 -0.0373 -0.4553 -0.6449
12685TIP3   OH259545   6.590   2.070   2.197  0.4767  0.3647  0.0679
12685TIP3    H159546   6.651   2.145   2.194 -0.6676  1.3778  1.0230
12685TIP3    H259547   6.626   2.014   2.266  1.4718 -0.1014 -0.8112
12686TIP3   OH259548   0.872   0.555   6.337 -0.0279 -0.3427  0.2594
12686TIP3    H159549   0.843   0.561   6.428  0.2717  0.3299  0.3134
12686TIP3    H259550   0.808   0.605   6.288 -0.4244 -1.0511  0.0374
12687TIP3   OH259551   5.013   4.683  11.657 -0.3178  0.4506 -0.1259
12687TIP3    H159552   4.998   4.674  11.751  0.6467 -2.1812 -0.1456
12687TIP3    H259553   4.940   4.636  11.616 -0.3369  0.9662 -0.7153
12688TIP3   OH259554   6.375   4.706  15.359 -0.1763  0.2830 -0.0767
12688TIP3    H159555   6.339   4.716  15.447  0.5713  1.5880  0.0995
12688TIP3    H259556   6.465   4.738  15.366  0.2197 -0.5310 -1.0978
12689TIP3   OH259557   6.285   1.773  12.730  0.0544 -0.4069  0.4148
12689TIP3    H159558   6.285   1.841  12.798  0.9816  0.3264 -0.2869
12689TIP3    H259559   6.222   1.804  12.665  2.3640  1.2145 -1.2131
12690TIP3   OH259560   3.058   1.138  15.718 -0.1264 -0.3928 -0.0545
12690TIP3    H159561   3.140   1.148  15.767  0.3298 -2.1148 -0.3859
12690TIP3    H259562   3.082   1.158  15.628 -0.0597 -0.9180 -0.1549
12691TIP3   OH259563   2.744   5.268   3.679 -0.2618  0.0553  0.4925
12691TIP3    H159564   2.703   5.266   3.766 -1.8205 -0.5365 -0.2074
12691TIP3    H259565   2.714   5.350   3.640 -2.1683 -1.0723 -0.6002
12692TIP3   OH259566   2.508   5.937  14.589  0.0863  0.1881 -0.4547
12692TIP3    H159567   2.540   5.970  14.505  0.1132 -0.0473 -0.5377
12692TIP3    H259568   2.420   5.973  14.598  1.3398  3.3065  1.1191
12693TIP3   OH259569   4.195   1.523   5.033 -0.5867 -0.4190  0.4315
12693TIP3    H159570   4.262   1.460   5.059 -0.6080  0.1425  1.9745
12693TIP3    H259571   4.119   1.469   5.009 -0.0635 -1.0121  0.0831
12694TIP3   OH259572   3.448   3.438   6.045 -0.1463  0.4267  0.0990
12694TIP3    H159573   3.361   3.463   6.015 -1.0480  0.9370  2.9343
12694TIP3    H259574   3.434   3.386   6.124  2.1126  0.1053  0.3778
12695TIP3   OH259575   6.758   2.690   5.817  0.4756 -0.0309 -0.2022
12695TIP3    H159576   6.713   2.625   5.872 -0.4427  0.5935 -0.2025
12695TIP3    H259577   6.718   2.773   5.841  2.6969  0.7983  0.9080
12696TIP3   OH259578   0.638   5.501   0.360  0.0882 -0.3473  0.2414
12696TIP3    H159579   0.715   5.444   0.359  0.5532  0.2687  0.0746
12696TIP3    H259580   0.577   5.458   0.419  0.2898 -1.1946 -0.1500
12697TIP3   OH259581   0.020   4.031   1.298 -0.3776 -0.0781 -0.5374
12697TIP3    H159582   0.048   4.066   1.383 -2.9153 -1.4998  1.0304
12697TIP3    H259583  -0.039   4.099   1.263 -0.3427 -0.0487 -0.5392
12698TIP3   OH259584   1.082   2.481   5.964 -0.2772  0.1069 -0.6239
12698TIP3    H159585   1.033   2.399   5.960  0.4195 -0.3620 -0.0176
12698TIP3    H259586   1.163   2.463   5.916 -0.0387  0.3733 -0.3289
12699TIP3   OH259587   2.318   1.365   1.168 -0.4737  0.6345  0.3819
12699TIP3    H159588   2.293   1.285   1.215  0.4921  1.3703  2.2259
12699TIP3    H259589   2.363   1.333   1.089 -1.6937 -0.6282  0.1497
12700TIP3   OH259590   4.167   1.197   3.428 -0.1245  0.1929  0.5225
12700TIP3    H159591   4.240   1.170   3.483  1.2065 -2.4723 -2.2524
12700TIP3    H259592   4.207   1.240   3.353 -1.6232  1.0079  0.1508
12701TIP3   OH259593   4.671   4.923  14.786 -0.6751 -0.6949  0.1110
12701TIP3    H159594   4.653   4.891  14.697  1.0431  2.8179 -1.6874
12701TIP3    H259595   4.600   4.984  14.804  0.8685  1.3690 -0.4797
12702TIP3   OH259596   4.655   6.594   5.795  0.2608  0.2322 -0.2156
12702TIP3    H159597   4.655   6.686   5.769  0.2444 -0.6925 -4.0552
12702TIP3    H259598   4.563   6.569   5.797  0.3214 -0.0027 -0.3277
12703TIP3   OH259599   1.029   4.819   3.664  0.0777  0.9030 -0.2973
12703TIP3    H159600   0.992   4.804   3.576  1.4088 -4.5821 -0.3030
12703TIP3    H259601   1.124   4.821   3.650  0.2725  0.8453  0.9046
12704TIP3   OH259602   5.444   4.695  13.896 -0.7953  0.0042  0.2119
12704TIP3    H159603   5.380   4.637  13.938  0.1824 -0.0541  1.7100
12704TIP3    H259604   5.447   4.772  13.953 -0.2705  0.4490 -0.4092
12705TIP3   OH259605   2.639   2.324   2.583  0.3973  0.4102  0.3798
12705TIP3    H159606   2.718   2.272   2.599  0.1339 -0.5161 -1.1571
12705TIP3    H259607   2.569   2.276   2.627  0.7456  1.6364  2.4143
12706TIP3   OH259608   0.852   0.176   3.066 -0.4067  0.5555 -1.0382
12706TIP3    H159609   0.942   0.205   3.080 -0.6305  1.5302 -1.5767
12706TIP3    H259610   0.847   0.157   2.972 -0.9464  1.1729 -1.1403
12707TIP3   OH259611   0.394   4.228   4.194  0.2626  0.1714 -0.4134
12707TIP3    H159612   0.337   4.222   4.271  1.7863 -0.3825  0.7260
12707TIP3    H259613   0.459   4.294   4.217 -0.8458  2.0273 -2.3640
12708TIP3   OH259614   0.061   5.824  14.701 -0.5273 -0.1013  0.1088
12708TIP3    H159615   0.088   5.912  14.675 -2.2948  0.3179 -0.4604
12708TIP3    H259616   0.079   5.821  14.796  2.7969 -0.4364 -0.4057
12709TIP3   OH259617   3.573   3.969   1.621  0.0662 -0.0599 -0.2093
12709TIP3    H159618   3.543   4.032   1.687 -0.3832 -0.4150 -0.0762
12709TIP3    H259619   3.499   3.909   1.609 -0.7615  1.2954 -2.6737
12710TIP3   OH259620   4.407   4.536  12.411  0.7855 -0.1282 -0.0657
12710TIP3    H159621   4.466   4.586  12.354  1.1781 -1.6108 -1.0368
12710TIP3    H259622   4.345   4.601  12.445  2.7869  1.4481  0.7974
12711TIP3   OH259623   5.433   3.843  11.657 -0.1883  0.1408 -0.2227
12711TIP3    H159624   5.374   3.908  11.619 -1.2163 -0.2122  0.7093
12711TIP3    H259625   5.493   3.894  11.712 -0.2499  0.4046 -0.3977
12712TIP3   OH259626   0.507   2.241   5.352  0.4913  0.1495  0.5836
12712TIP3    H159627   0.424   2.213   5.314  0.3650  1.7929 -0.4681
12712TIP3    H259628   0.484   2.267   5.441  0.2123 -0.9364  0.8466
12713TIP3   OH259629   5.826   2.982   2.200  0.1704 -0.3985 -0.2543
12713TIP3    H159630   5.803   3.056   2.143  0.5260 -0.3989 -0.3994
12713TIP3    H259631   5.887   3.019   2.264 -0.6967 -0.2589  0.5032
12714TIP3   OH259632   2.077   5.056  16.619  0.5367 -0.5949 -0.2933
12714TIP3    H159633   2.159   5.057  16.669 -0.6295 -0.0343  1.7396
12714TIP3    H259634   2.008   5.060  16.686 -1.2305 -2.5686 -1.8218
12715TIP3   OH259635   6.725   0.065  13.025  0.4578  0.5039 -0.0499
12715TIP3    H159636   6.820   0.052  13.025  0.4157  0.1700 -0.4270
12715TIP3    H259637   6.706   0.100  12.937  0.2711  0.8687  0.1321
12716TIP3   OH259638   1.166   3.253  17.053  0.1704  0.0855 -0.3941
12716TIP3    H159639   1.149   3.179  16.995 -0.7145 -0.5885  0.6795
12716TIP3    H259640   1.080   3.294  17.065  0.1662 -0.2744  1.0380
12717TIP3   OH259641   2.700   6.510   3.692  0.0015  0.4553  0.3115
12717TIP3    H159642   2.751   6.499   3.612 -0.7461  0.8958 -0.2318
12717TIP3    H259643   2.645   6.586   3.676 -1.8615 -0.8026  0.3223
12718TIP3   OH259644   2.442   1.841   2.297  0.5174  0.2717  0.3298
12718TIP3    H159645   2.463   1.892   2.375  2.6567  0.7815 -0.5110
12718TIP3    H259646   2.410   1.906   2.234 -0.9111 -0.0947  0.6376
12719TIP3   OH259647   0.933   4.466   4.469  0.1932  0.4344 -0.1274
12719TIP3    H159648   0.892   4.474   4.382  1.6806  1.8527 -0.7513
12719TIP3    H259649   0.869   4.505   4.529 -0.1602  0.9625 -0.8215
12720TIP3   OH259650   0.525   5.317  16.907  0.2266  0.3404 -0.1008
12720TIP3    H159651   0.445   5.297  16.954  0.6665 -0.0520  0.4978
12720TIP3    H259652   0.506   5.398  16.860  0.1374  1.3510  1.6222
12721TIP3   OH259653   1.578   1.231  10.912 -0.8109 -0.1792  0.3716
12721TIP3    H159654   1.519   1.305  10.928  0.5223  0.6280  1.9861
12721TIP3    H259655   1.560   1.170  10.984  1.4834  0.9407  2.0545
12722TIP3   OH259656   2.938   0.239  16.277  0.0031  0.4307  0.5214
12722TIP3    H159657   2.956   0.235  16.371  0.1891 -0.9420  0.4487
12722TIP3    H259658   3.024   0.254  16.237 -0.0507  0.8383  0.5557
12723TIP3   OH259659   2.308   6.159   3.080  0.5588 -0.1388 -0.1527
12723TIP3    H159660   2.370   6.159   3.153  2.5557 -0.4719 -1.7421
12723TIP3    H259661   2.238   6.101   3.108  1.2909 -0.3099  1.4565
12724TIP3   OH259662   4.138   0.227   2.953 -0.7455  0.2173  0.7029
12724TIP3    H159663   4.125   0.167   2.879  0.3618  0.2589  0.4633
12724TIP3    H259664   4.166   0.309   2.912  0.3574  0.0948  1.1810
12725TIP3   OH259665   2.741   5.280   4.995 -0.1579  1.0193 -0.0761
12725TIP3    H159666   2.667   5.331   4.962 -0.8362  0.1596  0.0717
12725TIP3    H259667   2.760   5.318   5.080 -3.2747 -1.3553  1.9300
12726TIP3   OH259668   0.693   3.374  16.961  0.6017 -0.0058  0.0321
12726TIP3    H159669   0.770   3.319  16.946  1.7893  1.3873  0.7578
12726TIP3    H259670   0.641   3.364  16.881  2.2860  0.1958 -1.1459
12727TIP3   OH259671   1.226   5.181  11.558  0.0854 -0.1567  0.5175
12727TIP3    H159672   1.291   5.123  11.517 -0.3071 -0.1935 -0.0679
12727TIP3    H259673   1.252   5.269  11.530 -0.8677 -0.2669 -0.8365
12728TIP3   OH259674   0.934   6.008  12.971  0.1833 -0.6100  0.1959
12728TIP3    H159675   0.899   6.095  12.989  2.2710  0.3506 -0.1780
12728TIP3    H259676   0.930   6.000  12.875  0.8381 -0.5516  0.1623
12729TIP3   OH259677   4.047   4.106   4.592 -0.1469  0.0615  0.0628
12729TIP3    H159678   3.999   4.187   4.576 -0.2967  0.4242  2.1574
12729TIP3    H259679   4.139   4.132   4.591  0.0767 -0.4587 -2.9316
12730TIP3   OH259680   3.994   3.999  16.504 -0.1140  0.1884 -0.0525
12730TIP3    H159681   4.057   3.936  16.540 -2.5608 -1.2911  1.9122
12730TIP3    H259682   4.020   4.083  16.541  1.2772 -0.1726 -0.1284
12731TIP3   OH259683   2.154   4.435   4.887  0.3191 -0.1715 -0.4160
12731TIP3    H159684   2.220   4.500   4.864 -0.3404  0.4170 -0.7075
12731TIP3    H259685   2.198   4.351   4.876  1.3383  0.2282  0.4671
12732TIP3   OH259686   6.110   0.334   0.294 -0.1907  0.3409 -0.4988
12732TIP3    H159687   6.075   0.270   0.356 -2.8442  2.2152  0.0910
12732TIP3    H259688   6.136   0.409   0.348  1.1897  0.4996 -1.3354
12733TIP3   OH259689   4.376   2.587  15.217  0.3484 -0.0407 -0.3207
12733TIP3    H159690   4.402   2.678  15.199  0.2709  0.1482  0.4737
12733TIP3    H259691   4.353   2.587  15.310  0.4059 -0.8942 -0.3005
12734TIP3   OH259692   1.988   1.452  12.546 -0.1437  0.1033  0.0070
12734TIP3    H159693   1.917   1.516  12.541 -0.5461 -0.4374 -1.8891
12734TIP3    H259694   1.946   1.370  12.571  0.1460  0.2214  0.9270
12735TIP3   OH259695   3.952   6.635   3.090 -0.4493  0.0565  0.9562
12735TIP3    H159696   3.905   6.677   3.163  1.4708  1.3232  1.5502
12735TIP3    H259697   3.948   6.700   3.020  1.3827  0.7437  1.4272
12736TIP3   OH259698   2.617   3.382  12.286  0.1874  0.1583  0.0420
12736TIP3    H159699   2.562   3.359  12.362 -0.3979  0.2866 -0.3321
12736TIP3    H259700   2.559   3.434  12.230  0.5900 -0.0010 -0.5306
12737TIP3   OH259701   1.566   1.578   1.157  0.5644 -0.0822 -0.2895
12737TIP3    H159702   1.560   1.515   1.085  0.4598 -0.2853 -0.1028
12737TIP3    H259703   1.489   1.560   1.211 -1.0200  1.9445 -1.6459
12738TIP3   OH259704   1.903   5.722   5.412 -0.0359  0.2511  0.0043
12738TIP3    H159705   1.992   5.695   5.390 -0.2157  0.7705 -1.4921
12738TIP3    H259706   1.876   5.662   5.482  0.4031 -1.9574 -1.5927
12739TIP3   OH259707   0.198   5.235  16.241 -0.3322  0.3572 -0.3691
12739TIP3    H159708   0.113   5.195  16.258 -0.3042  0.7724  0.7964
12739TIP3    H259709   0.257   5.192  16.303  0.0924  0.8410 -0.4359
12740TIP3   OH259710   4.581   3.550  15.608  0.1087 -0.4928 -0.3373
12740TIP3    H159711   4.641   3.574  15.679  1.4582 -1.8033 -0.9907
12740TIP3    H259712   4.498   3.591  15.633 -0.4940 -3.5206  3.8332
12741TIP3   OH259713   1.940   3.008  12.180 -0.3219 -0.4709  0.0930
12741TIP3    H159714   1.945   3.002  12.275 -0.5890 -1.6466  0.0525
12741TIP3    H259715   1.882   2.936  12.155 -0.3668 -0.0855 -0.9464
12742TIP3   OH259716   4.759   0.184   0.544  0.0794  0.2810 -0.1052
12742TIP3    H159717   4.682   0.133   0.519  0.9805 -0.3537 -1.7469
12742TIP3    H259718   4.732   0.276   0.534 -0.7448  0.0851  0.2967
12743TIP3   OH259719   3.161   4.347   2.092 -0.3887  0.6833  0.0356
12743TIP3    H159720   3.251   4.316   2.096 -0.2236  0.6902 -2.4130
12743TIP3    H259721   3.111   4.274   2.056 -1.5993  0.3306  2.2585
12744TIP3   OH259722   4.549   4.004  14.562 -0.7717 -0.0792  0.1600
12744TIP3    H159723   4.595   4.055  14.495 -2.2852  1.2901  0.1158
12744TIP3    H259724   4.587   4.033  14.644 -0.3926 -0.2065  0.0344
12745TIP3   OH259725   5.677   5.887   5.756 -0.4856 -0.4649  0.7372
12745TIP3    H159726   5.631   5.821   5.705 -1.8113  0.1957  1.0330
12745TIP3    H259727   5.702   5.954   5.693  2.1599 -1.8271  0.1632
12746TIP3   OH259728   1.684   6.125   5.549 -0.1506 -0.2450 -0.6656
12746TIP3    H159729   1.652   6.036   5.562 -1.7059  0.4604  0.6647
12746TIP3    H259730   1.651   6.150   5.463 -1.6560 -0.1850 -0.0959
12747TIP3   OH259731   0.718   5.282   0.910  0.6796  0.4718  0.0319
12747TIP3    H159732   0.766   5.268   0.829 -0.1912  2.5680 -0.9216
12747TIP3    H259733   0.626   5.277   0.885  0.3907  1.4964  0.7791
12748TIP3   OH259734   6.689   0.093  13.672 -0.1579 -0.4220 -0.0015
12748TIP3    H159735   6.742   0.094  13.752 -0.3471 -1.1010  0.1426
12748TIP3    H259736   6.633   0.170  13.679  0.4321  0.0070  0.0993
12749TIP3   OH259737   4.632   5.639  17.103 -0.7484 -0.1749  0.4825
12749TIP3    H159738   4.647   5.596  17.187  1.3338 -0.5415 -0.0059
12749TIP3    H259739   4.644   5.732  17.122 -0.7602 -0.2152  0.6888
12750TIP3   OH259740   3.376   3.220  12.516 -0.1501  0.1561 -0.1908
12750TIP3    H159741   3.376   3.282  12.589 -0.4649  0.6239 -0.5839
12750TIP3    H259742   3.460   3.234  12.472  0.8848 -1.4289  1.1538
12751TIP3   OH259743   4.295   2.016   2.651 -0.1258  0.4455  0.6961
12751TIP3    H159744   4.258   1.936   2.688 -0.3813  0.2737  0.0848
12751TIP3    H259745   4.321   2.068   2.727 -0.4743  0.0265  1.1080
12752TIP3   OH259746   2.247   0.568   3.388  0.0017  0.0058 -0.5367
12752TIP3    H159747   2.248   0.473   3.390 -1.4219 -0.0693  2.6434
12752TIP3    H259748   2.214   0.591   3.301 -2.5362 -2.4905 -0.3525
12753TIP3   OH259749   4.543   2.888  13.404  0.1287  0.1637 -0.4475
12753TIP3    H159750   4.632   2.885  13.368  0.0934  0.7652 -0.5930
12753TIP3    H259751   4.494   2.941  13.341  0.0055  1.0366  0.3542
12754TIP3   OH259752   5.405   5.068   4.600  0.5962  0.0513  0.0963
12754TIP3    H159753   5.355   5.141   4.636 -0.1265 -0.1098 -0.5711
12754TIP3    H259754   5.496   5.095   4.608  0.3064  1.7961 -1.7386
12755TIP3   OH259755   5.851   6.649  11.717  0.4793  0.5290  0.1083
12755TIP3    H159756   5.873   6.559  11.738 -0.5851  0.3979  0.7280
12755TIP3    H259757   5.935   6.692  11.703  0.9986 -0.5346 -0.1353
12756TIP3   OH259758   0.885   1.440  14.625  0.7788 -0.7012  0.2817
12756TIP3    H159759   0.965   1.487  14.601  1.0283 -1.4208 -0.3332
12756TIP3    H259760   0.898   1.416  14.716  1.0433 -0.3776  0.3335
12757TIP3   OH259761   5.033   0.122  13.828 -0.5769  0.4928  0.6877
12757TIP3    H159762   5.123   0.115  13.797 -1.8334 -1.9607 -2.9929
12757TIP3    H259763   5.000   0.202  13.789 -0.8513 -0.2650 -0.6836
12758TIP3   OH259764   3.103   5.516  10.467 -0.7762 -0.4012 -0.2746
12758TIP3    H159765   3.078   5.585  10.406 -1.6030 -0.2594  0.2082
12758TIP3    H259766   3.025   5.503  10.522 -0.3227 -1.0829  0.2267
12759TIP3   OH259767   3.624   5.736  16.552 -0.4391  0.2081 -0.2469
12759TIP3    H159768   3.556   5.790  16.592 -0.5609 -0.1844  0.0807
12759TIP3    H259769   3.706   5.783  16.572 -0.5335  0.2153  0.1397
12760TIP3   OH259770   3.270   1.890   2.790 -0.3743  0.3071  0.2997
12760TIP3    H159771   3.319   1.913   2.710  0.3400  0.5952  0.8109
12760TIP3    H259772   3.255   1.795   2.782 -0.2162  0.3146 -0.1304
12761TIP3   OH259773   4.497   0.684  14.459 -0.0364  0.1641  0.0545
12761TIP3    H159774   4.545   0.601  14.461  0.4509  0.4174 -0.5299
12761TIP3    H259775   4.407   0.660  14.437 -0.3405 -0.3734  1.7376
12762TIP3   OH259776   5.996   1.795  14.112  0.5801  0.2635  0.1242
12762TIP3    H159777   6.075   1.801  14.058  0.1310  2.5958 -0.3844
12762TIP3    H259778   6.030   1.783  14.201  1.5254  0.7704 -0.1462
12763TIP3   OH259779   2.551   4.729   1.447  0.5914  0.6441 -0.6354
12763TIP3    H159780   2.560   4.677   1.368 -0.3149  0.7655 -0.8221
12763TIP3    H259781   2.586   4.673   1.517 -1.2997 -0.6566 -0.6665
12764TIP3   OH259782   3.994   5.272   3.137  0.4933  0.2460  0.0478
12764TIP3    H159783   3.900   5.266   3.152  0.3599 -0.5476 -1.0288
12764TIP3    H259784   4.031   5.202   3.192  0.3461 -0.1871 -0.3988
12765TIP3   OH259785   6.823   0.149   4.852 -0.1551  0.2269  0.7205
12765TIP3    H159786   6.785   0.184   4.932 -2.2940  1.0333 -0.5450
12765TIP3    H259787   6.753   0.098   4.812  1.2805 -1.2587 -0.0337
12766TIP3   OH259788   1.638   0.026  11.845  0.1839 -0.2949 -0.2850
12766TIP3    H159789   1.711  -0.024  11.807 -0.5665  0.0745 -2.3132
12766TIP3    H259790   1.620  -0.018  11.928  0.3368 -2.6823 -1.4327
12767TIP3   OH259791   3.932   5.668   5.981  0.0263  0.0429  0.4035
12767TIP3    H159792   3.913   5.712   6.064 -0.6450 -0.0204  0.2883
12767TIP3    H259793   3.851   5.675   5.931  0.4733  0.2223 -0.3188
12768TIP3   OH259794   3.267   6.584   5.962  0.0555  0.1148  0.2842
12768TIP3    H159795   3.345   6.637   5.977 -0.0286  1.4595 -3.0748
12768TIP3    H259796   3.301   6.498   5.937  0.5151  0.5755 -0.7628
12769TIP3   OH259797   6.425   3.728  13.349  1.1311  0.1534 -0.1061
12769TIP3    H159798   6.336   3.705  13.322  0.1227  0.7683  2.4477
12769TIP3    H259799   6.478   3.652  13.325 -0.1990 -0.5235 -1.0373
12770TIP3   OH259800   4.464   4.445  15.779 -0.3181  0.8475 -0.0658
12770TIP3    H159801   4.459   4.539  15.800 -0.7718  0.4679  1.6735
12770TIP3    H259802   4.525   4.410  15.844 -1.2787 -0.3107  0.2232
12771TIP3   OH259803   0.519   3.477  13.025  0.0205 -0.1387 -0.0992
12771TIP3    H159804   0.445   3.505  12.971 -1.1921  0.5014  1.8032
12771TIP3    H259805   0.489   3.488  13.115  0.7620 -4.2285  0.8472
12772TIP3   OH259806   3.932   5.254   1.263  0.1054  0.5819  0.3329
12772TIP3    H159807   3.960   5.243   1.354  2.3556  1.0747 -0.2350
12772TIP3    H259808   3.950   5.346   1.243 -0.2857  0.4659 -0.6260
12773TIP3   OH259809   6.387   4.033   0.739 -0.2651  0.6602 -0.3331
12773TIP3    H159810   6.333   4.001   0.812 -0.1900 -2.2133 -1.4127
12773TIP3    H259811   6.324   4.066   0.675 -0.7567 -1.3893 -0.9899
12774TIP3   OH259812   3.449   5.957   5.374 -0.8018 -0.3393  0.0137
12774TIP3    H159813   3.538   5.939   5.407 -0.2061 -2.8841 -2.5708
12774TIP3    H259814   3.394   5.895   5.421 -0.6739 -0.9155 -0.5852
12775TIP3   OH259815   1.228   4.703   0.314 -0.3943  0.1544  0.1469
12775TIP3    H159816   1.282   4.763   0.366  0.9251 -1.9821  1.3890
12775TIP3    H259817   1.265   4.708   0.226  0.5310  0.2677  0.5227
12776TIP3   OH259818   4.007   3.028  15.709 -0.1907 -0.0061  0.1354
12776TIP3    H159819   3.913   3.010  15.705 -0.2492  0.0574  1.0850
12776TIP3    H259820   4.014   3.114  15.750  0.3398 -0.8246  1.8322
12777TIP3   OH259821   1.931   6.668  12.355  0.0694  0.6849 -0.3910
12777TIP3    H159822   1.958   6.606  12.423  1.9995 -0.0088 -1.7291
12777TIP3    H259823   1.953   6.754  12.391 -0.2938  0.4441  0.4422
12778TIP3   OH259824   6.391   2.550  13.664 -0.0196  0.3773 -0.1548
12778TIP3    H159825   6.461   2.579  13.723 -0.5913 -2.3691  2.1064
12778TIP3    H259826   6.358   2.470  13.704 -2.9091  0.2800 -2.4086
12779TIP3   OH259827   2.613   1.744   3.058 -0.3186 -0.3742 -0.0014
12779TIP3    H159828   2.615   1.818   3.118  0.4980 -0.5301  0.1851
12779TIP3    H259829   2.705   1.724   3.041 -0.5283 -0.9963 -0.4807
12780TIP3   OH259830   5.488   0.667   3.865 -0.4219  0.7648 -0.1539
12780TIP3    H159831   5.566   0.640   3.817  1.5780 -0.2726  3.3780
12780TIP3    H259832   5.515   0.745   3.914 -1.9484  0.9913  0.3931
12781TIP3   OH259833   1.520   5.696  11.194  0.1468  0.3220 -0.1001
12781TIP3    H159834   1.592   5.753  11.167  0.2511 -0.0096 -0.5098
12781TIP3    H259835   1.524   5.621  11.135 -0.3533  0.1620  0.0647
12782TIP3   OH259836   1.476   2.885  12.925  0.2430 -0.0950  0.4165
12782TIP3    H159837   1.400   2.930  12.962 -0.0967 -0.5237  0.2611
12782TIP3    H259838   1.490   2.810  12.984  1.2784  0.6218  1.1140
12783TIP3   OH259839   3.607   2.101  14.442  0.0002  0.1986  0.1288
12783TIP3    H159840   3.591   2.014  14.477 -0.0476  0.3530  0.4919
12783TIP3    H259841   3.648   2.085  14.357 -0.7202 -0.1848 -0.1542
12784TIP3   OH259842   0.150   0.285   4.664  0.8271 -0.3324 -0.3658
12784TIP3    H159843   0.138   0.238   4.581  1.6283 -0.3115 -0.5014
12784TIP3    H259844   0.097   0.237   4.727  1.9700 -1.6915 -0.4004
12785TIP3   OH259845   6.078   5.415   4.101  0.2602  0.8742 -0.2357
12785TIP3    H159846   6.102   5.395   4.192 -1.3523  2.7178  0.6587
12785TIP3    H259847   6.151   5.381   4.050  0.7242 -1.2222  1.6252
12786TIP3   OH259848   3.990   1.823   4.906 -0.1546 -0.3545  0.0005
12786TIP3    H159849   3.934   1.891   4.870  0.0004 -0.9304 -1.3988
12786TIP3    H259850   3.937   1.743   4.901  0.0902 -0.5466  0.4863
12787TIP3   OH259851   2.946   3.813  14.428 -0.5215  0.1762 -0.4374
12787TIP3    H159852   2.877   3.783  14.488  1.0304 -0.2027  1.2437
12787TIP3    H259853   2.946   3.908  14.438 -0.0051  0.0895  0.5184
12788TIP3   OH259854   6.410   2.261   4.925 -0.3517 -0.0323 -0.6606
12788TIP3    H159855   6.378   2.348   4.948  1.1850  0.5285 -0.4700
12788TIP3    H259856   6.408   2.259   4.830 -0.2997  0.2702 -0.6714
12789TIP3   OH259857   5.640   4.809   4.815 -0.1595 -0.1117 -0.0140
12789TIP3    H159858   5.548   4.827   4.794  0.2148  0.3681 -1.3547
12789TIP3    H259859   5.640   4.721   4.851 -1.2180  0.1079  0.5746
12790TIP3   OH259860   6.764   6.018   5.407 -0.3083 -0.0268 -0.6559
12790TIP3    H159861   6.785   6.041   5.316 -1.3396 -2.7287 -1.6721
12790TIP3    H259862   6.729   6.099   5.445  2.2977  1.8171 -1.8837
12791TIP3   OH259863   5.324   1.415  17.261  0.3190  0.4533 -0.1265
12791TIP3    H159864   5.232   1.438  17.245 -0.5097 -2.5922 -0.3103
12791TIP3    H259865   5.366   1.423  17.176 -0.3326 -0.3001 -0.5284
12792TIP3   OH259866   1.667   0.930   5.285 -0.2256 -0.5039 -0.2081
12792TIP3    H159867   1.708   0.942   5.199  0.4279  2.5308  0.4331
12792TIP3    H259868   1.727   0.873   5.332  0.6624 -0.2191 -0.9608
12793TIP3   OH259869   3.250   4.947   3.329  0.6751 -0.1793  0.8011
12793TIP3    H159870   3.329   4.996   3.353  0.3947 -0.4713  2.3768
12793TIP3    H259871   3.187   5.015   3.303  0.5154  0.2719  2.3024
12794TIP3   OH259872   1.096   3.361   3.146  0.1885 -0.6797  0.3589
12794TIP3    H159873   1.148   3.374   3.066 -0.2998  0.0472  0.1490
12794TIP3    H259874   1.161   3.344   3.214  0.6276 -1.0626 -0.1410
12795TIP3   OH259875   0.600   2.913  11.776 -0.6815 -0.7453  0.4293
12795TIP3    H159876   0.672   2.976  11.775 -1.0070 -0.3685  0.5368
12795TIP3    H259877   0.534   2.953  11.832 -0.7191 -1.3746  0.8457
12796TIP3   OH259878   5.906   4.268   4.949 -0.6819 -0.0942 -0.9119
12796TIP3    H159879   5.998   4.248   4.933 -0.1309  1.6143 -0.1602
12796TIP3    H259880   5.870   4.188   4.987  0.8613 -0.3604  0.0979
12797TIP3   OH259881   3.618   3.999   5.118 -0.2286 -0.5534  0.0969
12797TIP3    H159882   3.598   3.995   5.025 -0.4529  3.3737 -0.1860
12797TIP3    H259883   3.564   4.070   5.152  0.6394 -1.1369  3.0448
12798TIP3   OH259884   6.001   4.816  14.776  0.1500 -0.0842 -0.1893
12798TIP3    H159885   5.949   4.842  14.851  1.0344  0.7481  0.1427
12798TIP3    H259886   6.049   4.739  14.805  1.0429  0.6671  0.3430
12799TIP3   OH259887   3.071   4.926   2.353  0.1483  0.2794 -0.1764
12799TIP3    H159888   3.047   4.843   2.393  0.2765 -0.0469 -0.7633
12799TIP3    H259889   2.999   4.946   2.293  0.6000  0.0531 -0.8147
12800TIP3   OH259890   5.388   1.132   6.287  0.0706 -0.1468  1.1432
12800TIP3    H159891   5.337   1.051   6.286  2.5799 -1.8339  0.6128
12800TIP3    H259892   5.435   1.130   6.370 -0.5507  1.2881  1.5512
12801TIP3   OH259893   4.601   6.114  14.325 -0.6041 -0.4574 -0.3640
12801TIP3    H159894   4.507   6.108  14.306 -0.4612 -1.2172 -0.9130
12801TIP3    H259895   4.642   6.062  14.255  0.4084  1.8085 -1.5359
12802TIP3   OH259896   6.553   1.186  14.099  0.6793 -0.2179 -0.2395
12802TIP3    H159897   6.604   1.261  14.067 -0.2497  0.8086  0.5931
12802TIP3    H259898   6.613   1.111  14.091  2.4854  0.9864  1.0502
12803TIP3   OH259899   1.597   4.425   6.973  0.6776 -0.0981 -0.4211
12803TIP3    H159900   1.606   4.519   6.989 -1.6211  0.2159 -0.5433
12803TIP3    H259901   1.613   4.415   6.879 -3.6230  1.0680 -1.5263
12804TIP3   OH259902   5.439   5.757  17.236 -0.1152  0.5681  0.4776
12804TIP3    H159903   5.375   5.828  17.234  0.0820  0.7449 -0.4004
12804TIP3    H259904   5.523   5.800  17.222 -0.0742  0.1076 -0.8816
12805TIP3   OH259905   1.393   2.670   3.380  0.0284 -0.2631 -0.0388
12805TIP3    H159906   1.483   2.684   3.351 -0.2178  0.6991 -0.4077
12805TIP3    H259907   1.343   2.662   3.298 -0.4403  0.8333  0.1217
12806TIP3   OH259908   2.175   4.955  13.142  0.0153  0.1346 -0.0257
12806TIP3    H159909   2.111   5.010  13.096  0.3085  1.1398  0.7384
12806TIP3    H259910   2.158   4.866  13.110 -2.1969  0.2700  0.6489
12807TIP3   OH259911   4.234   5.989  15.118  0.3933  0.1157  0.1054
12807TIP3    H159912   4.186   5.978  15.200  0.0334  2.2333  0.2221
12807TIP3    H259913   4.235   6.083  15.103  2.2271 -0.0701 -1.2837
12808TIP3   OH259914   0.122   2.600   1.452 -0.4032 -0.1606 -0.2431
12808TIP3    H159915   0.136   2.670   1.389 -1.1259  1.5974  1.4473
12808TIP3    H259916   0.035   2.566   1.432 -0.1299 -0.4527 -0.9478
12809TIP3   OH259917   3.301   5.813  14.967  0.1845  0.4151  0.1806
12809TIP3    H159918   3.294   5.886  15.028 -2.5385  0.5784 -0.2316
12809TIP3    H259919   3.225   5.758  14.986 -1.7967  1.2885 -4.0086
12810TIP3   OH259920   5.348   5.634   4.718  0.4281  0.1093 -0.5895
12810TIP3    H159921   5.308   5.629   4.805 -1.3407 -1.7271 -1.4406
12810TIP3    H259922   5.431   5.587   4.727  0.1771 -0.2158  0.0573
12811TIP3   OH259923   5.089   2.077  12.439 -0.5855  0.3341 -0.1636
12811TIP3    H159924   5.132   2.131  12.373 -0.5097 -0.7331 -1.0010
12811TIP3    H259925   5.158   2.059  12.503  0.1630 -1.0435 -1.3017
12812TIP3   OH259926   4.174   2.401  11.443  0.5244  0.2621 -0.7081
12812TIP3    H159927   4.182   2.345  11.365  0.4121 -1.4645  0.4758
12812TIP3    H259928   4.080   2.408  11.459  0.5162  1.1098 -1.0287
12813TIP3   OH259929   6.682   3.836  15.019  0.5530 -0.5774  0.5405
12813TIP3    H159930   6.594   3.851  15.054  1.0520  0.0434  1.6141
12813TIP3    H259931   6.698   3.911  14.962  0.5823 -0.3970  0.7810
12814TIP3   OH259932   6.154   4.792   5.045  0.0415  0.1207 -0.4267
12814TIP3    H159933   6.071   4.810   5.091  1.2022 -0.4579  2.0476
12814TIP3    H259934   6.129   4.734   4.973 -1.6153 -0.9171  0.8915
12815TIP3   OH259935   0.609   1.927  15.654 -0.0742 -0.5616  0.4027
12815TIP3    H159936   0.540   1.979  15.694  0.0836  0.9681 -1.1533
12815TIP3    H259937   0.661   1.991  15.604  1.4790 -1.9073  0.2050
12816TIP3   OH259938   3.622   3.512  15.855 -0.6208  0.1941 -0.2000
12816TIP3    H159939   3.539   3.552  15.881 -1.4465 -2.3856  1.5138
12816TIP3    H259940   3.665   3.490  15.937  0.3587 -1.2378 -1.0417
12817TIP3   OH259941   1.284   3.316   3.343  0.4633 -0.3365  0.1100
12817TIP3    H159942   1.362   3.371   3.340  0.0825  0.3307 -4.2928
12817TIP3    H259943   1.317   3.229   3.365  1.8411  0.5695  1.9002
12818TIP3   OH259944   0.347   4.688   5.127 -0.2862 -0.6557  0.4147
12818TIP3    H159945   0.351   4.681   5.222  1.4999  0.4219  0.4651
12818TIP3    H259946   0.393   4.611   5.094 -0.7853 -0.9585  0.4239
12819TIP3   OH259947   0.887   0.611  13.627 -0.1640 -0.9025  0.3344
12819TIP3    H159948   0.966   0.640  13.673 -0.6046 -0.7082  0.9774
12819TIP3    H259949   0.815   0.647  13.678 -0.6825 -1.5154  0.0455
12820TIP3   OH259950   6.117   5.605  15.645 -0.5608  0.5672 -0.3866
12820TIP3    H159951   6.053   5.675  15.654  0.4949  1.2977  2.1441
12820TIP3    H259952   6.087   5.555  15.569 -2.8108  2.2048 -0.6681
12821TIP3   OH259953   6.005   3.992  10.337 -0.0643 -0.1242  0.1448
12821TIP3    H159954   5.939   4.042  10.386 -1.9524  0.0015 -2.3265
12821TIP3    H259955   5.990   4.015  10.245  1.8595 -1.9616 -0.7229
12822TIP3   OH259956   6.214   4.932   4.439  0.3203  0.0563 -0.1016
12822TIP3    H159957   6.214   4.998   4.370  0.5739  0.6206  0.4397
12822TIP3    H259958   6.246   4.977   4.517  0.4813 -0.6945  0.2795
12823TIP3   OH259959   5.047   2.153   4.249  0.1786  0.2449  0.5670
12823TIP3    H159960   4.994   2.160   4.329 -0.6860  2.7705 -0.1476
12823TIP3    H259961   4.988   2.115   4.184  0.4365 -0.4375  0.7193
12824TIP3   OH259962   0.945   1.430  13.759 -0.2597  0.3122  0.7738
12824TIP3    H159963   0.978   1.513  13.793 -1.6236  0.6296  1.3824
12824TIP3    H259964   0.915   1.383  13.837 -1.5476  0.1978  0.2265
12825TIP3   OH259965   2.644   1.782  11.452 -0.7145 -0.1328  0.5585
12825TIP3    H159966   2.589   1.853  11.418 -0.1507 -0.4506 -1.1382
12825TIP3    H259967   2.598   1.702  11.425  1.3048 -0.4462 -2.4734
12826TIP3   OH259968   3.519   2.938   3.876  0.1937  0.1457 -0.7616
12826TIP3    H159969   3.514   2.928   3.781  0.8459 -0.4349 -0.7450
12826TIP3    H259970   3.609   2.912   3.898 -0.3549 -1.0649  0.1648
12827TIP3   OH259971   6.439   6.436  13.168 -0.3442 -0.6904  0.2825
12827TIP3    H159972   6.424   6.504  13.233  0.4278  1.0199 -1.2444
12827TIP3    H259973   6.355   6.427  13.124 -0.2349 -0.0752 -0.0705
12828TIP3   OH259974   0.540   4.889  16.334  0.4757 -0.1904  0.1807
12828TIP3    H159975   0.525   4.942  16.256 -0.6142 -0.5906  0.1053
12828TIP3    H259976   0.624   4.845  16.317  0.5871  0.2602 -0.4553
12829TIP3   OH259977   0.433   5.191   1.297 -0.1071  0.5152  0.0831
12829TIP3    H159978   0.377   5.246   1.352 -0.7373 -1.5339  1.6173
12829TIP3    H259979   0.518   5.190   1.343 -0.1192  0.1940  0.1051
12830TIP3   OH259980   1.717   0.047   4.924  0.0205  0.0163 -0.3450
12830TIP3    H159981   1.648   0.072   4.987  0.1867 -0.1617 -0.0916
12830TIP3    H259982   1.669   0.016   4.848 -0.1819 -0.6916  0.0636
12831TIP3   OH259983   5.168   4.105  13.849  0.3562  0.2188  0.3644
12831TIP3    H159984   5.212   4.055  13.917 -0.3976  2.2674  2.4698
12831TIP3    H259985   5.102   4.046  13.814  0.7312 -0.8709  1.4463
12832TIP3   OH259986   2.681   5.592  11.035 -0.4733  0.1369  0.4709
12832TIP3    H159987   2.691   5.536  10.958 -0.6854  0.4547  0.2100
12832TIP3    H259988   2.764   5.638  11.042 -0.1773 -0.4584  0.8836
12833TIP3   OH259989   1.198   3.102   3.697 -0.1689  0.0426 -0.1457
12833TIP3    H159990   1.156   3.188   3.700 -0.3371 -0.0562  0.3549
12833TIP3    H259991   1.126   3.039   3.704 -0.0931 -0.1517 -0.9680
12834TIP3   OH259992   4.524   5.057   4.725 -0.1015 -0.4425 -0.1150
12834TIP3    H159993   4.549   4.965   4.734  1.5090  0.0938  1.3633
12834TIP3    H259994   4.448   5.067   4.783 -0.3555 -0.8496 -0.3695
12835TIP3   OH259995   5.153   6.636  15.537  0.1437 -0.1001  0.1620
12835TIP3    H159996   5.110   6.593  15.462 -1.8439  1.7696  0.1104
12835TIP3    H259997   5.214   6.697  15.497  1.3908 -1.2912  0.1872
12836TIP3   OH259998   0.224   2.280   4.867  0.0881 -0.8594 -0.7502
12836TIP3    H159999   0.287   2.299   4.937 -1.5703 -0.4116  0.6709
12836TIP3    H260000   0.165   2.355   4.867 -0.5368 -1.3315 -1.9855
12837TIP3   OH260001   4.596   1.791   1.126  0.1374 -0.3598  0.4790
12837TIP3    H160002   4.555   1.745   1.052 -0.0858  0.0543  0.3407
12837TIP3    H260003   4.549   1.761   1.203  0.2217 -0.6234  0.4278
12838TIP3   OH260004   5.129   1.738   5.030 -0.1397 -0.0716 -0.0812
12838TIP3    H160005   5.127   1.781   5.116  0.8391 -0.1489 -0.0188
12838TIP3    H260006   5.041   1.753   4.995 -0.1407  1.0869  0.3725
12839TIP3   OH260007   0.375   0.712   2.915  0.3621 -0.2080  0.1634
12839TIP3    H160008   0.326   0.670   2.986 -0.8960 -0.5062 -0.8316
12839TIP3    H260009   0.431   0.643   2.880  0.2939 -0.3191  0.2728
12840TIP3   OH260010   3.792   1.589   0.084 -0.3132  0.4162 -0.5117
12840TIP3    H160011   3.771   1.582   0.178  2.4626  3.8422  0.5769
12840TIP3    H260012   3.722   1.643   0.048 -2.0114 -1.8166 -0.8425
12841TIP3   OH260013   3.737   5.238   3.213 -0.3849 -0.0850  0.1893
12841TIP3    H160014   3.753   5.236   3.308 -0.2245  1.4834  0.2079
12841TIP3    H260015   3.715   5.147   3.192 -1.2112 -0.3233  1.8677
12842TIP3   OH260016   4.215   0.713   5.937 -0.1303 -0.0168  0.5638
12842TIP3    H160017   4.188   0.804   5.934  0.0504  0.0193  0.0131
12842TIP3    H260018   4.151   0.671   5.995 -2.1534 -0.1864 -1.6473
12843TIP3   OH260019   4.449   0.606  12.273  0.1432 -1.0117 -0.4423
12843TIP3    H160020   4.475   0.581  12.184 -0.7024 -1.5403 -0.5468
12843TIP3    H260021   4.528   0.591  12.326  0.5832 -0.9090 -1.0559
12844TIP3   OH260022   0.191   0.756  15.054  0.6875  0.3131  0.0262
12844TIP3    H160023   0.161   0.671  15.021  0.1586  0.5411 -0.0841
12844TIP3    H260024   0.285   0.757  15.035  0.4169  0.4043 -1.4136
12845TIP3   OH260025   4.248   3.464   3.891  0.0391  0.1027 -0.0844
12845TIP3    H160026   4.260   3.490   3.982  1.0924 -3.4155  0.9144
12845TIP3    H260027   4.336   3.463   3.854 -0.3170  0.8859 -0.9868
12846TIP3   OH260028   3.164   6.798   0.916  0.1657 -0.0417 -0.3199
12846TIP3    H160029   3.146   6.713   0.876  3.9116 -1.0622 -0.1330
12846TIP3    H260030   3.179   6.857   0.842  0.8276 -0.3556 -0.4353
12847TIP3   OH260031   6.528   3.157   6.010  0.1139  0.4757 -0.3189
12847TIP3    H160032   6.560   3.085   5.957 -1.9977  0.3532 -1.5438
12847TIP3    H260033   6.607   3.196   6.049  1.2989 -2.5621  0.5656
12848TIP3   OH260034   2.396   4.835  17.190 -0.1049  0.2226  0.4323
12848TIP3    H160035   2.355   4.919  17.214  1.8743  1.1764  0.6953
12848TIP3    H260036   2.329   4.790  17.139 -1.9313  1.1197  1.9156
12849TIP3   OH260037   6.085   0.128  12.691  0.1113 -0.3066 -0.3290
12849TIP3    H160038   6.016   0.190  12.668  0.5844  0.1520 -0.5447
12849TIP3    H260039   6.056   0.089  12.774  0.9234  2.0094  1.1557
12850TIP3   OH260040   5.593   1.554  14.707  0.3897 -0.3834  0.0949
12850TIP3    H160041   5.529   1.484  14.719  0.1768 -0.3846 -0.9744
12850TIP3    H260042   5.542   1.625  14.667  0.9607 -0.2252 -0.3538
12851TIP3   OH260043   5.082   2.553  16.107 -0.7803 -0.4373 -0.3393
12851TIP3    H160044   4.987   2.564  16.115 -0.7326 -0.0937 -0.2215
12851TIP3    H260045   5.102   2.475  16.159 -0.8215  0.2642  0.7516
12852TIP3   OH260046   2.599   2.592   2.569 -0.3883  0.5249  0.3957
12852TIP3    H160047   2.598   2.497   2.576  1.0972  0.3954 -0.7918
12852TIP3    H260048   2.630   2.609   2.480 -1.9364  2.1220  0.1065
12853TIP3   OH260049   1.171   2.516  10.722  0.3685  0.0100  0.5294
12853TIP3    H160050   1.158   2.483  10.634 -0.8025 -1.3167  1.1588
12853TIP3    H260051   1.213   2.601  10.710 -1.1494  0.5676 -1.3752
12854TIP3   OH260052   5.787   0.078  16.912 -0.0738  0.3559 -0.1129
12854TIP3    H160053   5.727   0.124  16.971 -1.7817 -2.1645  0.3127
12854TIP3    H260054   5.833   0.016  16.969 -1.0359 -1.4389 -1.1888
12855TIP3   OH260055   4.153   2.018  17.255  0.2255  0.3766 -0.5512
12855TIP3    H160056   4.111   1.957  17.194  0.4326  0.4855 -0.8043
12855TIP3    H260057   4.101   2.012  17.335 -0.4869  0.7740 -0.9761
12856TIP3   OH260058   4.778   2.014   0.763 -0.2053  0.5467  0.6152
12856TIP3    H160059   4.817   2.101   0.754  0.1379  0.2623 -1.1160
12856TIP3    H260060   4.709   2.012   0.696 -0.8169 -0.1918  1.2490
12857TIP3   OH260061   3.637   5.702  14.109  0.4266 -0.4001 -0.4894
12857TIP3    H160062   3.664   5.621  14.066  0.9648 -1.0637  1.0337
12857TIP3    H260063   3.688   5.770  14.066  1.0193 -1.0497 -0.8373
12858TIP3   OH260064   3.864   3.566  16.655  0.0533 -0.2026  0.1634
12858TIP3    H160065   3.836   3.602  16.739  0.9635  0.7093  0.0985
12858TIP3    H260066   3.868   3.471  16.670  0.2494 -0.0464  1.1698
12859TIP3   OH260067   4.017   3.878  14.147  0.7921  0.0414 -0.0234
12859TIP3    H160068   3.961   3.903  14.220  1.9197  0.0232  0.8817
12859TIP3    H260069   4.105   3.872  14.185  1.4630  0.3419 -1.4436
12860TIP3   OH260070   3.969   3.526  15.098 -0.0989  0.0961 -0.2627
12860TIP3    H160071   3.962   3.535  15.193 -1.1403  0.0501 -0.3268
12860TIP3    H260072   4.051   3.571  15.075  0.8486 -1.0020  0.7936
12861TIP3   OH260073   1.233   5.768  15.451 -0.3948  0.3446 -0.5231
12861TIP3    H160074   1.250   5.714  15.528  0.5773  1.0161 -0.2447
12861TIP3    H260075   1.219   5.705  15.380  1.1675 -0.2923 -0.2993
12862TIP3   OH260076   3.372   2.997   5.131  0.0267  0.3160 -0.0504
12862TIP3    H160077   3.422   3.018   5.052 -1.9108  0.9971 -1.1477
12862TIP3    H260078   3.316   2.924   5.105 -0.9455  0.8294  0.5593
12863TIP3   OH260079   4.420   1.213  12.109 -0.0924 -0.1596  0.6809
12863TIP3    H160080   4.431   1.208  12.204  0.9018 -2.7450  0.4850
12863TIP3    H260081   4.499   1.175  12.073 -1.3352 -1.1737 -1.1440
12864TIP3   OH260082   0.102   4.267  17.133 -0.4194 -0.5189 -0.1824
12864TIP3    H160083   0.116   4.320  17.055  0.5892 -1.5801 -0.7465
12864TIP3    H260084   0.027   4.308  17.176  0.6005  1.6544 -0.3234
12865TIP3   OH260085   4.664   4.862   1.328 -0.1893 -0.2330  0.8965
12865TIP3    H160086   4.730   4.931   1.318 -0.0632 -0.5327 -0.6041
12865TIP3    H260087   4.713   4.786   1.359 -0.1122 -0.0293  1.2884
12866TIP3   OH260088   5.969   4.076   2.599 -0.0230  0.3414  0.0982
12866TIP3    H160089   5.897   4.073   2.537 -0.1720  4.0091 -0.0983
12866TIP3    H260090   5.963   4.162   2.640  2.0488 -0.6504  2.8269
12867TIP3   OH260091   2.861   0.898   5.607  0.7472  0.0224 -0.0081
12867TIP3    H160092   2.795   0.893   5.538  1.7235 -0.1718 -0.9623
12867TIP3    H260093   2.862   0.810   5.645 -0.0616  0.2350  0.5289
12868TIP3   OH260094   2.137   1.251  11.584 -0.0415  0.4134  0.3083
12868TIP3    H160095   2.102   1.193  11.652  0.1431  0.5024  0.4792
12868TIP3    H260096   2.204   1.302  11.628  0.0055  0.5466  0.0837
12869TIP3   OH260097   1.997   6.472  14.188 -0.3140  0.4457 -0.5865
12869TIP3    H160098   2.045   6.489  14.269  1.2744 -0.8931 -1.1964
12869TIP3    H260099   1.997   6.556  14.142 -0.3810  0.9767  0.3605
12870TIP3   OH260100   2.491   5.765   2.429  0.3253 -0.3409 -0.0544
12870TIP3    H160101   2.491   5.691   2.489  2.7710  0.1619  0.6779
12870TIP3    H260102   2.568   5.752   2.374  0.8113  1.6157  0.0878
12871TIP3   OH260103   1.387   3.653  11.773  0.2992  0.5891  0.3345
12871TIP3    H160104   1.471   3.639  11.816  1.0849  2.2159 -0.5686
12871TIP3    H260105   1.332   3.694  11.840  0.7477  0.9457  0.4914
12872TIP3   OH260106   4.958   4.500  12.456 -0.1888  0.2985 -0.1805
12872TIP3    H160107   4.997   4.424  12.498 -0.9096  0.4680  0.8284
12872TIP3    H260108   5.005   4.575  12.494  0.0691  0.3976 -0.6831
12873TIP3   OH260109   3.799   2.189  11.499  0.0092  0.0912  0.1764
12873TIP3    H160110   3.837   2.178  11.586  0.5253 -1.5568 -0.2266
12873TIP3    H260111   3.733   2.258  11.510 -0.1920 -0.3407  1.9410
12874TIP3   OH260112   2.110   3.251  15.797  0.0486  0.3618 -0.1541
12874TIP3    H160113   2.111   3.263  15.892  1.3707 -0.2519 -0.0764
12874TIP3    H260114   2.131   3.159  15.784  1.0941  0.7085 -1.0768
12875TIP3   OH260115   0.491   1.851  16.653 -0.3148  0.1349 -0.6939
12875TIP3    H160116   0.564   1.892  16.699 -0.5071  0.5584 -0.7651
12875TIP3    H260117   0.513   1.862  16.560 -0.4679  0.2557 -0.7149
12876TIP3   OH260118   2.634   6.544  12.099  0.2810  0.1058 -0.6367
12876TIP3    H160119   2.554   6.491  12.103  0.0160  0.5452  0.0357
12876TIP3    H260120   2.704   6.480  12.085 -0.0703 -0.3930 -0.1414
12877TIP3   OH260121   3.027   5.847   6.280  0.9766  0.4871 -0.2796
12877TIP3    H160122   3.001   5.917   6.221  2.3463  0.5152 -0.8754
12877TIP3    H260123   2.965   5.777   6.263 -0.0290  1.3062 -0.1139
12878TIP3   OH260124   6.572   2.110  11.447 -0.5822 -0.0929  0.2128
12878TIP3    H160125   6.634   2.049  11.486 -0.0021  0.1324 -0.3427
12878TIP3    H260126   6.565   2.181  11.510  1.0635  0.7227 -0.4609
12879TIP3   OH260127   4.698   3.687  15.188 -0.2738  0.6545 -0.2378
12879TIP3    H160128   4.729   3.616  15.244 -2.1145 -0.4210 -0.5314
12879TIP3    H260129   4.630   3.730  15.239  0.7720  2.2344 -0.0881
12880TIP3   OH260130   4.252   4.885   3.116 -0.5920 -0.4686 -0.0781
12880TIP3    H160131   4.285   4.845   3.196 -2.0069 -0.1708  0.6848
12880TIP3    H260132   4.297   4.838   3.045  0.8762 -0.5517  0.8764
12881TIP3   OH260133   2.550   4.559  14.800  0.5812  0.0754 -0.1042
12881TIP3    H160134   2.588   4.573  14.713  2.3737 -1.3015  0.4109
12881TIP3    H260135   2.497   4.638  14.815  1.4668  1.0607 -1.7835
12882TIP3   OH260136   2.649   5.361   3.927  0.1258 -0.5697 -0.0908
12882TIP3    H160137   2.657   5.273   3.963  0.4998 -0.4569  0.0981
12882TIP3    H260138   2.671   5.419   3.999 -0.2226 -0.3130 -0.1842
12883TIP3   OH260139   1.937   0.495  11.575  0.0365 -0.4159 -0.2185
12883TIP3    H160140   1.912   0.481  11.666 -2.0522  1.4299 -0.4121
12883TIP3    H260141   1.998   0.568  11.578  0.4645 -0.7644 -0.2764
12884TIP3   OH260142   0.162   1.129  17.026  0.6511  0.0038 -0.1365
12884TIP3    H160143   0.070   1.154  17.021  0.1136 -1.6583  0.7372
12884TIP3    H260144   0.177   1.074  16.949  0.4340 -1.0780  0.5669
12885TIP3   OH260145   0.177   3.161  16.098  0.2945  0.0888 -0.3673
12885TIP3    H160146   0.150   3.070  16.108 -0.5700  0.2823 -0.8989
12885TIP3    H260147   0.174   3.197  16.187  0.4928 -0.3569 -0.1785
12886TIP3   OH260148   4.245   4.502   0.690  0.1030 -0.4324  0.1169
12886TIP3    H160149   4.232   4.484   0.783 -1.1783  0.6923  0.1748
12886TIP3    H260150   4.241   4.597   0.683 -0.9106 -0.5471 -1.2203
12887TIP3   OH260151   5.826   4.229   2.987 -0.1195 -0.1560  0.4143
12887TIP3    H160152   5.785   4.313   3.007  1.0458  0.1110  1.8538
12887TIP3    H260153   5.781   4.166   3.044  2.2728  0.3743  3.1053
12888TIP3   OH260154   1.849   0.603   3.389 -0.0741 -0.2296 -0.2717
12888TIP3    H160155   1.934   0.639   3.416 -0.5962  1.9534 -1.2681
12888TIP3    H260156   1.863   0.574   3.299 -0.1340 -0.7936 -0.0983
12889TIP3   OH260157   1.590   4.789  15.773  0.0247 -0.1113  0.0922
12889TIP3    H160158   1.549   4.856  15.827 -2.3848 -0.7505 -0.8261
12889TIP3    H260159   1.559   4.806  15.684  0.2022 -1.7987 -0.3325
12890TIP3   OH260160   3.033   6.514   1.182  0.3049  0.8241 -0.6556
12890TIP3    H160161   3.102   6.453   1.206 -0.0733  1.0491  1.1796
12890TIP3    H260162   3.072   6.601   1.196 -0.7844  0.9726  2.0935
12891TIP3   OH260163   1.459   3.631   1.510 -0.1368 -0.2977 -0.3663
12891TIP3    H160164   1.504   3.660   1.589 -1.0759 -1.2208  0.5355
12891TIP3    H260165   1.518   3.656   1.439  1.0638 -0.0985  0.6570
12892TIP3   OH260166   5.887   3.861   3.855 -0.2956 -0.1855  0.0228
12892TIP3    H160167   5.863   3.953   3.860  2.4399  0.5509  1.4321
12892TIP3    H260168   5.963   3.858   3.797  1.3586 -1.0574  2.0790
12893TIP3   OH260169   4.198   0.672   4.293 -0.7498 -0.2820 -0.5597
12893TIP3    H160170   4.151   0.644   4.372  1.1635 -2.8596 -0.1941
12893TIP3    H260171   4.211   0.591   4.243 -0.5511  1.0560 -2.7826
12894TIP3   OH260172   5.151   2.229   3.507 -0.1145 -0.2528  0.1820
12894TIP3    H160173   5.102   2.300   3.465 -1.0621  0.5611  2.4622
12894TIP3    H260174   5.225   2.213   3.449  0.2784  2.8045 -0.3412
12895TIP3   OH260175   1.371   4.260   2.095  0.5217  0.4936  0.1314
12895TIP3    H160176   1.298   4.200   2.107 -0.1922  1.2858 -0.1098
12895TIP3    H260177   1.449   4.209   2.116 -0.0783 -0.4549  0.0924
12896TIP3   OH260178   1.880   1.694   0.016 -0.2192 -0.2370 -0.1164
12896TIP3    H160179   1.913   1.619   0.066 -0.0475  0.2633  0.5274
12896TIP3    H260180   1.785   1.682   0.016 -0.1156 -1.2161 -1.2415
12897TIP3   OH260181   1.826   0.841   0.864 -0.4067  0.8727  0.4124
12897TIP3    H160182   1.844   0.930   0.833  1.1213  0.0666 -1.2183
12897TIP3    H260183   1.822   0.788   0.784  1.1403 -0.9141  1.4441
12898TIP3   OH260184   2.286   1.438  13.189  0.5626  0.1001  0.1063
12898TIP3    H160185   2.281   1.525  13.149  0.7059 -0.6322 -1.5756
12898TIP3    H260186   2.378   1.428  13.212  0.5247  0.4316  0.4156
12899TIP3   OH260187   1.970   5.141   4.579  0.2400 -0.5176  0.2424
12899TIP3    H160188   1.949   5.169   4.490  0.6662  0.0137  0.3061
12899TIP3    H260189   1.923   5.058   4.589 -0.9277  0.1006  0.0022
12900TIP3   OH260190   2.912   3.149   4.044 -0.0377 -0.1641  0.3419
12900TIP3    H160191   2.983   3.213   4.052 -2.1369  2.0813  2.4553
12900TIP3    H260192   2.886   3.154   3.952  0.3568  1.4781  0.2889
12901TIP3   OH260193   0.404   2.588   3.614  0.1464  0.5136  0.3588
12901TIP3    H160194   0.329   2.647   3.607 -0.8611 -0.8080 -0.4052
12901TIP3    H260195   0.371   2.512   3.661  0.9702 -0.1376 -0.0846
12902TIP3   OH260196   1.234   5.073   2.123  0.0770 -0.2590  0.2194
12902TIP3    H160197   1.214   5.133   2.195  0.5450  0.5693 -0.3246
12902TIP3    H260198   1.245   5.130   2.046  2.4683 -0.8253  0.0578
12903TIP3   OH260199   5.412   0.257   6.018  0.0083  0.3628 -0.4767
12903TIP3    H160200   5.344   0.210   6.067 -0.0042  1.3396  0.4658
12903TIP3    H260201   5.495   0.226   6.054  0.0990 -0.9803 -1.7658
12904TIP3   OH260202   2.147   3.868  14.276 -0.0954 -0.1243 -0.4360
12904TIP3    H160203   2.091   3.803  14.319  1.1946 -1.1783 -0.2710
12904TIP3    H260204   2.226   3.871  14.331  1.4330 -1.2159 -2.4539
12905TIP3   OH260205   6.627   1.712   4.330  0.4097 -0.7050 -0.3110
12905TIP3    H160206   6.592   1.799   4.349 -0.2446 -0.8742 -0.7124
12905TIP3    H260207   6.606   1.660   4.408  1.5359 -0.2938  0.2743
12906TIP3   OH260208   3.091   5.305  12.534  0.0063 -0.4324 -0.3379
12906TIP3    H160209   3.185   5.301  12.552  0.0414  0.1724 -0.3481
12906TIP3    H260210   3.065   5.215  12.516  0.3474 -0.7881  0.8785
12907TIP3   OH260211   1.375   6.010  15.322  0.5225  0.0017  0.1222
12907TIP3    H160212   1.343   5.926  15.355 -0.8363 -0.3412 -1.9028
12907TIP3    H260213   1.381   6.065  15.400 -1.7939 -0.9807  1.0900
12908TIP3   OH260214   4.239   4.075   6.532  0.2730 -0.3985  0.0900
12908TIP3    H160215   4.199   4.154   6.569 -0.5289 -0.5448 -0.4378
12908TIP3    H260216   4.280   4.106   6.451 -2.9250 -1.0460 -1.9375
12909TIP3   OH260217   0.709   1.761   6.073  0.1186  0.1880  0.3195
12909TIP3    H160218   0.710   1.670   6.104 -0.0860  0.8038  2.2862
12909TIP3    H260219   0.780   1.803   6.121  0.0100  1.1480 -0.3352
12910TIP3   OH260220   5.229   2.977   4.882  0.0985 -0.5677 -0.0594
12910TIP3    H160221   5.313   2.976   4.835  1.3885 -0.7525  2.1119
12910TIP3    H260222   5.167   2.938   4.821  2.0588 -2.5176 -0.9281
12911TIP3   OH260223   5.259   0.879   2.599 -0.3332 -0.1896  0.6517
12911TIP3    H160224   5.271   0.972   2.618  0.4806 -0.1292 -0.0815
12911TIP3    H260225   5.245   0.838   2.685 -0.8322  0.6191  0.9667
12912TIP3   OH260226   4.309   3.646   0.703 -0.4059 -0.1704 -0.0363
12912TIP3    H160227   4.272   3.725   0.743 -2.0225 -0.8320 -0.1458
12912TIP3    H260228   4.302   3.580   0.772 -0.6668 -0.6299 -0.5008
12913TIP3   OH260229   3.386   5.037   5.384 -0.1306 -0.2008 -0.4980
12913TIP3    H160230   3.448   4.966   5.401 -2.0719 -1.7479  0.6144
12913TIP3    H260231   3.345   5.053   5.469 -3.6029 -1.6523 -1.7358
12914TIP3   OH260232   6.520   6.819   1.301  0.6057  0.4529 -0.2636
12914TIP3    H160233   6.578   6.851   1.232  0.7058 -2.3482 -1.6487
12914TIP3    H260234   6.463   6.757   1.256 -1.1042  0.4737  1.7431
12915TIP3   OH260235   4.959   2.686   2.458  0.1028 -0.5411 -0.2831
12915TIP3    H160236   5.032   2.624   2.453  1.4528  0.8334  1.2150
12915TIP3    H260237   4.971   2.744   2.384  1.1763  0.2937  0.5113
12916TIP3   OH260238   1.207   1.844   4.159  0.1318  0.1676  0.1396
12916TIP3    H160239   1.249   1.915   4.207  3.5216  0.0373 -2.2140
12916TIP3    H260240   1.160   1.888   4.087  0.1860  0.1408  0.0871
12917TIP3   OH260241   6.622   6.492   3.800 -0.0727 -0.4438  0.6618
12917TIP3    H160242   6.688   6.490   3.869 -1.3404 -0.7268  1.9170
12917TIP3    H260243   6.593   6.401   3.791  2.2909 -1.0351 -2.5488
12918TIP3   OH260244   4.958   5.015  14.516 -0.4862  0.0710 -0.3455
12918TIP3    H160245   5.039   5.067  14.516 -0.1146 -0.4976 -0.4724
12918TIP3    H260246   4.901   5.058  14.579  0.5882 -0.5600  1.0974
12919TIP3   OH260247   2.638   5.732  14.375  0.2254  0.0743 -0.0777
12919TIP3    H160248   2.721   5.777  14.390 -0.7111  3.1356 -2.9071
12919TIP3    H260249   2.663   5.653  14.328  1.6233 -0.1615  0.9617
12920TIP3   OH260250   6.393   2.037   4.729  0.0283 -0.5235 -0.1722
12920TIP3    H160251   6.439   1.960   4.696 -2.4990 -1.4961 -1.7449
12920TIP3    H260252   6.334   2.062   4.658 -0.2516  2.0361  0.8424
12921TIP3   OH260253   2.574   0.585   0.510  0.2436  0.2733 -0.6133
12921TIP3    H160254   2.500   0.628   0.553 -0.7792 -0.4151 -1.6323
12921TIP3    H260255   2.605   0.521   0.573 -1.9022 -1.4652 -1.1713
12922TIP3   OH260256   2.186   4.865   2.351  0.4651  0.0314  0.8100
12922TIP3    H160257   2.168   4.836   2.261 -1.7107 -1.2075  1.5504
12922TIP3    H260258   2.281   4.870   2.357  0.6491  0.8840 -1.7619
12923TIP3   OH260259   5.965   6.206   0.313  0.3829  0.2442 -0.7760
12923TIP3    H160260   6.036   6.218   0.250  1.7362 -1.5569  0.2754
12923TIP3    H260261   5.927   6.122   0.291  0.6493 -0.2506  0.5372
12924TIP3   OH260262   2.141   0.100   3.972 -0.2396  0.4380  0.1170
12924TIP3    H160263   2.192   0.035   4.020 -0.8318  0.3593  0.6556
12924TIP3    H260264   2.204   0.142   3.913  0.8362  1.4365  1.8782
12925TIP3   OH260265   5.947   6.493   1.362  0.3764  0.3328 -0.3684
12925TIP3    H160266   5.973   6.428   1.427 -2.0661 -0.0266  0.3591
12925TIP3    H260267   5.968   6.453   1.277  0.1705 -0.8224  0.1177
12926TIP3   OH260268   3.627   3.201   3.420  0.1703  0.5561  0.4665
12926TIP3    H160269   3.626   3.257   3.343  0.6516 -0.9901 -0.7201
12926TIP3    H260270   3.604   3.259   3.493  1.4206  2.4226 -0.5617
12927TIP3   OH260271   1.919   2.630   2.299 -0.3773  0.1985  0.0051
12927TIP3    H160272   1.949   2.673   2.218 -0.8997  1.0351  0.2462
12927TIP3    H260273   1.829   2.659   2.310 -0.2682  0.2059  0.9675
12928TIP3   OH260274   5.052   0.846  15.737  0.3376  0.3637  0.3266
12928TIP3    H160275   4.969   0.872  15.697  0.0582 -0.2866  0.4669
12928TIP3    H260276   5.058   0.901  15.816  0.4364  0.9786 -0.0985
12929TIP3   OH260277   4.508   6.462   6.677  0.0970 -0.5303 -0.2572
12929TIP3    H160278   4.568   6.428   6.744 -1.6582 -2.2621  0.5553
12929TIP3    H260279   4.481   6.547   6.710 -0.3759 -1.1547  1.0494
12930TIP3   OH260280   2.647   1.534   6.358  0.9138 -0.0460 -0.5236
12930TIP3    H160281   2.563   1.495   6.382  0.1913  0.1297 -2.5510
12930TIP3    H260282   2.673   1.584   6.435 -1.5861  1.1236 -0.3480
12931TIP3   OH260283   5.312   3.306   3.757  0.0698 -0.4094  0.0218
12931TIP3    H160284   5.387   3.365   3.759  2.1400 -2.7441 -2.1859
12931TIP3    H260285   5.347   3.220   3.777 -2.1752 -1.5028 -0.3600
12932TIP3   OH260286   2.478   5.633  13.756  0.3088 -0.5747 -0.6370
12932TIP3    H160287   2.407   5.696  13.768  0.9532 -0.0498  0.6827
12932TIP3    H260288   2.557   5.682  13.779  0.7361 -2.1348  1.5323
12933TIP3   OH260289   0.111   0.378   0.010 -0.1912  0.3176 -0.0020
12933TIP3    H160290   0.110   0.332   0.095 -0.6340 -1.0753 -0.7249
12933TIP3    H260291   0.093   0.469   0.032 -2.1082 -0.2979  1.2576
12934TIP3   OH260292   5.275   6.664   0.648  0.1586 -0.4331 -0.6407
12934TIP3    H160293   5.363   6.645   0.680  0.6850 -2.6149 -3.1336
12934TIP3    H260294   5.289   6.702   0.561 -1.3726 -0.4740 -0.9224
12935TIP3   OH260295   5.328   4.723   5.338  0.6421 -0.0957 -1.0000
12935TIP3    H160296   5.320   4.665   5.413  1.5352  2.8892  1.6514
12935TIP3    H260297   5.422   4.742   5.332  0.3693  1.2093 -1.6160
12936TIP3   OH260298   2.719   0.126  14.709  0.3515 -0.0337  0.7587
12936TIP3    H160299   2.644   0.115  14.768 -0.0493 -0.6739  0.1481
12936TIP3    H260300   2.686   0.100  14.623  1.2086 -0.0902  0.4355
12937TIP3   OH260301   0.480   0.435   6.639 -0.0513 -0.1545  0.3605
12937TIP3    H160302   0.410   0.499   6.623 -0.7866 -1.2443 -1.0296
12937TIP3    H260303   0.527   0.432   6.556 -0.0549 -1.4491  0.3991
12938TIP3   OH260304   4.833   6.285   2.063  0.3177 -0.3127 -0.2199
12938TIP3    H160305   4.748   6.318   2.032  0.0836 -0.1127  0.6075
12938TIP3    H260306   4.810   6.220   2.130  0.8125  0.4512  0.7204
12939TIP3   OH260307   1.301   4.935   3.858  0.7381  0.5620 -0.1612
12939TIP3    H160308   1.392   4.956   3.838  0.4633  0.8483 -1.1670
12939TIP3    H260309   1.256   5.020   3.858  0.2999  0.3370 -0.6063
12940TIP3   OH260310   2.033   5.005  12.799 -0.2420  0.2166 -0.4057
12940TIP3    H160311   2.034   4.925  12.748  1.6262 -1.0811  1.4997
12940TIP3    H260312   1.942   5.015  12.827 -0.0119 -3.4509  2.4176
12941TIP3   OH260313   4.346   2.345   6.045  0.2120 -0.3400 -0.7636
12941TIP3    H160314   4.439   2.359   6.061 -0.0612  0.1778  0.4970
12941TIP3    H260315   4.320   2.420   5.992  0.5330 -0.5399 -1.2064
12942TIP3   OH260316   1.437   5.083  15.179 -0.5845 -0.0664 -0.3150
12942TIP3    H160317   1.397   5.106  15.263 -0.2437 -1.3666  0.2349
12942TIP3    H260318   1.379   5.120  15.114 -0.6073  1.3812  0.4881
12943TIP3   OH260319   2.983   6.259  15.564 -0.2840 -0.3486 -0.8887
12943TIP3    H160320   2.981   6.262  15.659 -0.3017 -1.4057 -0.8454
12943TIP3    H260321   2.891   6.249  15.539 -0.1000 -2.1778 -0.9146
12944TIP3   OH260322   1.096   0.310   5.072 -0.8306  0.3271 -0.1407
12944TIP3    H160323   1.180   0.350   5.093  0.6135 -2.2012 -0.5983
12944TIP3    H260324   1.036   0.339   5.141  0.5011  1.8899  0.4038
12945TIP3   OH260325   6.462   0.819  15.422  0.0687 -1.0877 -0.5431
12945TIP3    H160326   6.408   0.752  15.379 -1.5702 -0.3891  0.3219
12945TIP3    H260327   6.548   0.779  15.430 -0.3778 -2.3644 -1.7434
12946TIP3   OH260328   5.804   5.439  13.379  0.2130  0.4440 -0.1955
12946TIP3    H160329   5.880   5.488  13.349  0.3125 -0.2632 -1.1707
12946TIP3    H260330   5.816   5.351  13.342 -1.4170  0.5015 -0.9637
12947TIP3   OH260331   3.070   0.307   3.851 -0.5086 -0.1967 -0.1601
12947TIP3    H160332   3.019   0.288   3.929 -1.1025 -2.2733 -0.9920
12947TIP3    H260333   3.152   0.258   3.863 -0.2455  0.1507 -0.4899
12948TIP3   OH260334   2.962   6.031   4.621 -0.5705 -0.1770  0.0268
12948TIP3    H160335   2.997   6.058   4.536  0.5153  0.0717  0.5376
12948TIP3    H260336   2.909   5.954   4.602  0.7390 -0.9308 -0.7203
12949TIP3   OH260337   3.109   6.615  13.241  0.3802 -0.0498 -0.1692
12949TIP3    H160338   3.058   6.534  13.247  1.7291 -1.2056 -2.7966
12949TIP3    H260339   3.196   6.592  13.272  0.3559  0.8608  0.6272
12950TIP3   OH260340   4.489   3.067   2.087  0.0969  0.3850  0.0873
12950TIP3    H160341   4.548   3.034   2.019 -3.0846 -3.3488 -1.2258
12950TIP3    H260342   4.454   3.149   2.050  0.7290  0.0263 -1.3681
12951TIP3   OH260343   3.529   2.054  16.566 -0.4292  0.1949  0.2498
12951TIP3    H160344   3.555   2.007  16.646  1.5228 -0.2884 -0.5821
12951TIP3    H260345   3.590   2.127  16.561 -2.0163  1.5725  0.3505
12952TIP3   OH260346   4.775   5.574   3.819 -0.6976 -0.2634  0.2881
12952TIP3    H160347   4.806   5.662   3.796  1.5935 -1.0499  0.1266
12952TIP3    H260348   4.766   5.576   3.914 -1.3968  0.3409  0.2223
12953TIP3   OH260349   4.476   2.505   5.679 -0.1677 -0.4848 -0.2149
12953TIP3    H160350   4.504   2.480   5.767  0.5981 -0.5956 -0.4784
12953TIP3    H260351   4.552   2.551   5.642 -0.5134 -0.3531 -0.7811
12954TIP3   OH260352   5.319   5.820  14.981  0.1451 -0.1742  0.3661
12954TIP3    H160353   5.413   5.804  14.988  0.1576 -0.0577  0.4820
12954TIP3    H260354   5.279   5.737  15.006  0.2262 -0.5965 -0.8378
12955TIP3   OH260355   2.624   3.854   5.986 -0.0695 -0.0585  0.3962
12955TIP3    H160356   2.648   3.784   6.048  0.5331  0.6826  1.0293
12955TIP3    H260357   2.529   3.855   5.987 -0.1301 -1.5489 -0.4096
12956TIP3   OH260358   0.256   4.635   0.541  0.7230  0.1470 -0.0176
12956TIP3    H160359   0.305   4.561   0.576  1.1226  0.0187 -0.8338
12956TIP3    H260360   0.203   4.666   0.615  0.9034 -0.6541  0.4549
12957TIP3   OH260361   6.255   3.632   1.946 -0.1802  0.2708 -0.2911
12957TIP3    H160362   6.302   3.549   1.951  1.0329  0.9425 -0.3203
12957TIP3    H260363   6.232   3.652   2.036  1.0461  0.7389 -0.0633
12958TIP3   OH260364   1.587   0.341  12.526 -0.2320  0.1125 -0.1771
12958TIP3    H160365   1.596   0.418  12.581  0.8863  1.0698 -1.6086
12958TIP3    H260366   1.517   0.290  12.566  1.4262  0.0490  2.8847
12959TIP3   OH260367   5.468   6.086  17.202  0.0903 -0.0024 -0.4520
12959TIP3    H160368   5.485   6.177  17.177 -1.6780  1.0649  1.8243
12959TIP3    H260369   5.388   6.090  17.254  0.2347 -2.8084  0.1452
12960TIP3   OH260370   4.695   0.062   0.999  0.0574  0.2515 -0.4110
12960TIP3    H160371   4.790   0.069   0.990 -0.1673  1.6204 -2.2934
12960TIP3    H260372   4.662   0.065   0.909 -1.8580  1.5601  0.2641
12961TIP3   OH260373   1.667   4.680   6.591  0.0151  0.8533  0.0320
12961TIP3    H160374   1.683   4.774   6.601 -1.0610  0.9474  1.0135
12961TIP3    H260375   1.704   4.640   6.670 -0.1276  0.5192 -0.0670
12962TIP3   OH260376   2.164   4.517  11.145  0.2796  0.0843 -0.2641
12962TIP3    H160377   2.106   4.458  11.096 -0.4757  0.8131 -0.2706
12962TIP3    H260378   2.247   4.470  11.150  0.3913 -0.0351 -2.2700
12963TIP3   OH260379   1.407   6.654  10.827  0.2647  0.0930  0.1793
12963TIP3    H160380   1.344   6.583  10.837  2.3021 -2.0085 -0.7663
12963TIP3    H260381   1.356   6.730  10.799 -1.8057 -1.4890 -0.5257
12964TIP3   OH260382   5.325   5.790  16.424  0.1117 -0.1578 -0.5183
12964TIP3    H160383   5.336   5.859  16.358 -2.5146 -0.8862 -1.8684
12964TIP3    H260384   5.363   5.712  16.385 -0.1603 -0.2666 -0.5699
12965TIP3   OH260385   6.128   3.872   2.510 -0.6328 -0.2744  0.0193
12965TIP3    H160386   6.090   3.925   2.580 -0.0564 -0.3309  0.3764
12965TIP3    H260387   6.216   3.849   2.541 -0.4573 -0.4960 -0.6179
12966TIP3   OH260388   2.162   0.092  13.062  0.1117 -0.0204  0.5714
12966TIP3    H160389   2.068   0.079  13.050  0.5496 -1.6054 -1.8574
12966TIP3    H260390   2.172   0.187  13.073 -1.7435  0.1891  0.7579
12967TIP3   OH260391   6.646   1.761  13.982 -0.9015  1.1330  0.5691
12967TIP3    H160392   6.669   1.832  13.922 -0.2637 -0.4007 -1.0601
12967TIP3    H260393   6.728   1.743  14.030  0.3179 -1.3692 -2.1428
12968TIP3   OH260394   6.092   0.880  16.104 -0.5777  0.0238 -0.8115
12968TIP3    H160395   6.041   0.817  16.154 -2.7517  2.2860  0.0582
12968TIP3    H260396   6.093   0.846  16.015 -1.1255 -1.5034 -0.2579
12969TIP3   OH260397   4.760   3.239   2.583 -0.1101  0.0885 -0.2051
12969TIP3    H160398   4.830   3.174   2.580  0.3958  0.6575 -1.1357
12969TIP3    H260399   4.769   3.288   2.502 -1.7487  0.0313 -0.4464
12970TIP3   OH260400   6.185   3.828   0.533  0.7042 -0.2515  0.4282
12970TIP3    H160401   6.101   3.834   0.578  0.5072  0.3142 -0.0015
12970TIP3    H260402   6.236   3.901   0.566  0.2115  0.7630 -0.9367
12971TIP3   OH260403   3.507   3.380   4.632 -0.3018 -0.7150 -0.0495
12971TIP3    H160404   3.475   3.306   4.684 -1.4932 -0.2812 -0.1305
12971TIP3    H260405   3.571   3.423   4.688 -0.9458 -0.7448  0.7276
12972TIP3   OH260406   6.510   6.685  12.109  0.0347  0.3581  0.6327
12972TIP3    H160407   6.446   6.743  12.067  1.1783  0.6943 -0.7301
12972TIP3    H260408   6.458   6.630  12.167 -1.5548  0.3855 -0.6878
12973TIP3   OH260409   0.709   6.360   5.695 -0.1139 -1.1506 -0.4172
12973TIP3    H160410   0.659   6.326   5.621  0.9416 -1.8758 -0.8355
12973TIP3    H260411   0.791   6.390   5.657 -0.5336  0.8323  0.1241
12974TIP3   OH260412   3.460   5.061  11.806 -0.3077 -0.5050  0.1577
12974TIP3    H160413   3.444   4.985  11.751 -0.8331 -1.2648  1.3181
12974TIP3    H260414   3.452   5.136  11.746  0.6497 -1.3570 -1.0876
12975TIP3   OH260415   5.621   4.163  16.282  0.3834 -0.0178 -0.0062
12975TIP3    H160416   5.614   4.258  16.290  3.1282  0.1793  1.5734
12975TIP3    H260417   5.631   4.133  16.372  0.7130 -1.6824 -0.5703
12976TIP3   OH260418   1.542   1.832   6.338 -0.1063  0.3815  0.0552
12976TIP3    H160419   1.595   1.869   6.268 -1.1615  0.8803 -0.5119
12976TIP3    H260420   1.452   1.837   6.305 -0.6233  0.5940  1.4214
12977TIP3   OH260421   0.682   5.679  12.990 -0.1792  0.3115  0.0369
12977TIP3    H160422   0.635   5.739  13.049  1.0998  1.7065 -0.3017
12977TIP3    H260423   0.659   5.709  12.902 -0.9435 -0.8620 -0.1860
12978TIP3   OH260424   4.961   5.785   4.284 -0.0295  0.0509 -0.7745
12978TIP3    H160425   4.956   5.837   4.365 -0.8917 -0.1552 -0.6844
12978TIP3    H260426   4.932   5.698   4.311  3.1924 -1.0690 -0.4727
12979TIP3   OH260427   5.786   5.482  12.612  0.6807  0.2943 -0.4637
12979TIP3    H160428   5.809   5.409  12.669  1.5770  1.2290  0.4276
12979TIP3    H260429   5.721   5.447  12.552  2.5117 -1.7734 -1.3596
12980TIP3   OH260430   4.328   2.761   2.978  0.1209 -0.4399  0.2550
12980TIP3    H160431   4.269   2.702   3.025 -0.1155  0.6142  1.3234
12980TIP3    H260432   4.361   2.821   3.044  0.3260  0.6634 -0.8060
12981TIP3   OH260433   3.432   4.219  12.012  0.1921  0.1707 -0.1756
12981TIP3    H160434   3.432   4.263  11.927  0.0721  0.7339  0.1127
12981TIP3    H260435   3.407   4.128  11.992  0.7189  0.1582 -0.8042
12982TIP3   OH260436   6.112   2.112  16.047  0.0154 -0.3602 -0.0491
12982TIP3    H160437   6.054   2.050  16.003 -0.1135  0.4641 -1.0749
12982TIP3    H260438   6.070   2.197  16.035  0.6990  0.0638  0.4678
12983TIP3   OH260439   0.856   4.372  12.154 -0.0314  0.3590 -0.1065
12983TIP3    H160440   0.918   4.329  12.212 -2.5478  1.0562  3.4432
12983TIP3    H260441   0.864   4.465  12.175 -0.1283  0.8180 -1.9025
12984TIP3   OH260442   1.674   1.828   2.392  0.0313 -0.2981 -0.1533
12984TIP3    H160443   1.592   1.835   2.441  1.5787 -1.1547  2.7450
12984TIP3    H260444   1.734   1.889   2.436  1.0107  0.3960 -2.2740
12985TIP3   OH260445   6.390   3.236   1.399 -0.1664 -0.3094 -0.3934
12985TIP3    H160446   6.310   3.203   1.439 -0.1707 -0.6727 -0.7046
12985TIP3    H260447   6.360   3.294   1.329 -0.1534 -0.2062 -0.3155
12986TIP3   OH260448   2.560   3.036   2.102 -0.3702  0.4714 -0.3304
12986TIP3    H160449   2.471   3.072   2.103 -0.1106  1.1341  0.7656
12986TIP3    H260450   2.547   2.942   2.091 -1.0879  0.7600 -2.4916
12987TIP3   OH260451   6.066   2.554  16.772 -0.5705 -0.2145 -0.1168
12987TIP3    H160452   6.041   2.608  16.697 -1.4328 -1.4187 -0.7288
12987TIP3    H260453   5.985   2.508  16.796 -0.1502 -0.3061  1.1655
12988TIP3   OH260454   5.040   3.675  13.034  0.5233 -0.0978 -0.2084
12988TIP3    H160455   5.069   3.750  12.981 -0.6763 -0.0159 -0.7748
12988TIP3    H260456   5.069   3.697  13.123  1.2432  0.4650 -0.5632
12989TIP3   OH260457   6.676   4.494  12.457  0.6170 -0.5255  0.7489
12989TIP3    H160458   6.678   4.490  12.361  0.1297 -0.2315  0.7234
12989TIP3    H260459   6.765   4.517  12.482  0.3461  1.2710  0.2584
12990TIP3   OH260460   5.254   5.945   3.237 -0.1310 -0.1530 -0.6458
12990TIP3    H160461   5.228   6.025   3.189 -0.6289  0.1518  0.1200
12990TIP3    H260462   5.224   5.874   3.181  0.3504  0.1865 -1.3610
12991TIP3   OH260463   0.114   4.343   1.695 -0.3722  0.8641  0.2069
12991TIP3    H160464   0.189   4.388   1.733  0.3429 -0.8034  0.8875
12991TIP3    H260465   0.043   4.358   1.758  0.0253  0.5577  0.7425
12992TIP3   OH260466   5.735   0.526   4.177  0.2263  0.1550 -0.3906
12992TIP3    H160467   5.753   0.600   4.236 -1.6459 -0.3205  0.8907
12992TIP3    H260468   5.768   0.450   4.223 -0.3809 -0.1083 -0.3777
12993TIP3   OH260469   0.904   3.382  16.636 -0.3366 -0.2246  0.1247
12993TIP3    H160470   0.888   3.450  16.570  0.2345 -0.8063 -0.6388
12993TIP3    H260471   0.999   3.370  16.635 -0.0061  1.4335  2.7816
12994TIP3   OH260472   4.775   6.566  11.737 -0.3392  0.0457 -0.4806
12994TIP3    H160473   4.741   6.543  11.824  1.4602 -1.7431 -0.1956
12994TIP3    H260474   4.870   6.563  11.746 -0.0945 -1.1646 -2.7470
12995TIP3   OH260475   4.180   3.842   0.857  0.1266  0.7805 -0.0871
12995TIP3    H160476   4.137   3.873   0.778 -0.5970  1.1342  0.4433
12995TIP3    H260477   4.226   3.918   0.891  1.5103  0.3253 -0.8431
12996TIP3   OH260478   1.198   0.055  10.958 -0.2646 -0.1689  0.1244
12996TIP3    H160479   1.237   0.085  11.039  1.8548 -1.8765 -0.1804
12996TIP3    H260480   1.122   0.003  10.986 -0.1731  0.1194  0.9326
12997TIP3   OH260481   1.385   6.079   0.114  0.0539 -0.6843  0.3487
12997TIP3    H160482   1.335   6.013   0.161 -0.6118 -0.8139 -0.5267
12997TIP3    H260483   1.328   6.156   0.114  0.5194 -0.3308  0.7129
12998TIP3   OH260484   6.498   3.188  15.337  0.1085  0.3176  0.4063
12998TIP3    H160485   6.523   3.276  15.365 -2.8460  1.3766  0.0514
12998TIP3    H260486   6.403   3.193  15.324 -0.1733 -2.9585  0.4171
12999TIP3   OH260487   5.504   4.677   1.546  0.2397  0.1170 -0.0717
12999TIP3    H160488   5.464   4.625   1.476  0.6617 -0.1923 -0.0824
12999TIP3    H260489   5.438   4.744   1.566 -0.6340 -0.8816  0.4844
13000TIP3   OH260490   2.846   1.706   2.928 -0.5877  0.7853  0.2307
13000TIP3    H160491   2.914   1.773   2.942 -0.2247  0.3946  0.3724
13000TIP3    H260492   2.882   1.627   2.969  0.2879 -0.2988 -2.3857
13001TIP3   OH260493   4.675   1.783  11.121  0.5471 -0.1314 -0.0337
13001TIP3    H160494   4.615   1.770  11.048  1.4285  2.6412 -1.3782
13001TIP3    H260495   4.758   1.745  11.091  0.5452 -0.2517  0.1128
13002TIP3   OH260496   5.102   6.075  16.175  0.1309  0.3403  0.2135
13002TIP3    H160497   5.163   6.048  16.106 -1.4160 -0.0512 -1.0667
13002TIP3    H260498   5.127   6.164  16.197 -0.0101  0.8741 -1.6756
13003TIP3   OH260499   0.986   2.521   0.514 -0.2848  0.4712  0.1388
13003TIP3    H160500   1.039   2.597   0.539 -0.0399  0.1851  0.5077
13003TIP3    H260501   0.938   2.498   0.594 -1.1854  0.8991 -0.2730
13004TIP3   OH260502   2.178   1.869  16.244 -0.0568  0.2868  0.4373
13004TIP3    H160503   2.225   1.941  16.285  0.1033  0.5042 -0.1315
13004TIP3    H260504   2.139   1.821  16.318  1.3205 -0.0989  0.9416
13005TIP3   OH260505   5.397   4.784   0.802 -0.1286  0.1295  0.1262
13005TIP3    H160506   5.450   4.859   0.775  0.8303 -0.7941 -0.6026
13005TIP3    H260507   5.327   4.780   0.738  0.0502  0.1535 -0.0702
13006TIP3   OH260508   5.223   0.605  11.223 -0.2248  0.5583 -0.1792
13006TIP3    H160509   5.262   0.563  11.147  0.7830 -0.1093  0.6778
13006TIP3    H260510   5.203   0.533  11.283 -0.2795  1.1307  0.5073
13007TIP3   OH260511   2.724   6.695  15.887 -0.0893 -0.3625  0.0591
13007TIP3    H160512   2.704   6.673  15.978 -0.1245 -0.0657  0.1267
13007TIP3    H260513   2.664   6.641  15.835 -1.8691  1.2641  0.2787
13008TIP3   OH260514   4.774   5.593   4.109  0.2728 -0.2202  0.0405
13008TIP3    H160515   4.833   5.660   4.075  1.2674 -1.1912 -0.1750
13008TIP3    H260516   4.807   5.573   4.196 -1.2614  1.0263  0.9808
13009TIP3   OH260517   4.859   4.737   0.297  0.3776  0.2887  0.0844
13009TIP3    H160518   4.849   4.832   0.304 -0.2641  0.2250  0.0575
13009TIP3    H260519   4.772   4.705   0.274  0.4190 -0.3735  0.8067
13010TIP3   OH260520   3.779   6.611  15.201 -0.2896 -0.8370 -0.4402
13010TIP3    H160521   3.833   6.632  15.277 -3.0918 -0.3111  1.5537
13010TIP3    H260522   3.840   6.611  15.127  2.4581 -0.7739  1.6807
13011TIP3   OH260523   2.304   6.099  14.099 -0.2816  0.2137 -0.1190
13011TIP3    H160524   2.359   6.028  14.131  0.1980  0.7042  0.1642
13011TIP3    H260525   2.261   6.063  14.021 -0.0073 -0.3670 -0.0083
13012TIP3   OH260526   6.756   6.562  16.444 -0.3122 -0.2118  0.4600
13012TIP3    H160527   6.756   6.469  16.468  0.5793 -0.3422  0.0034
13012TIP3    H260528   6.842   6.577  16.405 -0.0697  1.0487  1.4217
13013TIP3   OH260529   3.102   2.323  10.296  0.0943  0.5550  0.4128
13013TIP3    H160530   3.142   2.243  10.330  1.3726  1.2377  0.5699
13013TIP3    H260531   3.091   2.379  10.373 -2.5930 -0.1548  0.6378
13014TIP3   OH260532   4.979   2.644   0.364 -0.1514  0.6696  0.8599
13014TIP3    H160533   5.032   2.572   0.330  0.9708  0.2529  3.3054
13014TIP3    H260534   4.889   2.621   0.341  0.1331 -1.7311  1.9057
13015TIP3   OH260535   4.541   5.443   2.117 -0.5115 -0.6747 -0.7725
13015TIP3    H160536   4.525   5.409   2.028 -0.4077 -2.0966 -0.2653
13015TIP3    H260537   4.456   5.434   2.161 -0.0737 -1.8785 -0.1315
13016TIP3   OH260538   5.989   3.723  10.471  0.1727  0.1311 -0.4629
13016TIP3    H160539   5.967   3.774  10.393 -0.0140 -1.0076 -1.1699
13016TIP3    H260540   5.906   3.684  10.499  0.2395  0.5171  0.3124
13017TIP3   OH260541   5.264   1.640  16.967  0.1137  0.6622  0.0847
13017TIP3    H160542   5.228   1.571  16.911  0.0296 -0.5128  1.5261
13017TIP3    H260543   5.199   1.710  16.964 -0.9531 -0.2785  0.4200
13018TIP3   OH260544   0.956   5.456   4.858 -0.0416  0.1322 -0.1197
13018TIP3    H160545   1.046   5.426   4.842  0.1439  0.3115  0.5628
13018TIP3    H260546   0.915   5.457   4.771  1.1178  1.7044 -0.6882
13019TIP3   OH260547   3.867   1.851  15.524 -0.1628 -0.3486  0.2425
13019TIP3    H160548   3.775   1.837  15.546 -0.6762  1.4486 -0.5836
13019TIP3    H260549   3.894   1.925  15.578  0.3946 -0.0031 -0.4938
13020TIP3   OH260550   5.388   6.370  15.364  0.3496 -0.1386  0.2865
13020TIP3    H160551   5.332   6.407  15.295  1.0004 -0.0638 -0.2217
13020TIP3    H260552   5.334   6.303  15.406 -0.8993  1.4301  1.2965
13021TIP3   OH260553   6.117   5.639   3.592  0.0369 -0.1918 -0.5281
13021TIP3    H160554   6.208   5.634   3.623 -0.6559 -3.7317  1.4845
13021TIP3    H260555   6.083   5.720   3.629  2.0800  0.6812 -0.4434
13022TIP3   OH260556   3.900   0.175   3.135  0.3506 -0.0172 -0.0131
13022TIP3    H160557   3.970   0.172   3.069 -0.6710 -1.4195 -1.1207
13022TIP3    H260558   3.853   0.256   3.117 -0.4774 -0.8063 -1.7016
13023TIP3   OH260559   0.303   0.127  15.106  0.1958 -0.0210 -0.3081
13023TIP3    H160560   0.239   0.064  15.073 -0.7241 -0.3023  1.8428
13023TIP3    H260561   0.257   0.174  15.175  1.5697  1.5035 -0.3728
13024TIP3   OH260562   3.033   0.191   6.366  0.2381  0.0443 -0.3088
13024TIP3    H160563   3.015   0.228   6.452 -0.4061 -0.3140 -0.2828
13024TIP3    H260564   3.045   0.097   6.382 -0.0634 -0.0512 -0.6268
13025TIP3   OH260565   1.754   6.214  11.606 -0.1120 -0.0907 -0.3837
13025TIP3    H160566   1.747   6.307  11.584  1.8792  0.6403  1.6449
13025TIP3    H260567   1.817   6.179  11.543 -1.9293 -0.5055 -2.0840
13026TIP3   OH260568   1.404   4.826  16.127 -0.6522 -0.7215  0.4741
13026TIP3    H160569   1.393   4.846  16.034 -1.3286 -2.8236  0.0648
13026TIP3    H260570   1.426   4.910  16.167 -0.4364  0.2388 -1.5639
13027TIP3   OH260571   0.353   5.850  11.338 -0.1081  0.3461  0.1355
13027TIP3    H160572   0.363   5.841  11.433  0.9709  0.2620  0.0269
13027TIP3    H260573   0.270   5.807  11.318 -0.8958  1.3385  1.1822
13028TIP3   OH260574   1.629   3.788   3.734  0.5525 -0.6534  0.6260
13028TIP3    H160575   1.646   3.874   3.694  1.0274 -0.7053  0.7099
13028TIP3    H260576   1.705   3.772   3.789 -1.2487  0.6360  3.7464
13029TIP3   OH260577   3.741   3.176  15.353 -0.0971 -0.0939  0.0786
13029TIP3    H160578   3.714   3.195  15.264  0.5149  0.5342  0.0238
13029TIP3    H260579   3.664   3.198  15.407  0.8168  3.5674  0.1419
13030TIP3   OH260580   1.291   3.995   1.687 -0.3960 -0.2269 -0.3442
13030TIP3    H160581   1.302   4.077   1.735 -0.6511 -0.7649  0.6456
13030TIP3    H260582   1.327   4.014   1.600  2.7422 -0.0334  0.8378
13031TIP3   OH260583   5.602   1.073  14.806 -0.0104  0.1651 -0.3313
13031TIP3    H160584   5.528   1.013  14.809 -0.6277  0.9307  1.6488
13031TIP3    H260585   5.565   1.154  14.771 -0.5731  1.0172  2.0189
13032TIP3   OH260586   5.471   5.292  17.143  0.3823 -0.0295  0.5351
13032TIP3    H160587   5.552   5.268  17.188  0.2075 -0.2484  0.7353
13032TIP3    H260588   5.457   5.222  17.080 -0.2400 -0.5850  1.2617
13033TIP3   OH260589   3.609   1.780   0.514 -0.4050  0.5044  0.3957
13033TIP3    H160590   3.521   1.755   0.542 -0.4156 -0.9560 -0.7873
13033TIP3    H260591   3.596   1.855   0.457 -1.0874 -0.6892 -1.0757
13034TIP3   OH260592   0.333   3.542   0.926  0.1464  0.0099 -0.2591
13034TIP3    H160593   0.327   3.627   0.969  1.2802  0.1300 -0.3121
13034TIP3    H260594   0.256   3.494   0.957 -0.3198  0.9245  0.0379
13035TIP3   OH260595   5.768   0.406   3.291 -0.4256 -0.2568  0.5914
13035TIP3    H160596   5.824   0.329   3.299  0.4136  0.3916  1.1929
13035TIP3    H260597   5.734   0.421   3.379  0.2638  0.6640  0.7194
13036TIP3   OH260598   3.098   5.933  11.225  0.2584 -0.0412 -0.2463
13036TIP3    H160599   3.063   5.883  11.151 -1.0428  0.2611  0.1495
13036TIP3    H260600   3.097   6.024  11.196 -2.5427  0.3906  0.9399
13037TIP3   OH260601   4.906   1.471   5.015 -0.2987 -0.5041 -0.1514
13037TIP3    H160602   4.991   1.434   4.991  0.1300  0.2658  0.1377
13037TIP3    H260603   4.912   1.563   4.990 -1.8404 -0.8702 -2.1236
13038TIP3   OH260604   1.985   0.397  14.126 -0.3839 -0.1734  0.5539
13038TIP3    H160605   1.938   0.461  14.180 -0.7452 -0.4930  0.6217
13038TIP3    H260606   2.005   0.325  14.186 -1.0736 -0.6788  0.1967
13039TIP3   OH260607   0.217   1.961   2.540 -0.2606  0.1757 -0.0548
13039TIP3    H160608   0.186   1.997   2.623  0.6025 -0.6186  0.6396
13039TIP3    H260609   0.305   2.000   2.529 -0.8830  1.3290 -1.2950
13040TIP3   OH260610   6.105   2.155  16.858 -0.3834 -0.1543 -0.2496
13040TIP3    H160611   6.132   2.181  16.946  0.0807 -1.8947  0.1601
13040TIP3    H260612   6.146   2.219  16.800 -1.2173  1.3974  0.8055
13041TIP3   OH260613   6.036   0.542  10.815  0.0465  0.2405 -0.5375
13041TIP3    H160614   6.005   0.452  10.820 -0.3100  0.4258  1.0751
13041TIP3    H260615   6.129   0.535  10.795 -0.2913 -0.4205 -1.9925
13042TIP3   OH260616   4.861   4.747   1.792  0.1574  0.0311 -0.4206
13042TIP3    H160617   4.815   4.671   1.756 -0.8370  0.0971  0.6374
13042TIP3    H260618   4.846   4.741   1.886 -0.0661  1.6302 -0.3305
13043TIP3   OH260619   0.935   5.222   3.262 -0.4759 -0.4973 -0.4287
13043TIP3    H160620   0.864   5.276   3.228  0.0133  1.2238  1.1587
13043TIP3    H260621   0.912   5.206   3.353  1.8305  1.3885  0.5794
13044TIP3   OH260622   1.360   3.444   5.366  0.1892  0.5083  0.1531
13044TIP3    H160623   1.292   3.377   5.354  0.7902 -0.0762 -0.0692
13044TIP3    H260624   1.398   3.425   5.451  1.2060 -0.2284 -0.4459
13045TIP3   OH260625   5.343   6.148  15.738  0.3147  0.7056  0.3500
13045TIP3    H160626   5.321   6.241  15.729 -0.5400  0.3684 -1.4872
13045TIP3    H260627   5.333   6.113  15.649 -2.0461 -1.7122  1.4388
13046TIP3   OH260628   0.726   5.439  12.270 -0.1090 -0.3647  0.0220
13046TIP3    H160629   0.797   5.392  12.225 -0.9279 -1.5501 -0.0720
13046TIP3    H260630   0.676   5.479  12.200  2.2233  3.2910  0.1564
13047TIP3   OH260631   0.891   4.775   5.862  0.5639  0.3227 -0.2278
13047TIP3    H160632   0.922   4.829   5.935  2.4832  1.9173 -2.0790
13047TIP3    H260633   0.851   4.699   5.904  1.8017  1.0123  2.4578
13048TIP3   OH260634   0.908   6.241   4.176  0.2648  0.3480  0.6179
13048TIP3    H160635   0.881   6.316   4.229  0.5171  0.4356  0.6250
13048TIP3    H260636   0.826   6.204   4.143  0.1422  0.6833  0.5368
13049TIP3   OH260637   4.603   0.056   1.389 -0.3435 -0.0147 -0.2760
13049TIP3    H160638   4.515   0.048   1.352 -0.5555 -1.7688  0.5116
13049TIP3    H260639   4.660   0.009   1.327 -0.3320 -0.8421  0.3369
13050TIP3   OH260640   1.618   6.769   3.160 -0.4217  0.0675 -0.4396
13050TIP3    H160641   1.700   6.740   3.118 -0.7405 -0.3627 -0.7746
13050TIP3    H260642   1.566   6.689   3.167 -1.1469  0.4829 -0.9915
13051TIP3   OH260643   2.764   1.377  13.169  0.5314 -0.5255 -0.3458
13051TIP3    H160644   2.859   1.378  13.156  0.8051 -0.6639  1.4030
13051TIP3    H260645   2.747   1.296  13.216 -0.3053  0.0355  0.3462
13052TIP3   OH260646   3.973   4.673  15.668  0.0545  0.2594 -0.0303
13052TIP3    H160647   4.062   4.698  15.643 -0.3188  0.8794 -0.7592
13052TIP3    H260648   3.973   4.677  15.764  1.3287 -1.5507  0.1123
13053TIP3   OH260649   0.907   4.153  12.557  0.3531 -0.5434  0.0108
13053TIP3    H160650   0.967   4.200  12.500 -0.5760  0.7238  0.0524
13053TIP3    H260651   0.904   4.205  12.637  0.0725 -1.2067  0.4402
13054TIP3   OH260652   3.285   4.037   0.296  0.1671 -0.3170  0.5248
13054TIP3    H160653   3.254   4.093   0.367 -1.0622 -0.6971  0.3060
13054TIP3    H260654   3.208   4.022   0.241  1.0868 -0.0317 -0.9045
13055TIP3   OH260655   5.025   5.854  16.346 -0.6668  0.0623  0.1734
13055TIP3    H160656   5.022   5.877  16.439  0.7308  0.7283  0.0886
13055TIP3    H260657   5.068   5.929  16.305  2.2718 -1.7934 -0.4295
13056TIP3   OH260658   6.684   2.289   4.936 -0.4777 -0.4678 -0.0903
13056TIP3    H160659   6.590   2.300   4.925 -0.7284 -1.3998  0.9014
13056TIP3    H260660   6.724   2.358   4.883 -1.6834 -0.8872 -1.6043
13057TIP3   OH260661   1.119   5.349   4.007 -0.3419 -0.0245  0.1559
13057TIP3    H160662   1.080   5.373   4.091  0.6552  0.9339  0.3693
13057TIP3    H260663   1.071   5.401   3.943  1.0055  1.7366  0.4940
13058TIP3   OH260664   5.086   1.521   5.395  0.8253  0.3769  0.1806
13058TIP3    H160665   5.141   1.566   5.459  0.6741 -0.5622  0.9981
13058TIP3    H260666   5.142   1.510   5.318  0.6179  2.6546 -0.3789
13059TIP3   OH260667   3.698   2.625  14.929  0.1635 -0.3021  0.3405
13059TIP3    H160668   3.676   2.674  15.008  1.8212  0.1421  0.5514
13059TIP3    H260669   3.744   2.547  14.961  0.8422 -0.1187 -0.1787
13060TIP3   OH260670   3.689   6.596  13.064 -0.3376 -0.1114 -0.6164
13060TIP3    H160671   3.626   6.667  13.060  1.4300  1.6220  0.3905
13060TIP3    H260672   3.772   6.635  13.037  0.9519 -1.4407  1.1140
13061TIP3   OH260673   1.259   1.765  12.570 -0.5025  0.0742  0.2741
13061TIP3    H160674   1.246   1.671  12.586 -2.3012  0.4039  1.0085
13061TIP3    H260675   1.346   1.770  12.531 -0.5318 -1.9419 -0.1986
13062TIP3   OH260676   0.440   5.223   0.802 -0.1985 -0.0237  0.0917
13062TIP3    H160677   0.414   5.235   0.893 -0.3208  1.1820 -0.0805
13062TIP3    H260678   0.464   5.131   0.795  0.3270 -0.0061  1.4687
13063TIP3   OH260679   5.541   3.651   0.874  0.2247 -0.1720  0.4424
13063TIP3    H160680   5.458   3.653   0.921  0.0813 -0.7491  0.2194
13063TIP3    H260681   5.552   3.559   0.848 -0.4482  0.3544 -1.9798
13064TIP3   OH260682   4.507   4.505   0.552 -0.2825 -0.3337 -0.1425
13064TIP3    H160683   4.490   4.517   0.459  2.5976 -0.2488 -0.7591
13064TIP3    H260684   4.420   4.496   0.592 -1.9939  4.5269 -2.0444
13065TIP3   OH260685   1.984   5.966   0.098 -0.8135 -0.1065  0.0440
13065TIP3    H160686   2.016   5.918   0.022  0.7382  1.2583 -0.2146
13065TIP3    H260687   1.996   6.058   0.075 -2.9777  0.4216  0.8341
13066TIP3   OH260688   0.541   5.770   4.363  0.4058 -0.3364  0.2911
13066TIP3    H160689   0.488   5.731   4.294  0.7408 -1.9499  0.8882
13066TIP3    H260690   0.629   5.777   4.326 -0.2245  2.9452 -0.9299
13067TIP3   OH260691   0.895   6.327  16.531  0.2174  0.4992  0.0404
13067TIP3    H160692   0.838   6.265  16.578  1.4310 -0.6882 -0.0107
13067TIP3    H260693   0.950   6.364  16.600  1.1602 -0.3249 -0.2552
13068TIP3   OH260694   3.049   5.546   1.770 -0.1543  0.1367  0.5552
13068TIP3    H160695   3.060   5.641   1.775 -1.8383  0.4935 -1.3255
13068TIP3    H260696   3.039   5.528   1.676  1.2787 -2.0693  0.7494
13069TIP3   OH260697   6.503   5.187  11.712  0.0211 -0.3377  0.2726
13069TIP3    H160698   6.523   5.230  11.630 -0.0543 -1.2894 -0.2649
13069TIP3    H260699   6.544   5.241  11.779 -1.1002  1.2244 -0.2513
13070TIP3   OH260700   0.544   3.199  13.049  0.1556 -0.1437  0.6986
13070TIP3    H160701   0.620   3.141  13.054  0.7463  0.3772 -1.3618
13070TIP3    H260702   0.582   3.285  13.030 -0.9794 -0.1853 -2.1844
13071TIP3   OH260703   0.971   4.651  15.977 -0.0881 -0.1297 -0.1499
13071TIP3    H160704   1.018   4.652  16.060  0.1268 -1.0828 -0.2473
13071TIP3    H260705   1.012   4.720  15.925  1.2862 -0.9922 -0.2637
13072TIP3   OH260706   0.395   1.264   0.105 -0.5174  0.1580 -0.3328
13072TIP3    H160707   0.443   1.339   0.140  0.8619 -0.9833  0.3672
13072TIP3    H260708   0.334   1.240   0.174 -1.0080  0.6429 -0.5840
13073TIP3   OH260709   6.092   0.611  16.182 -0.0807 -0.3353  0.4841
13073TIP3    H160710   6.011   0.565  16.160 -0.6458  0.3957  0.9712
13073TIP3    H260711   6.147   0.602  16.104 -0.0132 -2.1421  0.7030
13074TIP3   OH260712   6.740   6.057   1.333  0.4717 -0.0180  0.2862
13074TIP3    H160713   6.829   6.060   1.368  0.8505  0.7113 -0.6834
13074TIP3    H260714   6.733   5.971   1.291 -0.2189 -1.1869  2.6305
13075TIP3   OH260715   1.849   6.129  12.561  0.1116 -0.1501  1.1152
13075TIP3    H160716   1.812   6.041  12.553  0.7010 -0.2333 -3.3515
13075TIP3    H260717   1.944   6.116  12.562  0.2246  0.4116 -0.3725
13076TIP3   OH260718   5.032   4.084  13.214  0.0127 -0.0020 -0.2121
13076TIP3    H160719   4.989   4.046  13.137 -0.1639 -0.3631  0.0618
13076TIP3    H260720   5.097   4.144  13.178 -0.5840  0.4052 -0.6416
13077TIP3   OH260721   3.975   2.893   0.516  0.1878  0.3759  0.1142
13077TIP3    H160722   3.994   2.806   0.480 -1.3309  0.1375 -0.1930
13077TIP3    H260723   4.015   2.953   0.454 -2.1464 -0.0401 -1.9546
13078TIP3   OH260724   4.465   5.816   5.399  0.2930  0.7458 -0.0120
13078TIP3    H160725   4.455   5.854   5.312 -1.5883 -0.1488 -0.2329
13078TIP3    H260726   4.464   5.722   5.385  0.4215  0.5887  0.9397
13079TIP3   OH260727   2.269   3.222   0.496  0.1179  0.2158 -0.1954
13079TIP3    H160728   2.289   3.288   0.430  0.5556 -0.7274 -1.0241
13079TIP3    H260729   2.266   3.272   0.578  0.2800  1.2897 -0.8123
13080TIP3   OH260730   6.628   1.672  11.774  0.1139  0.0457  0.3900
13080TIP3    H160731   6.674   1.623  11.841 -1.7148 -0.3073  1.4556
13080TIP3    H260732   6.596   1.751  11.819  0.4257  0.7251 -0.5427
13081TIP3   OH260733   1.100   2.382   1.948  0.4220 -0.4293 -0.3522
13081TIP3    H160734   1.180   2.335   1.924  2.2325  2.8682 -1.4311
13081TIP3    H260735   1.074   2.426   1.867 -0.4662  1.2811  0.8137
13082TIP3   OH260736   0.769   2.025   4.412 -0.2049  0.3330 -0.4739
13082TIP3    H160737   0.744   2.117   4.420  0.8869  0.5033  1.8499
13082TIP3    H260738   0.698   1.977   4.453  0.3466  0.3589  0.5469
13083TIP3   OH260739   5.217   1.249  13.966  0.6990 -0.2404 -0.1500
13083TIP3    H160740   5.289   1.255  14.030 -1.1436  0.0226  2.0097
13083TIP3    H260741   5.149   1.200  14.011 -1.3401  1.3779 -1.3008
13084TIP3   OH260742   0.519   5.481   5.535  0.0229  0.1070  0.3027
13084TIP3    H160743   0.554   5.425   5.604  0.9986  1.8858  1.3504
13084TIP3    H260744   0.442   5.522   5.574  1.0109  1.7086  0.7206
13085TIP3   OH260745   0.692   0.180  12.228  0.0263 -0.2918  0.0918
13085TIP3    H160746   0.634   0.229  12.170 -0.3037  0.2949  0.8985
13085TIP3    H260747   0.778   0.222  12.216  0.4909 -1.6050 -1.6254
13086TIP3   OH260748   5.322   3.437  14.901 -0.8041  0.6834  0.1820
13086TIP3    H160749   5.410   3.449  14.937 -0.9871 -1.4845  1.4954
13086TIP3    H260750   5.264   3.472  14.968 -1.0155  0.5837  0.0490
13087TIP3   OH260751   4.226   0.543   0.706  0.0739 -0.2866  0.6849
13087TIP3    H160752   4.293   0.556   0.639 -0.4415 -0.1852  0.1798
13087TIP3    H260753   4.177   0.467   0.677 -1.6869  1.1564 -0.3875
13088TIP3   OH260754   2.347   0.437   5.838 -0.3379 -0.3391  0.0551
13088TIP3    H160755   2.253   0.446   5.825 -0.3067  2.4499  1.0278
13088TIP3    H260756   2.363   0.473   5.926  1.4487 -2.4958  0.7218
13089TIP3   OH260757   5.849   0.266  13.976  0.3014 -0.2443  0.1897
13089TIP3    H160758   5.856   0.332  13.907 -0.2079  0.5636  0.8903
13089TIP3    H260759   5.788   0.201  13.941 -2.8636  1.9417  1.1846
13090TIP3   OH260760   3.077   1.699   1.661 -0.6188  0.1601  0.3176
13090TIP3    H160761   3.134   1.641   1.610 -0.9448  0.1906 -0.0811
13090TIP3    H260762   3.046   1.645   1.734  0.2451  0.2580  0.7764
13091TIP3   OH260763   5.309   5.798  15.794 -0.5147  0.1502 -0.4864
13091TIP3    H160764   5.343   5.787  15.705 -2.4273  1.5853 -1.4608
13091TIP3    H260765   5.217   5.820  15.782 -0.8891  0.1158  1.8901
13092TIP3   OH260766   0.132   2.104   3.396  0.4202  0.0331  0.7577
13092TIP3    H160767   0.176   2.036   3.343  0.9757 -0.0947  1.3764
13092TIP3    H260768   0.197   2.173   3.405  0.0878  0.3535  0.7060
13093TIP3   OH260769   0.402   1.451  14.756 -0.1495  0.0026  0.0697
13093TIP3    H160770   0.476   1.404  14.794  0.1668  0.2359 -0.2594
13093TIP3    H260771   0.430   1.474  14.668 -1.8012 -2.7978 -1.3404
13094TIP3   OH260772   4.970   1.681  14.535  0.5227  0.2344 -0.3152
13094TIP3    H160773   4.992   1.712  14.447  0.8695 -0.9534 -0.6627
13094TIP3    H260774   4.967   1.586  14.527  0.9778  0.0787  1.0589
13095TIP3   OH260775   3.850   5.076   2.079 -0.2692  0.8021 -0.0787
13095TIP3    H160776   3.796   5.109   2.150  0.7420  0.8649  0.6866
13095TIP3    H260777   3.868   4.985   2.103  1.1147  1.1799  0.4170
13096TIP3   OH260778   0.316   6.670   5.424 -1.2656 -0.0520 -0.1385
13096TIP3    H160779   0.256   6.719   5.481 -1.0359  1.6035 -1.2615
13096TIP3    H260780   0.260   6.632   5.357 -1.2848 -0.1695 -0.0562
13097TIP3   OH260781   3.782   2.760  10.618  0.3993  0.0040  0.3668
13097TIP3    H160782   3.868   2.796  10.640 -0.4223  1.2106  1.8086
13097TIP3    H260783   3.739   2.829  10.567  0.3068 -0.6165 -0.4042
13098TIP3   OH260784   0.842   6.515  10.860  0.5240 -0.2128 -0.0482
13098TIP3    H160785   0.837   6.604  10.897 -0.0761 -0.1229 -0.3341
13098TIP3    H260786   0.752   6.494  10.837  0.7842 -0.5625 -0.7810
13099TIP3   OH260787   3.815   4.429   2.772 -0.2114 -0.1172  0.4159
13099TIP3    H160788   3.845   4.499   2.715 -1.1532  1.1431  1.4166
13099TIP3    H260789   3.787   4.473   2.852  1.2294 -1.8351  1.9586
13100TIP3   OH260790   0.565   4.116  13.731  0.4056 -0.4313  0.2023
13100TIP3    H160791   0.489   4.096  13.676  0.7187 -0.5985 -0.1724
13100TIP3    H260792   0.537   4.090  13.819 -0.1072 -0.1329  0.1343
13101TIP3   OH260793   6.448   3.722   0.908  0.2419  0.0504  0.2980
13101TIP3    H160794   6.498   3.767   0.840  0.1980  0.1512  0.3321
13101TIP3    H260795   6.514   3.691   0.970  0.1279  2.5943  1.8283
13102TIP3   OH260796   2.883   3.339   5.373  0.4301  0.0898  0.8763
13102TIP3    H160797   2.961   3.367   5.422  1.1137 -0.4893  0.1311
13102TIP3    H260798   2.913   3.267   5.318 -1.0571 -1.4165  1.9448
13103TIP3   OH260799   4.473   5.761   3.965  0.3883  0.3834  0.1770
13103TIP3    H160800   4.491   5.730   4.053 -0.3112 -0.5116  0.0285
13103TIP3    H260801   4.387   5.724   3.944 -0.1815  1.8816 -0.2885
13104TIP3   OH260802   4.699   5.107   3.224 -0.1072 -0.1644 -0.2316
13104TIP3    H160803   4.617   5.119   3.175 -0.9971 -0.2490  1.1868
13104TIP3    H260804   4.753   5.053   3.166 -0.9371  0.1087 -1.3097
13105TIP3   OH260805   2.126   5.573  14.478 -0.4406  0.1483 -0.6077
13105TIP3    H160806   2.134   5.646  14.417 -0.8061 -0.6740 -1.6614
13105TIP3    H260807   2.209   5.573  14.526  0.0792  0.4883 -1.4835
13106TIP3   OH260808   1.315   2.009  13.393  0.0583 -0.4631  0.1232
13106TIP3    H160809   1.250   2.045  13.332 -0.3464 -2.9477 -1.0300
13106TIP3    H260810   1.348   1.930  13.350  2.5954 -0.2610  1.4692
13107TIP3   OH260811   3.283   0.556   1.402 -0.7617 -0.5969  0.2730
13107TIP3    H160812   3.250   0.466   1.412  0.3754 -1.1036 -0.4243
13107TIP3    H260813   3.334   0.554   1.322  1.7934 -0.1124  1.7796
13108TIP3   OH260814   5.647   5.333  11.515  0.3325  0.1279 -0.0287
13108TIP3    H160815   5.680   5.253  11.475 -0.4401  0.1055 -0.6436
13108TIP3    H260816   5.718   5.397  11.505  0.8942 -0.4289  0.3375
13109TIP3   OH260817   6.811   1.959  16.149 -0.1455 -0.2268  0.2034
13109TIP3    H160818   6.779   1.895  16.085  0.6489 -1.0689  0.6197
13109TIP3    H260819   6.750   1.954  16.222  0.8057 -1.7271  0.9385
13110TIP3   OH260820   0.950   4.760   0.388  0.8763 -0.0136  0.1940
13110TIP3    H160821   1.043   4.736   0.391  0.9211  0.1475  0.0930
13110TIP3    H260822   0.928   4.759   0.294  0.9289  0.5375  0.1751
13111TIP3   OH260823   1.788   5.463   1.938  0.1722 -0.0368  1.3752
13111TIP3    H160824   1.762   5.408   2.012  0.0185 -0.4590  1.0143
13111TIP3    H260825   1.707   5.507   1.911 -0.7379 -2.8111 -0.9792
13112TIP3   OH260826   5.869   3.502  11.633 -0.0820 -0.0586  0.1403
13112TIP3    H160827   5.805   3.573  11.642 -1.2942 -0.3920 -3.7658
13112TIP3    H260828   5.845   3.439  11.701 -0.4289  2.1680  2.2200
13113TIP3   OH260829   6.015   3.222  16.935 -0.1022 -0.1201 -0.1328
13113TIP3    H160830   6.095   3.181  16.966 -0.4989 -1.3055 -0.5922
13113TIP3    H260831   6.037   3.314  16.924  0.6051 -0.0198  1.7191
13114TIP3   OH260832   5.741   4.143  14.197 -0.6620  0.7127  0.2792
13114TIP3    H160833   5.815   4.112  14.250  0.4185  0.3045 -1.3805
13114TIP3    H260834   5.689   4.065  14.179 -0.4353  0.6570 -0.1425
13115TIP3   OH260835   3.623   4.174  16.808  0.5461  0.5339 -0.7080
13115TIP3    H160836   3.710   4.162  16.847  0.7917 -2.0571 -1.8647
13115TIP3    H260837   3.634   4.147  16.717 -1.8458 -1.8519 -0.4012
13116TIP3   OH260838   3.265   5.827   4.238  0.0525  0.8069  0.2439
13116TIP3    H160839   3.183   5.783   4.214  1.8402 -2.1684 -0.9066
13116TIP3    H260840   3.302   5.773   4.307  0.4660  2.9214  1.7829
13117TIP3   OH260841   4.165   0.793   0.593  0.1529 -0.4060  0.0332
13117TIP3    H160842   4.177   0.701   0.615  0.5964  0.1447  2.2924
13117TIP3    H260843   4.225   0.840   0.651 -1.5607  1.4533  0.3977
13118TIP3   OH260844   2.579   2.830  14.029  0.6101 -0.5797  0.5101
13118TIP3    H160845   2.606   2.897  14.092 -2.1176  0.9390  0.2231
13118TIP3    H260846   2.632   2.848  13.951  0.4388  0.8112  0.6907
13119TIP3   OH260847   3.040   2.439   5.008  0.4833 -0.1924  0.2964
13119TIP3    H160848   2.962   2.473   5.052  0.1071 -1.2284  0.4520
13119TIP3    H260849   3.113   2.473   5.060  0.2026  1.3256 -0.2226
13120TIP3   OH260850   1.138   6.457  15.655  0.1917  0.0174 -0.3762
13120TIP3    H160851   1.043   6.464  15.663  0.1470  1.3039 -1.6216
13120TIP3    H260852   1.171   6.483  15.741 -0.5593  0.8465 -0.3254
13121TIP3   OH260853   2.361   1.752   5.745 -0.1092  0.1241  0.1673
13121TIP3    H160854   2.295   1.682   5.750  0.1036 -0.8316 -4.9008
13121TIP3    H260855   2.442   1.706   5.723  0.3621  1.8195 -1.8386
13122TIP3   OH260856   0.475   4.573  16.668 -0.2495  0.3492  0.7217
13122TIP3    H160857   0.388   4.554  16.633  0.3538 -0.3727 -0.4421
13122TIP3    H260858   0.468   4.662  16.702 -0.9931  0.9469 -0.8983
13123TIP3   OH260859   1.334   1.319  12.475 -0.0967  0.0430 -0.2386
13123TIP3    H160860   1.425   1.337  12.452 -0.3781  0.1008 -1.3703
13123TIP3    H260861   1.314   1.234  12.435 -0.2784 -0.4157  0.7852
13124TIP3   OH260862   1.385   6.210  12.001  0.4599  0.1128 -0.2776
13124TIP3    H160863   1.435   6.132  12.026  1.0301  0.9088  1.1633
13124TIP3    H260864   1.297   6.193  12.034  0.2856 -0.4121 -0.9986
13125TIP3   OH260865   3.570   1.019   4.363  0.3705  0.2649 -0.2036
13125TIP3    H160866   3.633   1.084   4.332 -2.5672  2.3006 -2.5747
13125TIP3    H260867   3.540   1.053   4.447 -0.7977  1.8585 -1.2073
13126TIP3   OH260868   1.246   2.957   3.189  0.1105 -0.1633 -0.1003
13126TIP3    H160869   1.293   3.006   3.257  1.9933 -0.6593 -0.9639
13126TIP3    H260870   1.158   2.994   3.189  1.3339  3.0348 -0.4877
13127TIP3   OH260871   4.785   5.896  13.411 -0.3771  0.2365  0.3651
13127TIP3    H160872   4.761   5.983  13.442  0.1386  0.8896 -0.9566
13127TIP3    H260873   4.705   5.844  13.418 -0.9974  1.1385  0.1431
13128TIP3   OH260874   4.255   2.358   4.797 -0.0420  0.2001  0.7252
13128TIP3    H160875   4.296   2.444   4.791 -1.6369  0.9198 -0.6875
13128TIP3    H260876   4.161   2.376   4.802 -0.3120 -1.4022  3.0074
13129TIP3   OH260877   0.802   4.484  11.329  0.4627  0.8344 -0.3843
13129TIP3    H160878   0.794   4.388  11.333  0.0889  0.8716 -0.1378
13129TIP3    H260879   0.763   4.508  11.246  2.1851  0.6268 -1.2980
13130TIP3   OH260880   5.558   3.918  17.179  0.3387  0.1833  0.7443
13130TIP3    H160881   5.516   3.837  17.209  1.1875 -0.3875  0.4075
13130TIP3    H260882   5.652   3.902  17.188  0.5153  1.2006  0.8393
13131TIP3   OH260883   6.509   4.578  11.441  0.3545 -0.3149  0.0346
13131TIP3    H160884   6.548   4.491  11.445 -0.2980 -0.6237 -0.1675
13131TIP3    H260885   6.420   4.563  11.408  0.5036  0.5090 -0.7781
13132TIP3   OH260886   6.573   4.103  15.322  0.5761 -0.1566  0.6132
13132TIP3    H160887   6.667   4.118  15.331  0.3545  2.2858 -0.4058
13132TIP3    H260888   6.534   4.191  15.325 -1.7486 -1.1323  1.5589
13133TIP3   OH260889   2.999   4.273   6.338  0.6440 -0.2933  0.1294
13133TIP3    H160890   2.919   4.322   6.322  1.5891  1.0436 -0.7710
13133TIP3    H260891   3.067   4.325   6.295  1.7589 -2.2087 -0.5489
13134TIP3   OH260892   6.581   0.980  12.240  0.3075 -0.3742 -0.2633
13134TIP3    H160893   6.507   0.932  12.203 -0.0217  2.0806 -3.1045
13134TIP3    H260894   6.657   0.949  12.191  0.4270  0.3816 -0.5701
13135TIP3   OH260895   0.798   5.622   2.383 -0.0986  0.0888  0.1718
13135TIP3    H160896   0.801   5.669   2.466 -1.9994  0.8027 -0.1135
13135TIP3    H260897   0.715   5.576   2.384  0.8893 -1.8066 -0.3713
13136TIP3   OH260898   1.766   5.760  16.663  0.2966  0.0671 -0.5478
13136TIP3    H160899   1.752   5.766  16.757  0.5409  0.0014 -0.5042
13136TIP3    H260900   1.722   5.679  16.636 -2.7772  1.7841 -1.0889
13137TIP3   OH260901   1.702   0.579  14.710  0.8145 -0.6371  0.0720
13137TIP3    H160902   1.716   0.645  14.777 -1.8541  0.0283  0.0953
13137TIP3    H260903   1.626   0.529  14.740  1.8893 -2.8542 -0.6285
13138TIP3   OH260904   1.317   1.232  13.026 -0.2033  0.6488 -0.6673
13138TIP3    H160905   1.264   1.311  13.030 -0.5164  0.3792  2.0349
13138TIP3    H260906   1.258   1.161  13.052  1.0738  0.1729  1.1967
13139TIP3   OH260907   5.673   0.329   6.423 -0.1711  0.0126 -0.2392
13139TIP3    H160908   5.732   0.314   6.497 -0.0813 -1.3641 -0.5603
13139TIP3    H260909   5.601   0.380   6.459 -0.0117 -0.4296  0.7412
13140TIP3   OH260910   6.235   0.606  12.175  0.3079 -0.1382  0.4061
13140TIP3    H160911   6.234   0.534  12.112  1.3686  0.2911 -0.1194
13140TIP3    H260912   6.182   0.675  12.133 -1.4856 -0.9127  1.3120
13141TIP3   OH260913   5.873   1.102  15.484  0.4568  0.0867  0.0989
13141TIP3    H160914   5.863   1.196  15.498  0.3187 -0.2790  2.9307
13141TIP3    H260915   5.788   1.065  15.508  0.6276 -0.8193 -0.6405
13142TIP3   OH260916   3.455   0.186  15.183  0.2330  0.1657 -0.1727
13142TIP3    H160917   3.483   0.278  15.177  2.2120 -0.3176  0.7973
13142TIP3    H260918   3.525   0.137  15.142 -0.0069 -1.0158  0.7823
13143TIP3   OH260919   0.420   3.976  15.505  0.2417  0.2030  0.3141
13143TIP3    H160920   0.417   3.959  15.411  0.8537  1.9313 -0.0569
13143TIP3    H260921   0.511   4.004  15.522  0.9221 -2.5627  1.9340
13144TIP3   OH260922   5.804   6.607   4.704 -0.0421 -0.1478 -0.2243
13144TIP3    H160923   5.802   6.673   4.635 -0.9851 -0.1889 -0.2507
13144TIP3    H260924   5.808   6.657   4.785  0.4832 -0.0895 -0.2810
13145TIP3   OH260925   1.672   1.356   1.441  0.6778 -0.3567 -0.8253
13145TIP3    H160926   1.607   1.417   1.406  0.1342 -0.2230  0.3668
13145TIP3    H260927   1.719   1.324   1.364  2.8896  3.6150 -1.3730
13146TIP3   OH260928   4.063   3.428  12.308  0.2297 -0.4825  0.1389
13146TIP3    H160929   4.120   3.504  12.296 -0.7946  0.4272  0.8254
13146TIP3    H260930   4.039   3.402  12.219  0.4083  0.1455 -0.0971
13147TIP3   OH260931   2.330   3.416  15.736  0.0479 -0.5985  0.5175
13147TIP3    H160932   2.399   3.359  15.768 -0.0611 -1.7835 -1.2575
13147TIP3    H260933   2.249   3.370  15.759 -0.1428  0.1910  1.4945
13148TIP3   OH260934   2.356   2.948  12.216 -0.9621  0.4418 -0.7311
13148TIP3    H160935   2.447   2.945  12.244 -0.4987  0.8726 -2.1018
13148TIP3    H260936   2.327   2.857  12.217  0.0085  0.1021 -1.8924
13149TIP3   OH260937   2.893   5.147  14.063  0.6151 -0.3599  0.3291
13149TIP3    H160938   2.912   5.068  14.012  1.3303 -0.9366  1.4505
13149TIP3    H260939   2.883   5.116  14.153  0.6290  0.7964  0.7470
13150TIP3   OH260940   4.250   6.188   2.680 -0.0076 -0.5389 -0.5293
13150TIP3    H160941   4.212   6.147   2.757  0.6723 -1.1780 -0.5254
13150TIP3    H260942   4.188   6.168   2.610 -0.8187  0.3680 -0.0869
13151TIP3   OH260943   4.397   5.003   2.232 -0.0162  0.1930  0.2467
13151TIP3    H160944   4.400   5.093   2.200  2.4876  0.2302  0.3912
13151TIP3    H260945   4.401   5.011   2.327 -1.0923 -0.0695  0.3294
13152TIP3   OH260946   2.937   1.789  14.853 -0.0547  0.5924 -0.0010
13152TIP3    H160947   2.873   1.835  14.799  0.0871  3.2519  1.9080
13152TIP3    H260948   2.884   1.747  14.922  0.0032 -0.3792 -0.5261
13153TIP3   OH260949   0.974   6.691  15.480 -0.0760  0.1400  0.3421
13153TIP3    H160950   1.002   6.760  15.539  1.2797  0.8098 -1.0154
13153TIP3    H260951   0.958   6.616  15.536  1.2612  0.7087  1.5389
13154TIP3   OH260952   3.804   0.064  12.676 -0.3281  0.2065  0.7249
13154TIP3    H160953   3.820   0.157  12.690  1.2642 -0.1790  1.7648
13154TIP3    H260954   3.798   0.055  12.581 -0.7368  1.3965  0.6280
13155TIP3   OH260955   6.251   3.757  16.149 -0.9655  0.1159 -0.1040
13155TIP3    H160956   6.163   3.784  16.123 -0.6668 -0.1207 -1.4545
13155TIP3    H260957   6.255   3.664  16.128  0.2456  0.5459 -2.0676
13156TIP3   OH260958   0.774   2.155  14.794 -0.0498 -0.0116 -0.1221
13156TIP3    H160959   0.822   2.073  14.805 -2.1897 -1.2711  0.4724
13156TIP3    H260960   0.742   2.176  14.882 -0.9850  0.5081 -0.5724
13157TIP3   OH260961   4.529   4.074  15.906  0.1528 -0.0988  0.7680
13157TIP3    H160962   4.438   4.100  15.918  0.4815  0.9147  1.1663
13157TIP3    H260963   4.535   4.053  15.812 -0.2340  0.9205  0.4928
13158TIP3   OH260964   3.728   3.409   1.365 -0.4284  0.4754 -0.6779
13158TIP3    H160965   3.732   3.346   1.293  0.7617  0.6864 -0.8196
13158TIP3    H260966   3.695   3.359   1.439  0.0889 -0.2177 -0.9019
13159TIP3   OH260967   2.708   1.285   3.043  0.0292  0.0790  0.0779
13159TIP3    H160968   2.770   1.213   3.052 -1.5321 -1.1050  2.4763
13159TIP3    H260969   2.622   1.243   3.036 -0.9606  1.6379  1.7672
13160TIP3   OH260970   3.071   3.057  13.844  0.6926 -0.1272 -0.3677
13160TIP3    H160971   3.131   3.060  13.769  0.1910  0.1813 -0.7579
13160TIP3    H260972   3.041   2.966  13.847  0.4216 -0.0544 -0.7759
13161TIP3   OH260973   5.019   3.390  16.997  0.4908 -0.1026  0.7049
13161TIP3    H160974   5.090   3.449  16.969  0.5895  0.2486  1.6449
13161TIP3    H260975   5.045   3.363  17.085 -1.3749  1.4311  1.7993
13162TIP3   OH260976   4.336   3.759  14.803 -0.6952  0.9072 -0.0671
13162TIP3    H160977   4.350   3.665  14.811 -0.8611  0.9541  0.9037
13162TIP3    H260978   4.421   3.798  14.826 -1.0235  1.0306  0.9923
13163TIP3   OH260979   4.494   6.676   3.321 -0.3191  0.0039  0.4238
13163TIP3    H160980   4.440   6.647   3.248  0.1132 -2.0893  0.8701
13163TIP3    H260981   4.491   6.771   3.317  0.0723 -0.0319 -2.5774
13164TIP3   OH260982   0.678   2.859   0.788  0.2137 -0.7101  0.7242
13164TIP3    H160983   0.706   2.781   0.740  1.3829  0.3792 -0.4305
13164TIP3    H260984   0.637   2.824   0.868 -2.2284 -2.6156 -1.1923
13165TIP3   OH260985   3.597   5.394  15.438 -1.0017  0.3322  0.1274
13165TIP3    H160986   3.587   5.316  15.382 -1.0750  2.1218 -2.5289
13165TIP3    H260987   3.509   5.408  15.474 -0.9678 -0.8224  0.7223
13166TIP3   OH260988   5.360   6.722  15.401 -0.1583 -0.1179  0.8664
13166TIP3    H160989   5.400   6.660  15.339 -0.7980 -1.3361  1.6288
13166TIP3    H260990   5.353   6.803  15.352  2.3552 -0.1067  0.3952
13167TIP3   OH260991   6.670   5.892   0.534 -0.4089  0.0385 -0.2273
13167TIP3    H160992   6.720   5.904   0.615 -0.1595  0.0544 -0.3818
13167TIP3    H260993   6.705   5.811   0.496 -1.6020 -0.8340  0.4599
13168TIP3   OH260994   3.543   6.055  12.059 -0.0121 -0.4536  0.3252
13168TIP3    H160995   3.499   6.138  12.043  3.1315  1.2041 -0.5848
13168TIP3    H260996   3.543   6.045  12.154 -0.5042  0.5462  0.4381
13169TIP3   OH260997   0.783   3.661   4.960 -0.3659  0.4564 -0.1438
13169TIP3    H160998   0.850   3.629   4.899  0.9265  0.7177  1.1092
13169TIP3    H260999   0.820   3.739   4.998 -1.4233  0.6407  0.5525
13170TIP3   OH261000   5.329   3.234  14.698 -0.3167  0.2311 -0.4187
13170TIP3    H161001   5.327   3.303  14.763 -1.6839 -0.2808  0.1045
13170TIP3    H261002   5.265   3.260  14.632  0.1947  0.1529 -0.9616
13171TIP3   OH261003   2.386   3.009   4.820  0.2711 -0.1692  0.2435
13171TIP3    H161004   2.363   2.969   4.737  2.1014 -3.2251  1.0453
13171TIP3    H261005   2.308   3.001   4.874 -0.7337  1.3086 -0.9163
13172TIP3   OH261006   1.314   0.564  16.269  0.0976 -0.0356  0.1345
13172TIP3    H161007   1.366   0.640  16.244 -3.6144  2.0924 -2.1670
13172TIP3    H261008   1.263   0.593  16.344 -0.4460 -0.6804  0.0311
13173TIP3   OH261009   2.640   2.035  11.919  0.6626 -0.1033 -0.4054
13173TIP3    H161010   2.708   1.986  11.873  1.5759 -1.9721  2.6641
13173TIP3    H261011   2.559   1.989  11.898  0.8396 -0.0651 -1.2093
13174TIP3   OH261012   3.901   4.465  15.498  0.2165  0.5698  0.4878
13174TIP3    H161013   3.941   4.539  15.544  0.6752 -1.0842  2.9359
13174TIP3    H261014   3.829   4.437  15.555  1.7108 -2.4830  1.0554
13175TIP3   OH261015   1.568   3.664  15.033  0.1965 -0.1915  0.4708
13175TIP3    H161016   1.639   3.728  15.036  0.5772 -0.5414 -0.6651
13175TIP3    H261017   1.512   3.692  14.961 -1.0805  0.3126  1.6089
13176TIP3   OH261018   0.943   2.707   4.293 -0.0686 -0.1219  0.0456
13176TIP3    H161019   0.904   2.787   4.259  0.2155  0.1689  0.4061
13176TIP3    H261020   0.875   2.640   4.280  0.7210 -0.5096 -3.0265
13177TIP3   OH261021   1.756   1.941  15.469 -0.3873 -0.5761  0.1826
13177TIP3    H161022   1.750   2.016  15.528  1.9847 -0.2807  0.1437
13177TIP3    H261023   1.759   1.865  15.526 -2.0409 -0.6401  0.2447
13178TIP3   OH261024   3.497   3.195   1.182 -0.3522  0.1640 -0.7563
13178TIP3    H161025   3.417   3.170   1.136 -0.9539  0.4894  0.0958
13178TIP3    H261026   3.545   3.113   1.193 -0.5809 -0.0365 -1.2349
13179TIP3   OH261027   6.762   4.442  12.187  0.6754 -0.5278  0.2072
13179TIP3    H161028   6.809   4.359  12.195  2.9630  0.5919 -0.6738
13179TIP3    H261029   6.738   4.447  12.094 -1.3674 -1.1215  0.6591
13180TIP3   OH261030   4.057   2.863  16.213 -0.1940 -0.4962 -0.3074
13180TIP3    H161031   4.094   2.813  16.285 -1.4369 -3.3161 -1.4991
13180TIP3    H261032   3.966   2.835  16.208 -0.8861  1.6710 -1.3152
13181TIP3   OH261033   4.351   2.992   2.314 -0.1781  0.2756 -0.3722
13181TIP3    H161034   4.393   3.015   2.232  0.6135 -0.0692 -0.0780
13181TIP3    H261035   4.399   2.914   2.344 -0.3805  0.4621  0.4592
13182TIP3   OH261036   5.493   0.399   0.767  0.1561 -0.1599  0.6167
13182TIP3    H161037   5.420   0.453   0.798  0.0129 -0.0904  0.1744
13182TIP3    H261038   5.480   0.395   0.672  0.1133 -1.0525  0.6600
13183TIP3   OH261039   6.328   4.137   1.862 -0.4691 -0.0190  0.3326
13183TIP3    H161040   6.250   4.175   1.822 -0.2972  0.2961  0.2947
13183TIP3    H261041   6.294   4.081   1.932 -0.9907 -2.9638 -2.0612
13184TIP3   OH261042   3.729   5.564   2.396  0.7461  0.1069  0.0087
13184TIP3    H161043   3.662   5.506   2.360  0.5021  1.1775 -1.3524
13184TIP3    H261044   3.805   5.508   2.408 -0.1199 -0.9540  0.8251
13185TIP3   OH261045   5.366   4.046  14.061 -0.3213  0.3868 -0.5928
13185TIP3    H161046   5.438   4.024  14.002 -1.7119  0.2600 -2.3325
13185TIP3    H261047   5.380   4.139  14.083  1.7770 -0.2835  1.2523
13186TIP3   OH261048   0.140   1.657   2.916  0.3233 -1.0023  0.4752
13186TIP3    H161049   0.093   1.725   2.868  0.9140 -0.6299  0.4042
13186TIP3    H261050   0.117   1.576   2.871  0.1977 -0.7574  0.0897
13187TIP3   OH261051   4.910   1.156   4.829 -0.1911 -0.1847  0.3749
13187TIP3    H161052   4.949   1.242   4.847  0.6782 -0.8403  1.7860
13187TIP3    H261053   4.979   1.093   4.850 -0.3154 -1.2357 -1.9886
13188TIP3   OH261054   2.841   1.320  12.842  0.0422 -0.0313  0.8495
13188TIP3    H161055   2.828   1.415  12.852 -0.3834  0.0127 -0.0791
13188TIP3    H261056   2.863   1.290  12.931  1.1157  1.0747  0.9890
13189TIP3   OH261057   0.550   5.163  13.048 -0.8214 -0.0851 -0.0141
13189TIP3    H161058   0.558   5.256  13.031  2.4007 -0.4765 -1.3054
13189TIP3    H261059   0.506   5.128  12.971  2.6523 -0.1837 -2.1607
13190TIP3   OH261060   0.149   1.271   0.631 -0.5617  0.0878 -0.0652
13190TIP3    H161061   0.092   1.238   0.562 -1.4023 -0.1713  0.7170
13190TIP3    H261062   0.113   1.357   0.653 -0.4619  0.0611  0.2138
13191TIP3   OH261063   0.614   5.413   5.034 -0.2866  0.7007  0.4920
13191TIP3    H161064   0.706   5.432   5.016 -0.4489 -0.1849 -1.5548
13191TIP3    H261065   0.588   5.351   4.965 -1.6235 -1.4523  2.7754
13192TIP3   OH261066   2.689   6.187  13.998  0.1684  0.4011 -0.0045
13192TIP3    H161067   2.757   6.134  14.040  0.2850  0.7519  0.2508
13192TIP3    H261068   2.666   6.253  14.063  0.0263  0.6693 -0.3221
13193TIP3   OH261069   3.674   1.976  16.066 -0.4197 -0.1016 -0.0102
13193TIP3    H161070   3.700   2.066  16.084 -0.5410 -0.0638 -0.0211
13193TIP3    H261071   3.725   1.951  15.989  0.8584 -0.6017  0.9514
13194TIP3   OH261072   6.310   1.498  15.430 -0.1478 -0.6096  0.3512
13194TIP3    H161073   6.231   1.507  15.483 -0.9454  3.6108 -1.1878
13194TIP3    H261074   6.372   1.559  15.470  1.0001 -1.0513 -0.7005
13195TIP3   OH261075   3.075   4.998  17.278 -0.3383  0.9552  0.0611
13195TIP3    H161076   3.018   4.926  17.249  1.4702 -0.2151 -0.7924
13195TIP3    H261077   3.070   5.062  17.207  1.1139 -0.1805 -1.1353
13196TIP3   OH261078   6.341   2.399   3.502  0.3939 -0.4777  0.1611
13196TIP3    H161079   6.364   2.469   3.563  0.3009 -0.8567  0.6382
13196TIP3    H261080   6.246   2.389   3.510  0.0438  0.9145 -1.6246
13197TIP3   OH261081   0.115   0.731  16.984 -0.1042  0.6854 -0.0486
13197TIP3    H161082   0.169   0.667  17.029 -2.3245 -0.3888  1.2651
13197TIP3    H261083   0.174   0.805  16.967  1.8145 -0.5362  0.9642
13198TIP3   OH261084   1.681   3.164   2.174  0.1123  0.9631 -0.1960
13198TIP3    H161085   1.748   3.211   2.223  0.7696 -0.1255 -0.0253
13198TIP3    H261086   1.637   3.109   2.239  0.2120  0.3792 -0.6122
13199TIP3   OH261087   1.882   6.117  13.676  0.0113  0.6601 -0.7163
13199TIP3    H161088   1.911   6.109  13.585 -0.2191 -1.8898 -0.6540
13199TIP3    H261089   1.923   6.043  13.721 -0.3776  1.4985  1.1266
13200TIP3   OH261090   4.196   3.023   5.478  0.0885 -0.1796 -0.2521
13200TIP3    H161091   4.213   3.032   5.384  0.0505  0.3136 -0.2123
13200TIP3    H261092   4.251   3.089   5.519  0.3803 -0.6365  0.1062
13201TIP3   OH261093   0.123   3.898  14.964  0.1444  0.1794 -0.1242
13201TIP3    H161094   0.049   3.911  15.024  0.0830  0.8382 -0.3310
13201TIP3    H261095   0.189   3.960  14.994 -0.4370  1.5885 -1.5986
13202TIP3   OH261096   4.198   4.808  15.665 -0.2512 -0.0233  0.1013
13202TIP3    H161097   4.286   4.791  15.630 -0.4825  1.0543 -1.0684
13202TIP3    H261098   4.210   4.884  15.722 -0.7312  1.4886 -1.7017
13203TIP3   OH261099   2.548   4.625   3.870 -0.3903 -0.5531 -0.0098
13203TIP3    H161100   2.492   4.700   3.853 -1.8327 -1.9619 -2.0225
13203TIP3    H261101   2.590   4.644   3.954  0.8048  3.3025 -1.3148
13204TIP3   OH261102   6.675   4.098  14.883  0.1470 -0.4108 -0.7785
13204TIP3    H161103   6.729   4.141  14.949  0.5993 -0.9070 -0.8253
13204TIP3    H261104   6.618   4.168  14.850  1.2895  0.3135 -1.2897
13205TIP3   OH261105   2.235   0.771  16.360  0.7738  0.3096 -0.1849
13205TIP3    H161106   2.320   0.782  16.319  0.6077  2.7144 -0.0306
13205TIP3    H261107   2.200   0.860  16.367 -0.9942 -0.4376  1.3677
13206TIP3   OH261108   5.539   1.264  11.985 -0.2548  0.5197 -0.0592
13206TIP3    H161109   5.560   1.339  12.041 -1.6260 -1.7666  3.9664
13206TIP3    H261110   5.583   1.190  12.027 -3.0806 -1.7311 -0.6940
13207TIP3   OH261111   4.399   2.574   4.013  0.7037  0.1284 -0.2595
13207TIP3    H161112   4.403   2.546   4.104 -0.5501  2.1629  0.4897
13207TIP3    H261113   4.350   2.505   3.968 -0.1325 -0.1109  0.9687
13208TIP3   OH261114   4.877   4.629  11.938  0.1706  0.1036  0.1608
13208TIP3    H161115   4.851   4.680  12.014  0.8428 -0.4200  0.7629
13208TIP3    H261116   4.899   4.543  11.973  2.4117  0.4145 -0.3056
13209TIP3   OH261117   5.100   1.541   3.632  0.1695  0.4750  0.2746
13209TIP3    H161118   5.108   1.466   3.691  0.9333 -0.1496 -0.5853
13209TIP3    H261119   5.098   1.617   3.689  1.9950 -0.0331  1.0763
13210TIP3   OH261120   4.777   6.063  11.884  0.1690 -0.1151 -0.0552
13210TIP3    H161121   4.766   5.975  11.919 -2.0034  0.9520  2.2537
13210TIP3    H261122   4.854   6.097  11.929 -0.8283  0.1869  1.4972
13211TIP3   OH261123   1.845   0.886   5.494  0.5677 -0.5521 -0.0383
13211TIP3    H161124   1.815   0.846   5.576 -0.9823 -0.8501 -0.7286
13211TIP3    H261125   1.825   0.979   5.503  0.0742 -0.6401 -0.2147
13212TIP3   OH261126   1.828   1.624   6.247  0.6070 -0.4908  0.6312
13212TIP3    H161127   1.894   1.554   6.251  1.7971  0.5507 -0.0025
13212TIP3    H261128   1.876   1.703   6.270 -0.7385  0.1311  1.4017
13213TIP3   OH261129   1.620   2.772   1.646  0.0108  0.1952 -0.4430
13213TIP3    H161130   1.583   2.844   1.697 -1.2018 -0.5034 -0.2960
13213TIP3    H261131   1.696   2.743   1.696 -0.7501 -0.0224  0.6275
13214TIP3   OH261132   6.562   5.894   2.234 -0.2913 -0.1720 -0.2467
13214TIP3    H161133   6.469   5.871   2.243 -0.2430 -0.8230 -1.2855
13214TIP3    H261134   6.572   5.972   2.289 -2.3372  2.2571 -3.0025
13215TIP3   OH261135   3.320   5.388  11.457  0.8627 -0.2239  0.1756
13215TIP3    H161136   3.247   5.402  11.517  1.4495  1.9027  0.4730
13215TIP3    H261137   3.278   5.367  11.373 -0.1724  1.6288  0.1755
13216TIP3   OH261138   0.878   6.076  12.280 -0.4737  0.2837 -0.3339
13216TIP3    H161139   0.960   6.104  12.320 -0.2325 -0.3469 -0.3694
13216TIP3    H261140   0.811   6.095  12.346 -0.4681  1.8787 -0.7598
13217TIP3   OH261141   6.221   1.386  12.107  0.2160 -0.6169 -0.0390
13217TIP3    H161142   6.271   1.309  12.135  0.4306 -0.9789 -1.3714
13217TIP3    H261143   6.160   1.353  12.042 -0.0344  0.2605 -0.2612
13218TIP3   OH261144   1.728   4.769   2.133  0.1705  0.1731  0.2652
13218TIP3    H161145   1.644   4.814   2.122 -0.9308 -1.4210  1.5395
13218TIP3    H261146   1.770   4.813   2.207 -0.3614 -0.1106  0.7457
13219TIP3   OH261147   5.458   3.943   5.579 -0.2355 -0.2250  0.5971
13219TIP3    H161148   5.456   3.865   5.635  2.2193 -0.8382 -0.0639
13219TIP3    H261149   5.380   3.935   5.524 -1.1734 -1.0671  1.9949
13220TIP3   OH261150   0.083   6.767  14.350  0.4048 -0.1179  0.4092
13220TIP3    H161151   0.082   6.721  14.266  0.0894  1.6261 -0.5892
13220TIP3    H261152   0.175   6.767  14.376  0.3065 -2.1355  0.9551
13221TIP3   OH261153   2.134   5.506   4.779  0.4130  0.1562  0.3573
13221TIP3    H161154   2.060   5.521   4.838 -0.9094 -3.0285 -0.2744
13221TIP3    H261155   2.210   5.497   4.837 -0.1838  0.7366  1.2461
13222TIP3   OH261156   3.392   4.796   1.126  0.3272  0.0320 -0.1118
13222TIP3    H161157   3.345   4.854   1.184 -0.6238  0.3228 -1.1424
13222TIP3    H261158   3.431   4.730   1.184  0.2703  0.8902  0.9275
13223TIP3   OH261159   0.652   0.869  12.859 -0.0738 -0.5863 -0.1480
13223TIP3    H161160   0.655   0.780  12.892  0.3522 -1.9716 -3.5137
13223TIP3    H261161   0.581   0.868  12.794  0.0553  1.4785 -0.4063
13224TIP3   OH261162   1.229   4.546  10.664  0.5582  0.4675  0.2913
13224TIP3    H161163   1.141   4.569  10.695  0.7707 -0.1297  1.3665
13224TIP3    H261164   1.232   4.580  10.575 -0.5604  1.0130  0.4442
13225TIP3   OH261165   4.884   6.635   0.291 -0.3262  0.2438  0.1675
13225TIP3    H161166   4.967   6.663   0.331 -0.9716  1.9324  0.3893
13225TIP3    H261167   4.817   6.667   0.350 -1.1518 -2.4197  0.7755
13226TIP3   OH261168   3.962   0.785  16.852  0.0468  0.0871  0.7256
13226TIP3    H161169   3.911   0.710  16.821  1.6298 -0.6821 -0.0924
13226TIP3    H261170   4.036   0.746  16.898  0.8521  1.1574  0.3642
13227TIP3   OH261171   3.717   1.603   0.813  0.2165 -0.2125 -0.3500
13227TIP3    H161172   3.663   1.524   0.810  0.0417 -0.1628  0.9611
13227TIP3    H261173   3.676   1.662   0.749 -0.1085 -0.8869 -0.7798
13228TIP3   OH261174   2.531   5.151   6.653  0.1438 -0.3974 -0.1452
13228TIP3    H161175   2.470   5.219   6.682  0.7260  0.3567 -0.6506
13228TIP3    H261176   2.618   5.191   6.663  0.6670 -1.8267  1.6077
13229TIP3   OH261177   0.907   0.619  15.777 -0.1169  0.6447  0.1049
13229TIP3    H161178   0.975   0.612  15.844 -0.4410 -0.0099  0.3733
13229TIP3    H261179   0.851   0.691  15.806 -0.6508 -0.0750  0.9078
13230TIP3   OH261180   3.199   6.707  10.672  0.7382  0.6810 -0.5955
13230TIP3    H161181   3.132   6.706  10.604  1.8981  0.6789 -1.7754
13230TIP3    H261182   3.150   6.713  10.754 -0.7842 -1.4163 -1.2863
13231TIP3   OH261183   0.056   6.474   3.651 -0.7465  0.0713  0.2201
13231TIP3    H161184   0.079   6.388   3.684 -0.2263 -0.0868 -0.5319
13231TIP3    H261185  -0.011   6.457   3.584  0.6970  0.0498 -1.2827
13232TIP3   OH261186   0.117   2.477   2.822  0.8502  0.0891  0.1319
13232TIP3    H161187   0.094   2.539   2.754  0.0618 -0.8886 -0.5305
13232TIP3    H261188   0.084   2.393   2.790 -0.3578 -0.2616  2.0940
13233TIP3   OH261189   4.619   4.159   6.263 -0.1339  0.6473  0.2892
13233TIP3    H161190   4.534   4.115   6.272 -0.0903  0.6709  0.8964
13233TIP3    H261191   4.602   4.232   6.204 -0.0600 -0.5520 -1.2617
13234TIP3   OH261192   6.196   0.151   1.435  0.7710 -0.5359 -0.0377
13234TIP3    H161193   6.253   0.190   1.370  1.0410 -0.8286  0.0222
13234TIP3    H261194   6.223   0.190   1.518 -3.5105  4.7215 -0.5599
13235TIP3   OH261195   4.353   6.016   2.392 -0.3659  0.3625  0.3841
13235TIP3    H161196   4.266   6.020   2.432  0.3035  0.3697  1.9151
13235TIP3    H261197   4.342   6.060   2.307 -1.4785  1.8754  1.2599
13236TIP3   OH261198   3.383   3.891   2.002 -0.0627  0.0138  0.0212
13236TIP3    H161199   3.362   3.840   2.081 -1.0535 -0.7035 -0.6741
13236TIP3    H261200   3.473   3.920   2.015  0.6901 -2.2375  0.3044
13237TIP3   OH261201   5.251   1.273  13.286  0.4993 -0.5965  0.4389
13237TIP3    H161202   5.276   1.218  13.360  2.8238  0.8361  0.8250
13237TIP3    H261203   5.311   1.247  13.216  0.6724  0.4341  0.1884
13238TIP3   OH261204   3.580   5.833   0.171  0.5167  0.0176 -0.4934
13238TIP3    H161205   3.551   5.796   0.088  0.6441 -1.7160  0.1990
13238TIP3    H261206   3.627   5.762   0.214  0.4015  0.8544  1.0881
13239TIP3   OH261207   0.246   5.961  13.711 -0.0623  0.1795  0.2461
13239TIP3    H161208   0.263   5.892  13.647 -0.1316  0.0984  0.3137
13239TIP3    H261209   0.152   5.973  13.709  0.1591  2.1385 -1.6754
13240TIP3   OH261210   4.737   5.791   1.360  0.0227  0.2646  0.0955
13240TIP3    H161211   4.739   5.714   1.302 -2.1045 -1.5746  2.2503
13240TIP3    H261212   4.798   5.769   1.430  0.5507  1.2650 -0.0428
13241TIP3   OH261213   5.471   3.964   4.866  0.6358  0.1800  0.1686
13241TIP3    H161214   5.443   3.901   4.800 -0.4782  0.8214  0.0072
13241TIP3    H261215   5.453   3.921   4.950  0.0959  0.1910  0.0593
13242TIP3   OH261216   1.487   0.293   4.460 -0.3951 -0.2135  0.0708
13242TIP3    H161217   1.576   0.327   4.450  0.1222 -1.4043  0.4906
13242TIP3    H261218   1.460   0.268   4.372 -0.3447  0.2114 -0.0673
13243TIP3   OH261219   1.553   0.367  16.853 -0.3821 -0.2103 -0.1492
13243TIP3    H161220   1.592   0.281  16.869 -0.2330  0.1530  1.6502
13243TIP3    H261221   1.501   0.355  16.774 -0.0402 -1.8400 -0.1681
13244TIP3   OH261222   4.416   2.566   0.242  0.0324 -0.2359 -0.6330
13244TIP3    H161223   4.347   2.573   0.308  1.7903 -2.0189  1.5601
13244TIP3    H261224   4.390   2.491   0.189 -0.0334 -0.5416 -0.1814
13245TIP3   OH261225   6.542   6.380   4.842 -0.5303 -0.3293 -0.3358
13245TIP3    H161226   6.474   6.443   4.866  0.7552  0.5954  1.0164
13245TIP3    H261227   6.602   6.430   4.785  1.0608  0.0767  1.5743
13246TIP3   OH261228   4.735   5.787  15.101  0.3428  0.4484  0.0569
13246TIP3    H161229   4.787   5.809  15.023  1.2055 -1.1876  0.1185
13246TIP3    H261230   4.662   5.848  15.099  1.4831  1.8560 -0.8539
13247TIP3   OH261231   5.954   0.447  11.552 -0.2396 -0.6276  0.4546
13247TIP3    H161232   5.980   0.530  11.513  0.0217 -1.3712 -1.0059
13247TIP3    H261233   6.036   0.397  11.559 -0.5894 -1.2558  0.1084
13248TIP3   OH261234   2.019   4.219  14.327  0.4119  0.1720  0.2617
13248TIP3    H161235   2.070   4.258  14.255 -0.3409 -0.3767 -0.5930
13248TIP3    H261236   1.972   4.147  14.286 -2.2160  1.5418  0.6613
13249TIP3   OH261237   2.575   6.485   0.038 -0.3423  0.3580  0.2147
13249TIP3    H161238   2.574   6.539  -0.042 -1.5397  1.4797  0.9526
13249TIP3    H261239   2.491   6.439   0.037  0.1807 -0.6287  0.1976
13250TIP3   OH261240   2.918   0.763   1.706  0.4608  0.2828 -0.0021
13250TIP3    H161241   2.965   0.690   1.746  0.5716 -0.3801 -1.3018
13250TIP3    H261242   2.871   0.723   1.633 -1.6795  1.0190  0.8964
13251TIP3   OH261243   2.024   5.883   2.725 -0.1813 -0.1523  0.1976
13251TIP3    H161244   2.002   5.949   2.659  0.5445  1.3360  1.3844
13251TIP3    H261245   2.050   5.806   2.674  2.1135  1.5101 -1.3431
13252TIP3   OH261246   1.075   1.495   1.447 -0.6009 -0.2721  0.2887
13252TIP3    H161247   1.112   1.468   1.531 -2.1618 -0.0825  1.0699
13252TIP3    H261248   0.997   1.545   1.470 -1.6469 -1.0906 -1.2808
13253TIP3   OH261249   4.669   0.493  16.537  0.1630 -0.7265  0.9106
13253TIP3    H161250   4.702   0.422  16.592  1.2511 -0.1485  1.0228
13253TIP3    H261251   4.611   0.449  16.474 -1.3208 -1.3778  2.6206
13254TIP3   OH261252   6.738   0.761  14.334  0.1711  0.9041  0.5008
13254TIP3    H161253   6.692   0.735  14.413 -0.5031 -0.2248 -0.2408
13254TIP3    H261254   6.711   0.698  14.268  0.9360  1.6525 -0.5704
13255TIP3   OH261255   2.806   6.619  11.170 -0.0143 -0.2746  0.5917
13255TIP3    H161256   2.826   6.579  11.085 -0.5533 -0.5082  0.5782
13255TIP3    H261257   2.892   6.631  11.211  0.1479 -1.6495  0.6967
13256TIP3   OH261258   0.122   5.780   4.415  0.0630  0.0049  0.8642
13256TIP3    H161259   0.081   5.697   4.438 -3.9401  1.1971 -1.1442
13256TIP3    H261260   0.174   5.760   4.337 -0.6021 -0.6731  0.5865
13257TIP3   OH261261   5.714   0.081   5.280 -0.4759 -0.1560 -0.5763
13257TIP3    H161262   5.686   0.054   5.367 -2.3538  0.2645 -1.0084
13257TIP3    H261263   5.638   0.067   5.224  0.6668 -0.3978 -2.1720
13258TIP3   OH261264   1.453   0.953   6.723 -0.5544  0.5782 -0.0469
13258TIP3    H161265   1.382   0.903   6.764  0.2192  1.9551  3.2429
13258TIP3    H261266   1.408   1.017   6.667 -1.8281  0.1624  0.4725
13259TIP3   OH261267   2.386   2.640   2.140 -0.4822  0.8615  0.1895
13259TIP3    H161268   2.462   2.591   2.172 -0.4060  1.0878  0.3607
13259TIP3    H261269   2.423   2.709   2.085 -0.7387 -1.4164 -3.0901
13260TIP3   OH261270   2.862   2.975  15.599  0.2319 -0.1013 -0.0698
13260TIP3    H161271   2.946   2.931  15.590  0.0146 -0.9720  1.7215
13260TIP3    H261272   2.850   2.987  15.693 -0.9982  1.3247 -0.3524
13261TIP3   OH261273   4.201   3.730   5.579  0.1097 -0.3321 -0.3139
13261TIP3    H161274   4.186   3.819   5.545  0.8375 -0.6124 -1.4196
13261TIP3    H261275   4.208   3.742   5.673 -0.3333  0.7124 -0.3929
13262TIP3   OH261276   6.564   4.215  13.300  0.0725  0.5032  0.1090
13262TIP3    H161277   6.654   4.191  13.323  0.4596  1.0728 -0.7995
13262TIP3    H261278   6.512   4.140  13.330  0.9440 -0.2427 -0.1789
13263TIP3   OH261279   5.487   0.927   5.010 -0.2829 -0.6630  0.1387
13263TIP3    H161280   5.545   0.854   4.990 -2.1567 -1.6343 -2.3297
13263TIP3    H261281   5.428   0.893   5.077 -1.3282 -1.6467 -1.1976
13264TIP3   OH261282   6.360   5.415   5.587  0.1775 -0.0711 -0.6924
13264TIP3    H161283   6.303   5.362   5.531 -0.4966 -0.8690  0.6855
13264TIP3    H261284   6.315   5.417   5.671  1.3839  0.7080 -0.0451
13265TIP3   OH261285   5.724   2.245   0.022 -0.0862 -0.7260  0.0918
13265TIP3    H161286   5.686   2.327   0.053 -0.3789 -0.6472 -0.4636
13265TIP3    H261287   5.792   2.224   0.086 -1.4624 -1.1962  1.4627
13266TIP3   OH261288   3.975   2.982   0.063  0.0083 -0.7306 -0.0480
13266TIP3    H161289   3.996   2.983  -0.031 -0.0260  0.5888 -0.0660
13266TIP3    H261290   3.883   3.011   0.066  0.4944  0.8674  0.4697
13267TIP3   OH261291   2.799   2.386   3.184 -0.5136 -0.1204 -0.0382
13267TIP3    H161292   2.859   2.455   3.156 -0.5542 -0.5338 -1.1991
13267TIP3    H261293   2.854   2.326   3.234 -0.4577  0.6839  0.8928
13268TIP3   OH261294   3.014   3.964   2.181  0.4183 -0.2544 -0.1925
13268TIP3    H161295   2.938   4.006   2.140  0.1952 -0.1000  0.3738
13268TIP3    H261296   2.983   3.878   2.209  0.3579 -0.0636  0.3354
13269TIP3   OH261297   4.286   1.405   1.901  0.3042  0.0120 -0.0733
13269TIP3    H161298   4.216   1.389   1.838  0.2614  0.6090 -0.1757
13269TIP3    H261299   4.329   1.319   1.911  1.8703  0.3660 -2.7480
13270TIP3   OH261300   6.289   6.309  15.087 -0.0016 -0.0892 -0.0494
13270TIP3    H161301   6.216   6.258  15.123 -0.4120 -0.3143 -1.1501
13270TIP3    H261302   6.350   6.244  15.054 -0.0742  0.1158 -0.5981
13271TIP3   OH261303   5.661   4.829  15.969 -0.2615  0.5513 -0.4384
13271TIP3    H161304   5.698   4.845  15.882 -1.0533  1.4092 -0.6318
13271TIP3    H261305   5.716   4.760  16.006 -0.7788 -0.8758 -2.1767
13272TIP3   OH261306   1.633   4.254  11.972 -0.5972  0.0706  0.3587
13272TIP3    H161307   1.672   4.166  11.965 -0.9578 -0.0340 -0.3543
13272TIP3    H261308   1.663   4.286  12.058 -0.9498 -0.9881  0.8958
13273TIP3   OH261309   5.629   5.545  14.172  0.3765 -0.4507  0.7433
13273TIP3    H161310   5.708   5.540  14.226  0.9868  0.9216  0.0252
13273TIP3    H261311   5.561   5.579  14.231  0.3616 -1.3880  1.2897
13274TIP3   OH261312   0.049   1.613   0.456  0.7803  0.4735 -0.7731
13274TIP3    H161313   0.004   1.555   0.516  1.3158  1.8497  1.0524
13274TIP3    H261314  -0.009   1.620   0.380 -1.0326  0.5088  0.5769
13275TIP3   OH261315   2.077   6.411  16.952  0.3265  0.4668 -0.5347
13275TIP3    H161316   2.040   6.414  16.864  1.8557  1.0469 -1.2039
13275TIP3    H261317   2.044   6.489  16.996 -2.1237 -0.8778  0.1773
13276TIP3   OH261318   0.215   0.811   6.017  0.4982 -0.4894 -0.0166
13276TIP3    H161319   0.275   0.758   5.965 -0.2579 -0.6764 -0.7293
13276TIP3    H261320   0.235   0.789   6.108  0.3251 -1.8672 -0.2963
13277TIP3   OH261321   6.272   3.079  13.591 -0.0580  0.3770  0.2357
13277TIP3    H161322   6.272   3.006  13.529  1.1779 -0.7242  1.4610
13277TIP3    H261323   6.196   3.062  13.647 -0.3312  0.5815 -0.0654
13278TIP3   OH261324   4.258   4.928  12.006  0.1838  0.3848  0.1226
13278TIP3    H161325   4.209   4.846  12.002 -0.7422  0.9059  0.3971
13278TIP3    H261326   4.288   4.942  11.916  0.2423 -0.1880  0.0496
13279TIP3   OH261327   2.024   6.255   4.010  0.0966 -0.0737  0.1498
13279TIP3    H161328   1.984   6.193   3.948  0.8804 -0.2824 -0.1510
13279TIP3    H261329   1.951   6.310   4.039 -0.7842 -1.6174  1.0051
13280TIP3   OH261330   1.461   3.989  13.577 -0.4350 -0.0525  0.1817
13280TIP3    H161331   1.523   3.971  13.506 -0.5844  0.6703 -0.1409
13280TIP3    H261332   1.420   4.072  13.552 -0.3151  0.3325  1.2486
13281TIP3   OH261333   4.502   4.400   1.218 -0.4339 -0.1552 -0.1426
13281TIP3    H161334   4.496   4.415   1.123  1.6568 -1.1655 -0.5148
13281TIP3    H261335   4.512   4.487   1.255 -1.3935  0.2650 -0.8343
13282TIP3   OH261336   5.718   5.607   3.416  0.7880 -0.0340  0.4043
13282TIP3    H161337   5.785   5.542   3.397  0.1244 -0.9821  1.2131
13282TIP3    H261338   5.638   5.572   3.378  0.5129  0.5248  0.4504
13283TIP3   OH261339   6.595   0.961  11.769 -0.2280  0.9100  0.3228
13283TIP3    H161340   6.518   1.011  11.742 -0.0656  0.1304 -1.7359
13283TIP3    H261341   6.668   1.024  11.760 -0.1657  0.6550 -1.2568
13284TIP3   OH261342   1.115   1.580   4.772 -0.0394 -0.3139 -0.0329
13284TIP3    H161343   1.021   1.559   4.769 -0.2470  0.4108  1.1800
13284TIP3    H261344   1.156   1.500   4.804 -0.1293 -0.8922 -1.2711
13285TIP3   OH261345   3.793   2.791   5.481 -0.2415  0.0607  0.0477
13285TIP3    H161346   3.844   2.784   5.400 -0.0487  1.4893  0.0196
13285TIP3    H261347   3.833   2.865   5.528 -2.3837  1.3825 -0.0614
13286TIP3   OH261348   5.128   1.230   0.774 -0.0854 -0.0213  0.1514
13286TIP3    H161349   5.220   1.205   0.763 -0.1969 -1.4673  1.9424
13286TIP3    H261350   5.112   1.219   0.868 -1.9535  0.7498 -0.0426
13287TIP3   OH261351   5.775   3.369   5.208  0.4963  0.5061 -0.3449
13287TIP3    H161352   5.718   3.431   5.255  1.3686  1.5897 -0.6643
13287TIP3    H261353   5.790   3.411   5.123  1.0313 -0.1996 -0.6022
13288TIP3   OH261354   4.716   4.982   0.346 -0.6451 -0.1055  0.0297
13288TIP3    H161355   4.704   4.982   0.441  0.0775  0.3950  0.1301
13288TIP3    H261356   4.628   4.973   0.310 -0.9204 -0.3388  0.7448
13289TIP3   OH261357   2.076   5.472   3.330  0.7155 -0.2310 -0.4853
13289TIP3    H161358   2.049   5.519   3.409  0.1085  0.0818 -0.8666
13289TIP3    H261359   2.125   5.396   3.362  1.2004  0.3484  0.1555
13290TIP3   OH261360   3.610   0.509   5.315  0.1138 -0.0344 -0.0091
13290TIP3    H161361   3.573   0.563   5.384 -0.5824 -0.5655  0.0372
13290TIP3    H261362   3.620   0.569   5.241  0.1943  0.3677  0.3243
13291TIP3   OH261363   0.355   1.518   5.710 -0.2734  0.2440 -0.1450
13291TIP3    H161364   0.395   1.478   5.787  1.2863 -0.2893 -1.1676
13291TIP3    H261365   0.281   1.568   5.744  0.3231 -0.0392  1.6737
13292TIP3   OH261366   3.750   5.109  11.681 -0.0173  0.0795 -0.3782
13292TIP3    H161367   3.704   5.149  11.608  0.5165  0.7260 -0.3726
13292TIP3    H261368   3.688   5.047  11.718 -0.5535  0.2867 -0.9244
13293TIP3   OH261369   4.338   5.179  12.702  0.1952 -0.3249 -0.0182
13293TIP3    H161370   4.414   5.124  12.679 -0.1386 -0.5530 -0.5957
13293TIP3    H261371   4.296   5.131  12.773  0.1294 -0.6240 -0.2524
13294TIP3   OH261372   1.439   1.610   4.387 -0.0780 -0.1777  0.2582
13294TIP3    H161373   1.515   1.560   4.417  1.5916  1.7416 -0.5493
13294TIP3    H261374   1.385   1.620   4.466  0.8445 -0.9599  1.0193
13295TIP3   OH261375   0.614   4.728  15.650 -1.1253 -0.5045  0.0489
13295TIP3    H161376   0.522   4.703  15.657 -0.9352 -1.1372  0.3588
13295TIP3    H261377   0.653   4.660  15.596 -0.3398 -1.6168  1.9209
13296TIP3   OH261378   5.979   6.796   5.143 -0.1757  0.3129  0.2545
13296TIP3    H161379   5.996   6.709   5.106  1.8637  0.7806 -0.0517
13296TIP3    H261380   5.886   6.795   5.164 -0.1867 -1.9899  0.3912
13297TIP3   OH261381   4.808   4.998  11.165 -0.1180  0.0022  0.0090
13297TIP3    H161382   4.830   5.015  11.073  1.5237  1.4106  0.6253
13297TIP3    H261383   4.754   5.072  11.190  2.1136  1.3703  1.0352
13298TIP3   OH261384   4.532   2.977  11.076 -0.1613 -0.0824 -0.4242
13298TIP3    H161385   4.536   3.038  11.151  1.1705 -1.4829  0.7099
13298TIP3    H261386   4.624   2.963  11.053 -0.5427 -0.1090 -2.0056
13299TIP3   OH261387   1.105   0.708  13.766 -0.8962 -0.3647  0.4449
13299TIP3    H161388   1.131   0.796  13.790 -1.2263 -0.1317 -0.0398
13299TIP3    H261389   1.081   0.666  13.849  2.9649 -1.3047  1.2789
13300TIP3   OH261390   3.226   4.968  14.977  0.0212  0.8156  0.1399
13300TIP3    H161391   3.242   5.007  15.063 -0.5790 -0.2681  0.7526
13300TIP3    H261392   3.297   4.905  14.966 -0.9214 -0.3880  0.6799
13301TIP3   OH261393   4.543   5.482  16.532 -0.0907 -0.5378  0.9302
13301TIP3    H161394   4.515   5.454  16.446  0.2661 -1.2205  1.0272
13301TIP3    H261395   4.627   5.438  16.545  0.0416 -0.1379  1.4658
13302TIP3   OH261396   4.732   1.584  14.968  0.1323  0.0116  0.0755
13302TIP3    H161397   4.773   1.654  14.918  1.0270  0.3278  1.2178
13302TIP3    H261398   4.645   1.574  14.929  0.9445 -0.0645 -1.8191
13303TIP3   OH261399   0.475   5.205   0.178  1.0024  0.4335  0.0117
13303TIP3    H161400   0.401   5.148   0.160  3.1979 -2.7711  0.1933
13303TIP3    H261401   0.445   5.265   0.247 -1.4962 -0.3958 -0.2938
13304TIP3   OH261402   5.730   1.903   5.759 -0.7066 -0.1899  0.2416
13304TIP3    H161403   5.789   1.971   5.727 -0.4001 -0.0100  1.1637
13304TIP3    H261404   5.784   1.824   5.765 -0.6422 -0.1154  0.7254
13305TIP3   OH261405   0.207   4.247  15.821  0.5931  0.3248 -0.7192
13305TIP3    H161406   0.237   4.159  15.844  1.7290  0.4868 -1.4724
13305TIP3    H261407   0.265   4.273  15.749 -1.9709  0.3113 -2.9169
13306TIP3   OH261408   6.203   2.303   5.624 -0.6961 -0.0992  0.4316
13306TIP3    H161409   6.186   2.209   5.630  0.2406 -0.2719  0.5412
13306TIP3    H261410   6.117   2.342   5.611 -1.2079 -0.8909  1.3191
13307TIP3   OH261411   2.261   4.315   3.247 -0.0673 -0.2699 -0.0214
13307TIP3    H161412   2.265   4.289   3.155  1.1763 -2.5955  0.6050
13307TIP3    H261413   2.243   4.234   3.294 -0.9219  0.9093  1.7922
13308TIP3   OH261414   1.693   4.788   3.217  0.2077 -0.2074  0.3873
13308TIP3    H161415   1.652   4.801   3.302  2.1121  2.2722  1.0383
13308TIP3    H261416   1.780   4.754   3.236  0.4699 -0.1429 -0.5964
13309TIP3   OH261417   5.784   2.826   0.272  0.0358  0.4039 -0.1970
13309TIP3    H161418   5.869   2.857   0.243  0.0428 -1.2379 -2.1765
13309TIP3    H261419   5.722   2.889   0.237  0.3502  1.0603  0.4019
13310TIP3   OH261420   4.202   1.498  10.420  0.0120 -0.5243 -0.0682
13310TIP3    H161421   4.122   1.542  10.448 -0.5148 -0.2804 -1.8460
13310TIP3    H261422   4.197   1.412  10.462  0.3724  0.5259  2.3050
13311TIP3   OH261423   2.001   5.944   1.436  0.3194  0.2264 -0.4569
13311TIP3    H161424   2.092   5.924   1.414  0.2837 -2.7659  1.5204
13311TIP3    H261425   2.006   5.985   1.523 -0.1847  1.6266 -1.0543
13312TIP3   OH261426   1.384   1.807   1.101 -0.5683 -0.3356  0.0334
13312TIP3    H161427   1.305   1.807   1.155 -0.5892  0.3743  0.0144
13312TIP3    H261428   1.419   1.718   1.108 -1.2961 -0.6182  0.1509
13313TIP3   OH261429   0.871   5.669  11.486  0.0117  0.2939 -1.0452
13313TIP3    H161430   0.917   5.701  11.409  0.6326 -2.2848 -1.8433
13313TIP3    H261431   0.939   5.652  11.550 -0.1401 -0.5354 -1.0876
13314TIP3   OH261432   0.326   4.432   0.731  0.5531 -0.5248  0.3654
13314TIP3    H161433   0.246   4.421   0.783 -0.5466  2.0757 -0.5914
13314TIP3    H261434   0.384   4.484   0.787  0.5560 -0.2908  0.1492
13315TIP3   OH261435   6.255   3.621   5.793  1.0557  0.6300  0.2606
13315TIP3    H161436   6.318   3.550   5.807  1.9168  0.9050 -1.8768
13315TIP3    H261437   6.297   3.698   5.829  1.8606  0.7469 -0.8566
13316TIP3   OH261438   3.301   1.818   0.455 -0.1738 -0.1353 -0.2150
13316TIP3    H161439   3.317   1.811   0.549  0.4752 -0.3061 -0.3272
13316TIP3    H261440   3.207   1.808   0.445 -0.0254 -2.5633  0.2227
13317TIP3   OH261441   0.671   5.280  11.521 -0.2417  0.7972  0.3866
13317TIP3    H161442   0.721   5.212  11.566  1.4239  1.3921 -0.4559
13317TIP3    H261443   0.697   5.272  11.430 -0.1661  2.4155  0.2396
13318TIP3   OH261444   1.018   5.988  17.093  0.8646 -0.3916 -0.0635
13318TIP3    H161445   0.963   5.923  17.050 -1.3049 -0.0907  2.0321
13318TIP3    H261446   0.981   6.072  17.066 -0.2773 -0.1941  1.8766
13319TIP3   OH261447   4.775   2.508   2.986 -0.2467  0.4438  0.1791
13319TIP3    H161448   4.719   2.551   3.051 -0.8702 -1.0155  0.6621
13319TIP3    H261449   4.860   2.500   3.029 -1.0450 -1.8925  1.5143
13320TIP3   OH261450   4.069   3.400   4.309 -0.0948 -0.0250  0.8066
13320TIP3    H161451   4.102   3.421   4.396 -1.7702 -0.9139  1.7219
13320TIP3    H261452   3.983   3.442   4.305 -0.4201 -0.7307 -0.0686
13321TIP3   OH261453   6.303   5.827   2.252  0.5420 -0.2576 -0.1271
13321TIP3    H161454   6.300   5.808   2.346 -1.6926 -0.8411 -0.2533
13321TIP3    H261455   6.278   5.919   2.245  1.3091 -0.0415 -0.1365
13322TIP3   OH261456   6.167   3.839  13.664 -0.5685 -0.1772  0.2201
13322TIP3    H161457   6.241   3.782  13.686 -1.5924 -2.2377 -1.2522
13322TIP3    H261458   6.090   3.785  13.683 -1.5973  0.7069 -1.2068
13323TIP3   OH261459   1.253   0.615   3.812  0.7117 -0.4540  0.0196
13323TIP3    H161460   1.236   0.522   3.826  2.6649 -0.8643 -0.0174
13323TIP3    H261461   1.209   0.636   3.730  1.2763 -1.6646 -0.6119
13324TIP3   OH261462   0.687   1.848  15.002 -0.4043  0.0237 -0.3111
13324TIP3    H161463   0.763   1.877  14.952  0.3697 -0.4659  0.5435
13324TIP3    H261464   0.615   1.901  14.969  0.7043  2.0352  0.3352
13325TIP3   OH261465   1.297   3.615   3.517 -0.1527  0.1202  0.1777
13325TIP3    H161466   1.272   3.598   3.426  1.2650  2.9245 -0.8752
13325TIP3    H261467   1.339   3.534   3.546  0.1262 -0.5607 -1.9742
13326TIP3   OH261468   2.786   1.563  17.106  0.3807  0.8027 -0.0829
13326TIP3    H161469   2.870   1.550  17.150  1.0210  0.7631 -1.2715
13326TIP3    H261470   2.792   1.650  17.067  0.7687 -0.0325 -2.0079
13327TIP3   OH261471   3.655   4.405   4.019 -0.0144 -0.4861  0.0809
13327TIP3    H161472   3.737   4.418   3.971 -1.6625 -0.8062 -3.1215
13327TIP3    H261473   3.602   4.482   3.997 -0.6777 -0.3535  1.9596
13328TIP3   OH261474   4.553   0.400  14.422  0.0193 -0.6630 -0.0199
13328TIP3    H161475   4.629   0.368  14.472  1.4244  0.8011 -1.1389
13328TIP3    H261476   4.488   0.330  14.432  0.8899 -1.2469  2.3249
13329TIP3   OH261477   1.496   1.317  13.650  0.1725 -0.1649 -0.2723
13329TIP3    H161478   1.454   1.375  13.586  0.2859 -0.6084 -0.7480
13329TIP3    H261479   1.560   1.373  13.694  0.6816 -0.0672 -1.1227
13330TIP3   OH261480   3.281   0.721  15.776  0.1282 -0.1700  0.1679
13330TIP3    H161481   3.291   0.789  15.708 -0.7970  2.1459  2.2178
13330TIP3    H261482   3.196   0.682  15.758 -1.1100  1.9033  1.1100
13331TIP3   OH261483   3.043   6.799  14.348 -0.3078  0.6206 -0.0617
13331TIP3    H161484   3.089   6.783  14.266  2.0265  4.1476  0.3758
13331TIP3    H261485   3.088   6.743  14.411 -1.3818 -1.2580 -0.8752
13332TIP3   OH261486   0.320   0.613   0.759  0.1954  0.0633  0.0185
13332TIP3    H161487   0.389   0.549   0.740  2.3778  1.8498  1.3405
13332TIP3    H261488   0.245   0.584   0.707  2.0235 -1.8476 -1.7581
13333TIP3   OH261489   2.632   2.196   3.354 -0.2625 -0.3242 -0.5592
13333TIP3    H161490   2.657   2.279   3.313  1.9507 -0.3616  0.5697
13333TIP3    H261491   2.581   2.151   3.287  0.7971  0.7995 -2.2051
13334TIP3   OH261492   4.462   4.415  16.298 -0.4053 -0.2096  0.5320
13334TIP3    H161493   4.393   4.392  16.235 -1.5002 -0.3496  1.7430
13334TIP3    H261494   4.416   4.425  16.381  0.8547  0.9723  1.1292
13335TIP3   OH261495   5.843   2.833   3.566  0.6956 -0.4183 -0.2235
13335TIP3    H161496   5.774   2.775   3.599  2.2955 -2.6103 -0.5299
13335TIP3    H261497   5.856   2.805   3.475  0.1282  1.8438 -1.0589
13336TIP3   OH261498   0.641   3.132  13.404  0.7880  0.2855  0.2204
13336TIP3    H161499   0.699   3.081  13.462 -1.0454 -0.8029  1.1836
13336TIP3    H261500   0.613   3.206  13.458 -0.2815 -0.2894  0.4811
13337TIP3   OH261501   5.350   4.436   1.655  0.3576 -0.3303  0.3006
13337TIP3    H161502   5.322   4.458   1.566 -1.8475 -1.7903  0.5553
13337TIP3    H261503   5.312   4.504   1.710  0.6555 -0.1324  0.2656
13338TIP3   OH261504   5.461   0.721  13.292 -0.0218  0.2694  0.0701
13338TIP3    H161505   5.505   0.802  13.267 -0.7336  0.5121 -0.4182
13338TIP3    H261506   5.502   0.697  13.375  0.0048  1.2841  0.3676
13339TIP3   OH261507   3.531   6.430   1.793  0.1185  0.1322  0.6046
13339TIP3    H161508   3.524   6.337   1.775  1.9583 -0.0156  0.3873
13339TIP3    H261509   3.556   6.434   1.886 -0.1222  0.4218  0.6584
13340TIP3   OH261510   2.592   6.787  10.491 -0.3036  0.9674  0.3779
13340TIP3    H161511   2.565   6.705  10.451 -0.4539  1.2066 -0.0221
13340TIP3    H261512   2.554   6.785  10.579 -0.2862  0.6024  0.3784
13341TIP3   OH261513   0.446   3.318  10.895  0.3746 -0.4365 -0.0469
13341TIP3    H161514   0.472   3.236  10.855 -0.3237 -0.3506 -0.7016
13341TIP3    H261515   0.394   3.362  10.828  0.1055  0.1981  0.5656
13342TIP3   OH261516   2.751   0.594  16.216  0.2464  0.4017 -0.5122
13342TIP3    H161517   2.826   0.651  16.199  1.0112 -0.3995  0.0955
13342TIP3    H261518   2.695   0.605  16.138  0.5496  1.6642 -0.5820
13343TIP3   OH261519   3.911   1.753   0.424 -0.3472 -0.0052 -0.4226
13343TIP3    H161520   3.840   1.689   0.414  0.4224 -1.1758  1.0871
13343TIP3    H261521   3.905   1.808   0.346 -2.2187 -0.7456 -0.8614
13344TIP3   OH261522   6.741   4.903  12.157 -0.2559  0.2683 -0.2534
13344TIP3    H161523   6.695   4.855  12.226  0.1818 -0.2773 -0.3294
13344TIP3    H261524   6.807   4.841  12.125  0.6536  1.0997 -0.0225
13345TIP3   OH261525   0.356   2.566  14.339  0.3001  0.1534  0.1128
13345TIP3    H161526   0.424   2.572  14.406  0.8458 -0.6758 -0.3508
13345TIP3    H261527   0.400   2.587  14.257 -0.3182  0.9540 -0.0222
13346TIP3   OH261528   1.321   3.914   2.157  0.0183 -0.1877  0.3271
13346TIP3    H161529   1.315   3.944   2.248 -1.4456 -0.4122  0.3166
13346TIP3    H261530   1.250   3.959   2.112  0.9597  0.2073 -0.8054
13347TIP3   OH261531   6.148   1.352   6.269 -0.3792 -0.3436 -0.1160
13347TIP3    H161532   6.073   1.387   6.317  0.1588  0.5678  0.0913
13347TIP3    H261533   6.195   1.299   6.333  1.1135  1.9945  0.8723
13348TIP3   OH261534   1.890   6.672  16.933 -0.2366  0.5984  0.0648
13348TIP3    H161535   1.841   6.590  16.919  0.0476  0.4178  0.1128
13348TIP3    H261536   1.824   6.734  16.966 -0.3600  0.2500  0.4905
13349TIP3   OH261537   1.345   2.181   4.064  0.5359  0.1240  0.4842
13349TIP3    H161538   1.372   2.130   3.988  0.4569 -2.2607  1.9205
13349TIP3    H261539   1.328   2.269   4.030  0.7176 -0.7758 -2.1714
13350TIP3   OH261540   6.315   4.111   1.105 -0.4685  0.1706 -0.6682
13350TIP3    H161541   6.294   4.035   1.052 -2.2004  1.5445 -2.0924
13350TIP3    H261542   6.258   4.103   1.182  0.8526 -0.9644  0.2558
13351TIP3   OH261543   0.569   3.885  11.885 -0.6154 -0.0071  0.0494
13351TIP3    H161544   0.572   3.836  11.803 -0.1438  1.0342 -0.5758
13351TIP3    H261545   0.559   3.977  11.858  0.9636  0.5242  1.0745
13352TIP3   OH261546   4.251   2.762  16.986 -0.4276  0.1863  0.0822
13352TIP3    H161547   4.166   2.806  16.989 -1.1865 -1.2318  0.2937
13352TIP3    H261548   4.278   2.753  17.078 -0.3140  0.1413  0.0449
13353TIP3   OH261549   1.496   1.456   5.480 -0.5204  0.2624  0.1792
13353TIP3    H161550   1.486   1.549   5.499  1.1754  0.1489  2.0690
13353TIP3    H261551   1.449   1.412   5.552 -0.1287 -0.3186  0.0874
13354TIP3   OH261552   6.272   3.506   4.713  0.1350 -0.3720  0.2627
13354TIP3    H161553   6.297   3.526   4.803 -1.2717  0.0994  0.5750
13354TIP3    H261554   6.272   3.410   4.709 -0.8914 -0.4277  1.1139
13355TIP3   OH261555   0.207   0.247  16.804  0.3923  0.3953  0.2742
13355TIP3    H161556   0.202   0.290  16.889  3.4144  2.9636 -0.6292
13355TIP3    H261557   0.249   0.312  16.747  0.1703 -1.8581 -2.7424
13356TIP3   OH261558   0.743   2.513  13.085  0.0232  0.0705  0.0116
13356TIP3    H161559   0.647   2.509  13.091  0.1093 -0.7538  1.1094
13356TIP3    H261560   0.768   2.432  13.042  0.1851  0.6790 -1.0573
13357TIP3   OH261561   4.879   0.866  17.030  0.7394  0.0954 -0.1513
13357TIP3    H161562   4.955   0.890  16.978  0.3281  1.3898 -0.1874
13357TIP3    H261563   4.859   0.776  17.004  1.2488  0.3152 -1.3570
13358TIP3   OH261564   1.936   1.194   0.381  0.2472  1.0771  0.4535
13358TIP3    H161565   1.841   1.204   0.368  0.3314  1.4682  0.1128
13358TIP3    H261566   1.974   1.214   0.295  0.5054 -1.3128 -0.0462
13359TIP3   OH261567   2.955   0.847  16.603  0.0029 -0.0029  0.0165
13359TIP3    H161568   3.010   0.819  16.529 -0.7387 -0.6977 -0.2898
13359TIP3    H261569   3.015   0.893  16.661  0.9412 -0.8189 -0.2677
13360TIP3   OH261570   5.170   4.656   0.657  0.0428 -0.3436  0.4974
13360TIP3    H161571   5.100   4.638   0.720 -0.9745  1.2233 -0.1253
13360TIP3    H261572   5.157   4.592   0.588  0.1565 -1.0208  1.0938
13361TIP3   OH261573   1.264   2.556  16.734 -0.2198  0.0036 -0.4116
13361TIP3    H161574   1.298   2.551  16.644  0.9407  0.2751 -0.0110
13361TIP3    H261575   1.339   2.532  16.789 -0.7788  0.3172  0.5055
13362TIP3   OH261576   4.333   2.321  14.684  0.1754 -0.0622  0.4792
13362TIP3    H161577   4.322   2.397  14.626 -0.5593 -0.3532  0.2147
13362TIP3    H261578   4.427   2.306  14.687  0.2502  0.1862 -0.3536
13363TIP3   OH261579   3.498   5.536  12.519 -0.0377 -0.0080 -0.5126
13363TIP3    H161580   3.533   5.619  12.550  0.6041 -0.7878  0.9500
13363TIP3    H261581   3.566   5.472  12.540 -1.4988 -1.2715  0.6753
13364TIP3   OH261582   5.590   0.749   1.022 -0.2491  0.1715  0.4067
13364TIP3    H161583   5.572   0.826   0.967 -0.4006  1.1851  1.8079
13364TIP3    H261584   5.679   0.765   1.056 -0.7201  0.3258  1.6183
13365TIP3   OH261585   3.852   2.683  15.699  0.2381 -0.0065 -0.4756
13365TIP3    H161586   3.918   2.677  15.630 -0.0859 -0.8557 -0.7212
13365TIP3    H261587   3.902   2.695  15.780  0.6790 -0.3454 -0.6945
13366TIP3   OH261588   2.425   5.744  13.467 -0.1143 -0.2398  0.4873
13366TIP3    H161589   2.343   5.699  13.445  0.4585  0.0344 -2.8075
13366TIP3    H261590   2.489   5.673  13.477 -0.2984 -0.3630  0.8036
13367TIP3   OH261591   0.820   6.272  12.642  0.5035  0.5367  0.6282
13367TIP3    H161592   0.903   6.311  12.668  0.7699 -0.9192  2.1487
13367TIP3    H261593   0.756   6.310  12.702  0.5596 -0.4099  1.3031
13368TIP3   OH261594   1.105   3.245  13.071  0.2058  0.1802  0.4380
13368TIP3    H161595   1.135   3.203  13.152 -0.9137 -0.2338  0.6583
13368TIP3    H261596   1.118   3.339  13.087 -0.1224  0.1151  1.1518
13369TIP3   OH261597   4.786   4.077  14.205 -0.4826  0.0304 -0.3457
13369TIP3    H161598   4.858   4.102  14.147 -0.1835  0.5779  0.2554
13369TIP3    H261599   4.712   4.132  14.177  0.1963  1.7083  1.0321
13370TIP3   OH261600   3.472   2.300   5.323  0.2579 -0.4394  0.1986
13370TIP3    H161601   3.564   2.307   5.300  0.2634 -0.8875  0.0720
13370TIP3    H261602   3.456   2.374   5.382  0.2792  0.6494 -1.1083
13371TIP3   OH261603   3.882   3.906   0.358 -0.1252 -0.0170  0.2058
13371TIP3    H161604   3.828   3.982   0.380 -0.3309 -0.1926  0.3136
13371TIP3    H261605   3.898   3.914   0.264 -0.6831 -0.1881  0.0982
13372TIP3   OH261606   6.697   2.629  14.766  0.1521  0.3889  0.2278
13372TIP3    H161607   6.742   2.594  14.843  2.4584  0.5838 -0.9363
13372TIP3    H261608   6.715   2.723  14.768 -1.8640  0.8144  0.7104
13373TIP3   OH261609   1.669   3.750   5.384 -0.3851  0.2402  0.0115
13373TIP3    H161610   1.675   3.822   5.447  1.6253  1.6482 -1.6386
13373TIP3    H261611   1.724   3.681   5.421  1.8952  1.5604 -0.6740
13374TIP3   OH261612   5.456   0.800  16.953  0.1311 -0.2614 -0.0478
13374TIP3    H161613   5.498   0.739  17.013  0.9755  0.8857  0.5695
13374TIP3    H261614   5.489   0.886  16.980 -1.1790  0.4841 -0.7600
13375TIP3   OH261615   3.662   6.623   0.869 -0.1928 -0.4611  0.2949
13375TIP3    H161616   3.570   6.639   0.892 -0.1549  0.7513 -0.3301
13375TIP3    H261617   3.692   6.706   0.832  0.9187 -1.1076 -0.2808
13376TIP3   OH261618   2.801   0.761  14.995  0.3607  0.0629  0.1046
13376TIP3    H161619   2.863   0.698  15.031 -0.7567 -0.6420  0.8255
13376TIP3    H261620   2.758   0.715  14.923 -0.3543  0.0505  0.5364
13377TIP3   OH261621   0.523   2.551   4.051  0.3676  0.1346  0.4739
13377TIP3    H161622   0.589   2.529   3.986  0.3590  2.2605 -0.3548
13377TIP3    H261623   0.441   2.553   4.001  0.2276  0.9082  0.7226
13378TIP3   OH261624   1.066   3.648  13.569  0.2655 -0.6545  0.2754
13378TIP3    H161625   1.049   3.572  13.624  0.0720 -1.6709 -1.1456
13378TIP3    H261626   1.160   3.645  13.552  0.1505 -1.0016 -0.3505
13379TIP3   OH261627   0.488   1.484  13.415  0.9420  0.1050  0.7991
13379TIP3    H161628   0.411   1.456  13.464  0.7658  0.5669  0.7947
13379TIP3    H261629   0.472   1.456  13.325  0.6715  0.4050  0.7532
13380TIP3   OH261630   4.122   4.094  10.904  0.6351 -0.4060 -0.2549
13380TIP3    H161631   4.084   4.176  10.935  1.6294 -0.3279  0.8683
13380TIP3    H261632   4.047   4.040  10.879 -0.0020  1.1686 -1.9388
13381TIP3   OH261633   5.371   4.222  13.390  0.3209  0.1559 -0.1545
13381TIP3    H161634   5.321   4.303  13.402 -0.1437 -0.2104  0.4507
13381TIP3    H261635   5.441   4.227  13.455  2.2161  1.4805 -2.1256
13382TIP3   OH261636   3.119   4.951   2.010  0.2828 -0.3112  0.2375
13382TIP3    H161637   3.139   5.044   1.996 -1.0240 -0.0497 -0.0540
13382TIP3    H261638   3.205   4.908   2.013  0.8837  0.5941 -1.7501
13383TIP3   OH261639   0.433   5.258   2.736 -0.0984  0.3165 -0.1515
13383TIP3    H161640   0.449   5.164   2.732 -0.0427  0.3325 -0.2811
13383TIP3    H261641   0.520   5.297   2.742 -0.1614  0.2757  1.5532
13384TIP3   OH261642   4.685   2.247   5.771  0.5432 -1.1637 -0.3485
13384TIP3    H161643   4.619   2.237   5.702  0.1786 -1.7308  0.0737
13384TIP3    H261644   4.690   2.161   5.812  1.3736 -1.0554 -0.2118
13385TIP3   OH261645   4.513   6.495  12.831  0.0971  0.0207 -0.0566
13385TIP3    H161646   4.456   6.497  12.908  0.5707  1.0685  0.2783
13385TIP3    H261647   4.548   6.406  12.829  1.1173  0.3460  1.7232
13386TIP3   OH261648   3.429   1.728   3.628  0.3730  0.1930  0.4128
13386TIP3    H161649   3.435   1.817   3.662 -0.0488 -0.0370  1.1188
13386TIP3    H261650   3.350   1.692   3.669 -0.6816  0.1809 -1.4835
13387TIP3   OH261651   2.953   6.193   4.999 -0.0007  0.1374  0.0679
13387TIP3    H161652   3.048   6.206   4.998  0.1591 -0.9764 -0.0478
13387TIP3    H261653   2.941   6.099   4.988 -1.1048  0.1836  0.6974
13388TIP3   OH261654   4.525   1.825  13.792  0.6665  0.7067  0.5476
13388TIP3    H161655   4.594   1.769  13.754  0.7927 -0.4200  2.2990
13388TIP3    H261656   4.536   1.909  13.748  2.3018  0.1617 -0.2008
13389TIP3   OH261657   2.502   2.227   3.595 -0.5144 -0.0098  0.1141
13389TIP3    H161658   2.482   2.140   3.630 -1.4733  0.8782  1.8841
13389TIP3    H261659   2.537   2.210   3.508 -0.2897 -2.1898  0.5822
13390TIP3   OH261660   3.443   3.156  11.583  0.4483  0.2053  0.6462
13390TIP3    H161661   3.399   3.235  11.613  4.0047  1.9015  1.9236
13390TIP3    H261662   3.446   3.165  11.487 -0.2203  1.0134  0.6948
13391TIP3   OH261663   4.458   4.441   2.099  0.6656  0.0184 -0.5758
13391TIP3    H161664   4.465   4.456   2.193  2.2989  1.8673 -0.9518
13391TIP3    H261665   4.417   4.520   2.065 -0.2153 -0.7669 -1.4191
13392TIP3   OH261666   2.405   3.342   5.206  0.2036  0.2102 -0.0845
13392TIP3    H161667   2.434   3.255   5.232 -0.5453 -0.6221 -1.8490
13392TIP3    H261668   2.448   3.358   5.121 -1.5920  0.4496 -1.0042
13393TIP3   OH261669   4.727   5.443  15.571 -0.3783 -0.0932  0.5648
13393TIP3    H161670   4.733   5.397  15.487 -2.5269  0.6735 -0.0982
13393TIP3    H261671   4.675   5.384  15.626 -2.0933  0.9023  0.1070
13394TIP3   OH261672   6.780   4.650   3.554  0.1301  0.1528 -0.5242
13394TIP3    H161673   6.872   4.662   3.577 -0.1299  0.4320  0.4134
13394TIP3    H261674   6.736   4.727   3.591 -0.8488 -1.2107  1.3105
13395TIP3   OH261675   6.035   3.341   1.916  0.3511 -0.0354 -0.1230
13395TIP3    H161676   6.068   3.418   1.871  1.5310 -0.3390  0.1724
13395TIP3    H261677   6.094   3.270   1.888  1.3548 -0.1650  2.1011
13396TIP3   OH261678   2.221   2.054   2.437 -0.5837  0.0220  0.2523
13396TIP3    H161679   2.209   2.132   2.383 -1.4297 -0.2265  0.0603
13396TIP3    H261680   2.157   1.991   2.403 -2.1842  0.3506  2.4459
13397TIP3   OH261681   1.905   4.121   3.253  0.2569  0.1787  0.3574
13397TIP3    H161682   1.933   4.181   3.183 -0.1132  1.3487  1.1917
13397TIP3    H261683   1.986   4.101   3.301  0.3435  0.1578  0.2059
13398TIP3   OH261684   4.922   1.333   2.302 -0.2987  0.0822  0.1428
13398TIP3    H161685   4.839   1.301   2.267  0.4737 -1.9259  0.0475
13398TIP3    H261686   4.913   1.325   2.397  0.0836 -0.9322  0.0971
13399TIP3   OH261687   5.155   0.688  16.752 -0.5895  0.6293 -0.0613
13399TIP3    H161688   5.189   0.621  16.811  0.1744  1.1372  0.0966
13399TIP3    H261689   5.109   0.639  16.684  0.3550 -0.0956 -0.2052
13400TIP3   OH261690   1.272   1.024  15.574  0.0740  0.4995 -0.0133
13400TIP3    H161691   1.214   0.961  15.617  1.8185 -0.5024  0.9774
13400TIP3    H261692   1.333   0.970  15.523 -0.1642  1.5501 -1.4860
13401TIP3   OH261693   2.826   6.363   1.077 -0.7252  0.0443 -0.0228
13401TIP3    H161694   2.844   6.360   0.983 -1.5552 -1.3994 -0.1655
13401TIP3    H261695   2.900   6.411   1.114 -0.7154  1.2090 -1.4807
13402TIP3   OH261696   2.201   5.335   4.191 -0.6683 -0.0509  0.1149
13402TIP3    H161697   2.242   5.396   4.130  1.9035 -2.1317 -0.4765
13402TIP3    H261698   2.175   5.389   4.266  0.3621  1.9087 -0.8641
13403TIP3   OH261699   2.829   4.274   4.990 -0.4363  0.5886  0.6495
13403TIP3    H161700   2.887   4.231   5.054 -1.1903 -0.8537  0.4134
13403TIP3    H261701   2.851   4.233   4.907 -1.0665  0.7785  0.3840
13404TIP3   OH261702   5.207   3.018  14.466 -0.0282 -0.0964 -0.0148
13404TIP3    H161703   5.176   3.107  14.448  1.7013  0.5784  0.1769
13404TIP3    H261704   5.288   3.010  14.415 -2.2930 -3.1768 -3.7107
13405TIP3   OH261705   6.484   1.939  12.947 -0.0474  0.2781  0.2392
13405TIP3    H161706   6.441   1.954  12.863  0.7691 -0.8497 -0.4056
13405TIP3    H261707   6.519   1.850  12.941  0.7026  0.4622  1.4788
13406TIP3   OH261708   1.037   5.947  15.501 -0.1505 -0.2991 -0.0991
13406TIP3    H161709   1.076   6.034  15.508 -0.4396 -0.0967 -0.9770
13406TIP3    H261710   1.111   5.890  15.479 -0.3343  0.1145 -1.9551
13407TIP3   OH261711   1.239   6.759   5.607  0.2414 -0.1558 -0.3023
13407TIP3    H161712   1.232   6.745   5.512 -0.4345 -0.6267 -0.1899
13407TIP3    H261713   1.164   6.815   5.629  0.8494  0.6230 -0.1629
13408TIP3   OH261714   3.556   3.070   0.844 -0.2765  0.3618 -0.3111
13408TIP3    H161715   3.573   3.071   0.938  0.7457  1.5199 -0.4915
13408TIP3    H261716   3.501   2.992   0.831 -2.2513  1.3249  1.5443
13409TIP3   OH261717   2.928   2.269  12.624 -0.3245 -0.0443 -0.4612
13409TIP3    H161718   2.883   2.345  12.660  2.5003  0.5235  2.3932
13409TIP3    H261719   2.983   2.304  12.554 -3.8465 -0.7257 -3.8866
13410TIP3   OH261720   0.056   2.720   1.090 -0.1671 -0.2430 -0.3079
13410TIP3    H161721   0.041   2.753   1.002  1.2387 -1.1412 -0.9118
13410TIP3    H261722  -0.029   2.686   1.117 -0.7548  0.5704 -1.0748
13411TIP3   OH261723   0.129   0.707  16.674 -0.4267  0.4006 -0.3067
13411TIP3    H161724   0.088   0.774  16.728  1.1062  2.0218 -1.0734
13411TIP3    H261725   0.220   0.703  16.704 -0.5009 -1.4986 -0.1657
13412TIP3   OH261726   1.112   4.150   3.950  0.1920  0.4731 -0.4072
13412TIP3    H161727   1.055   4.096   4.004  0.7730  0.6882  0.4423
13412TIP3    H261728   1.088   4.128   3.860 -0.1124 -0.6247 -0.0699
13413TIP3   OH261729   4.527   5.108  11.854  0.2270  0.0286  0.0592
13413TIP3    H161730   4.602   5.154  11.817 -0.6869  0.5180 -1.2611
13413TIP3    H261731   4.458   5.117  11.788 -1.6633  1.3952  2.0658
13414TIP3   OH261732   4.653   3.487   3.664  0.5231 -0.3699 -0.1789
13414TIP3    H161733   4.593   3.413   3.677  0.0039 -0.3900 -2.3420
13414TIP3    H261734   4.730   3.449   3.623 -0.0824  0.3428 -2.0812
13415TIP3   OH261735   1.381   5.269   5.891 -0.0208  0.3245 -1.3568
13415TIP3    H161736   1.348   5.201   5.949 -1.3188 -0.8698 -3.3820
13415TIP3    H261737   1.474   5.278   5.914 -0.8262  1.3130  2.1445
13416TIP3   OH261738   6.599   3.410  15.780 -0.0083 -0.4509 -0.3929
13416TIP3    H161739   6.666   3.395  15.847 -1.1720  1.0684  1.2225
13416TIP3    H261740   6.550   3.327  15.777 -0.9742 -0.0724  1.9777
13417TIP3   OH261741   2.047   2.022  13.347  0.1690  0.3856  0.2544
13417TIP3    H161742   1.953   2.002  13.342 -0.2933  0.9313  3.6989
13417TIP3    H261743   2.088   1.937  13.365 -0.0431  0.4718  1.2351
13418TIP3   OH261744   2.887   4.593   3.688  0.3030  0.3883 -0.2235
13418TIP3    H161745   2.887   4.642   3.606  0.6043  1.1341  0.2153
13418TIP3    H261746   2.945   4.642   3.746  1.7294 -1.2440 -0.2082
13419TIP3   OH261747   2.279   3.994  13.082  0.7283  0.3970 -0.3939
13419TIP3    H161748   2.349   3.935  13.111  0.8405  1.2355  1.1827
13419TIP3    H261749   2.204   3.937  13.066  0.7740 -0.2020  1.2882
13420TIP3   OH261750   1.688   6.535   2.877  0.1254 -0.5335 -0.3063
13420TIP3    H161751   1.622   6.470   2.902 -2.2488  2.1729  1.0279
13420TIP3    H261752   1.654   6.574   2.796 -0.0875  0.9885  0.4672
13421TIP3   OH261753   5.393   0.068   4.920  0.1309 -0.2724 -0.0001
13421TIP3    H161754   5.398  -0.000   4.853  1.4595  1.1451 -1.4314
13421TIP3    H261755   5.309   0.111   4.905  1.2652  1.3835 -2.2575
13422TIP3   OH261756   2.034   5.088  11.977  0.2413  0.4168 -0.4819
13422TIP3    H161757   2.081   5.146  11.918 -0.4167  1.1556 -0.2939
13422TIP3    H261758   2.103   5.046  12.030  0.7003  1.3285 -0.3441
13423TIP3   OH261759   3.518   2.805   4.769  0.6084  0.4449  0.5620
13423TIP3    H161760   3.559   2.849   4.695 -1.6802 -1.8170 -2.3115
13423TIP3    H261761   3.553   2.715   4.765 -0.3852 -0.0040  1.5403
13424TIP3   OH261762   0.781   1.283   4.116  0.0400  0.4651  0.1441
13424TIP3    H161763   0.842   1.357   4.111  2.5464 -1.4746 -0.3797
13424TIP3    H261764   0.827   1.218   4.170  0.1697 -2.5244 -3.1857
13425TIP3   OH261765   0.860   4.195  16.901  0.0754 -0.1049  0.0838
13425TIP3    H161766   0.890   4.105  16.910  0.5901  0.1218  0.7174
13425TIP3    H261767   0.916   4.245  16.960 -1.3340  0.3867  1.0567
13426TIP3   OH261768   3.727   5.659  12.879 -0.1747 -0.4770  0.0484
13426TIP3    H161769   3.740   5.711  12.958 -0.1989 -0.3908 -0.0047
13426TIP3    H261770   3.765   5.573  12.901 -1.0723 -0.7688  0.5074
13427TIP3   OH261771   6.221   6.389  16.663  0.0717 -0.2062  0.8507
13427TIP3    H161772   6.167   6.316  16.632 -0.0137  0.2022  0.0227
13427TIP3    H261773   6.211   6.457  16.596  0.2617  0.5153  1.5447
13428TIP3   OH261774   5.150   3.624  13.887 -0.1738 -0.0311  0.5702
13428TIP3    H161775   5.241   3.644  13.909 -0.1398 -1.6139  2.1316
13428TIP3    H261776   5.147   3.529  13.881 -2.0799 -0.2020  2.6249
13429TIP3   OH261777   3.671   2.939   1.789  0.2421  0.3330 -0.1150
13429TIP3    H161778   3.761   2.959   1.812  0.6311  0.2468 -1.4980
13429TIP3    H261779   3.621   3.015   1.820  0.9837  1.0299 -0.5890
13430TIP3   OH261780   3.616   2.718  16.594  0.3065  0.0840  0.1008
13430TIP3    H161781   3.546   2.682  16.539  2.5232 -0.0858 -2.8211
13430TIP3    H261782   3.688   2.656  16.584  0.5202 -0.6176  4.3156
13431TIP3   OH261783   0.655   4.340   1.736  0.1719 -0.2523 -0.4377
13431TIP3    H161784   0.667   4.278   1.808  0.4290  0.3136  0.0163
13431TIP3    H261785   0.667   4.426   1.776 -0.4880  0.1118 -0.9970
13432TIP3   OH261786   1.848   3.849   6.339  0.3825  0.3599  0.1270
13432TIP3    H161787   1.905   3.792   6.390 -1.0028  0.2167  1.5870
13432TIP3    H261788   1.768   3.857   6.391 -1.8229 -1.1015 -2.6855
13433TIP3   OH261789   4.800   3.803  17.197  0.4569 -0.0053 -0.1480
13433TIP3    H161790   4.888   3.771  17.176  0.9679  0.8046  0.7020
13433TIP3    H261791   4.749   3.724  17.212  1.2588 -0.4775  0.1666
13434TIP3   OH261792   5.528   0.656  14.743 -0.1137  0.3479 -0.2177
13434TIP3    H161793   5.506   0.608  14.664 -1.2052 -0.5984  0.6213
13434TIP3    H261794   5.596   0.604  14.786  0.6660  0.9946 -0.6386
13435TIP3   OH261795   6.213   5.696  14.861 -0.2317 -0.7962  0.6098
13435TIP3    H161796   6.131   5.711  14.815  0.5803  0.2994 -0.5395
13435TIP3    H261797   6.234   5.604  14.842 -0.1666 -0.5021 -0.8208
13436TIP3   OH261798   2.083   5.450  16.507 -0.1308  0.2460 -0.0657
13436TIP3    H161799   2.030   5.484  16.435  0.2886  0.1033 -0.4504
13436TIP3    H261800   2.036   5.373  16.538 -1.7453  1.7919  1.6271
13437TIP3   OH261801   4.867   5.117   2.119  0.2798  0.1400 -0.0323
13437TIP3    H161802   4.813   5.112   2.198  0.9366 -0.2877  0.3959
13437TIP3    H261803   4.929   5.187   2.137  1.9297 -1.4674  0.7986
13438TIP3   OH261804   3.541   5.427  14.787 -0.1911 -0.5788  0.4501
13438TIP3    H161805   3.621   5.461  14.827 -0.3798  1.0937 -0.4678
13438TIP3    H261806   3.473   5.446  14.851 -0.1526 -0.0826  0.3467
13439TIP3   OH261807   3.265   2.137  14.267 -0.1261  0.1113  0.1888
13439TIP3    H161808   3.214   2.057  14.276  0.0843  0.1300  2.1503
13439TIP3    H261809   3.250   2.166  14.177 -2.9890 -0.2682  0.4594
13440TIP3   OH261810   0.785   5.284   0.605  0.4731  0.2037  0.0050
13440TIP3    H161811   0.774   5.376   0.580 -2.5254  0.0592  0.4485
13440TIP3    H261812   0.838   5.246   0.535 -1.3813  1.4713 -2.1903
13441TIP3   OH261813   5.757   2.089  11.666 -0.0184 -1.0344  0.1150
13441TIP3    H161814   5.725   2.178  11.650  0.1768 -0.7455  1.2390
13441TIP3    H261815   5.687   2.032  11.632 -0.4487 -0.4496  0.0050
13442TIP3   OH261816   5.990   5.146  15.371  0.0019  0.2872  0.0485
13442TIP3    H161817   6.024   5.094  15.298  0.5993  1.3753 -0.4665
13442TIP3    H261818   5.895   5.136  15.364  0.1002 -0.9670  0.1517
13443TIP3   OH261819   4.966   3.929   1.326  0.0153  0.8455  0.1746
13443TIP3    H161820   4.945   4.003   1.384 -1.5615  0.2356  0.4534
13443TIP3    H261821   4.927   3.853   1.370  2.7599 -0.4338  0.5918
13444TIP3   OH261822   4.820   2.272   1.457 -0.1898  0.4232  0.4451
13444TIP3    H161823   4.732   2.284   1.493 -0.5618  0.8527 -0.5657
13444TIP3    H261824   4.868   2.350   1.484 -0.4179  0.6641  0.1633
13445TIP3   OH261825   2.759   2.784  12.584 -0.5634  0.3067  0.5575
13445TIP3    H161826   2.716   2.763  12.501 -0.2299  2.0494 -0.1048
13445TIP3    H261827   2.784   2.876  12.575 -2.6696  1.3108  3.4929
13446TIP3   OH261828   1.872   1.178   5.458  0.0714  0.0699  0.4515
13446TIP3    H161829   1.930   1.232   5.404 -1.0060  1.9535  1.0747
13446TIP3    H261830   1.915   1.175   5.544 -0.0328  0.2299  0.5099
13447TIP3   OH261831   6.664   0.345  12.514  0.2795 -0.0490  0.8832
13447TIP3    H161832   6.623   0.259  12.518 -1.3107  0.5329 -1.2581
13447TIP3    H261833   6.601   0.404  12.555 -0.4072  0.6238 -1.0448
13448TIP3   OH261834   5.576   3.861   2.662 -0.1189 -0.5930 -0.1515
13448TIP3    H161835   5.582   3.940   2.716 -0.3134  0.3918 -1.5250
13448TIP3    H261836   5.506   3.809   2.703 -0.1551  0.0500  0.6235
13449TIP3   OH261837   1.660   1.150  12.910 -0.0227 -0.1767 -0.5535
13449TIP3    H161838   1.663   1.221  12.846  1.3673  0.0956 -0.2211
13449TIP3    H261839   1.590   1.093  12.879  0.3492  0.1570 -2.1095
13450TIP3   OH261840   1.791   1.412   2.225  0.0353  0.1157 -0.1019
13450TIP3    H161841   1.848   1.378   2.294 -2.5081  0.5443  2.4262
13450TIP3    H261842   1.758   1.334   2.181  1.0320 -0.2115 -0.2920
13451TIP3   OH261843   1.992   2.962   3.306  0.2106 -0.3554  0.3609
13451TIP3    H161844   1.925   2.932   3.367  0.5148  2.2599  2.1681
13451TIP3    H261845   2.042   2.884   3.284 -1.6483 -1.8642  1.2367
13452TIP3   OH261846   4.015   6.345   1.436 -0.4250 -0.1566  0.2760
13452TIP3    H161847   4.098   6.373   1.474 -0.7932  0.0497  0.9515
13452TIP3    H261848   4.009   6.252   1.457  0.8811 -0.8658 -2.1210
13453TIP3   OH261849   0.945   2.304   5.156 -0.4130 -0.3047 -0.0237
13453TIP3    H161850   0.935   2.378   5.216  0.2175  1.7481 -2.2994
13453TIP3    H261851   1.037   2.277   5.166  0.0140  0.7827 -0.8197
13454TIP3   OH261852   2.379   0.338  16.663 -0.1508 -0.0133  0.2715
13454TIP3    H161853   2.286   0.322  16.679 -0.1745 -0.1156  0.0363
13454TIP3    H261854   2.383   0.428  16.631 -0.5336 -0.9314 -2.6578
13455TIP3   OH261855   3.155   6.760  11.705  1.0396 -0.1170 -0.2358
13455TIP3    H161856   3.246   6.753  11.676  0.9321  0.0455 -0.6152
13455TIP3    H261857   3.122   6.838  11.661  0.6020 -0.3949 -0.4016
13456TIP3   OH261858   5.977   6.204   5.223 -0.5887 -0.6712  0.6374
13456TIP3    H161859   6.071   6.188   5.220 -0.3229  0.8229 -0.0636
13456TIP3    H261860   5.938   6.119   5.242  0.8993 -1.3155  0.8985
13457TIP3   OH261861   0.697   4.549  13.222  0.1147 -0.1552  0.4162
13457TIP3    H161862   0.779   4.554  13.272 -1.0534  1.1739  2.3171
13457TIP3    H261863   0.657   4.635  13.232 -2.9199 -1.5943  2.1058
13458TIP3   OH261864   2.029   0.670  15.963  0.0212 -0.4528 -0.1058
13458TIP3    H161865   1.978   0.693  15.885 -0.8653  0.1828  0.6497
13458TIP3    H261866   2.021   0.575  15.969 -0.4408 -0.4373 -0.4198
13459TIP3   OH261867   3.065   4.189   6.002 -0.3938 -0.3308  0.5067
13459TIP3    H161868   3.016   4.111   6.026 -0.1448 -1.2776 -1.8319
13459TIP3    H261869   3.025   4.219   5.920  0.4307  1.1684  0.6062
13460TIP3   OH261870   0.411   4.629  11.473  0.1094 -0.0117 -0.2368
13460TIP3    H161871   0.432   4.538  11.494 -0.7348 -0.0599  0.4365
13460TIP3    H261872   0.431   4.638  11.380 -1.2938 -1.3292 -0.7029
13461TIP3   OH261873   1.711   5.991  15.230  0.6064  0.0062 -0.1383
13461TIP3    H161874   1.634   6.048  15.239  1.0754  0.8927 -1.4430
13461TIP3    H261875   1.744   6.009  15.142 -0.2986 -3.6593 -1.4068
13462TIP3   OH261876   0.801   4.234   1.514 -0.2367  0.4960  0.0735
13462TIP3    H161877   0.888   4.275   1.514 -0.1996  0.4384 -0.7585
13462TIP3    H261878   0.754   4.278   1.585  0.5497  0.3477  0.7015
13463TIP3   OH261879   2.715   1.581   5.366 -0.4251 -0.0439  0.1544
13463TIP3    H161880   2.747   1.646   5.428 -2.8406  1.7206 -0.3103
13463TIP3    H261881   2.719   1.626   5.281 -3.1639 -0.0040 -0.0331
13464TIP3   OH261882   6.608   0.843   3.608  0.0955  0.4001  0.4583
13464TIP3    H161883   6.642   0.756   3.588 -0.9032  0.3757 -1.3631
13464TIP3    H261884   6.532   0.827   3.665  1.5465  0.3123  2.4790
13465TIP3   OH261885   5.146   2.214  12.147  0.1189  0.2142  0.2162
13465TIP3    H161886   5.206   2.174  12.084 -2.1666  0.6275 -2.4029
13465TIP3    H261887   5.161   2.308  12.138 -0.9882  0.3305 -0.6079
13466TIP3   OH261888   3.798   1.232   1.627  0.7044  0.5117 -0.1372
13466TIP3    H161889   3.719   1.183   1.605  0.5801  0.9801 -0.7788
13466TIP3    H261890   3.774   1.324   1.611  0.8624  0.8128  1.2458
13467TIP3   OH261891   0.609   5.072   4.575  0.0095 -0.2008 -0.8180
13467TIP3    H161892   0.704   5.078   4.560 -0.2384  0.6319 -2.2571
13467TIP3    H261893   0.571   5.126   4.506 -1.4715  0.7680  0.7058
13468TIP3   OH261894   5.904   5.411   1.359 -0.3089 -0.5763  0.1692
13468TIP3    H161895   5.856   5.381   1.436 -1.1853 -0.5263 -0.3463
13468TIP3    H261896   5.863   5.366   1.286 -0.4994  0.5542 -0.4296
13469TIP3   OH261897   1.303   1.599   5.842 -0.5404 -0.1463 -0.3402
13469TIP3    H161898   1.308   1.544   5.920 -0.2773 -2.5718 -1.9431
13469TIP3    H261899   1.370   1.666   5.856 -0.4359 -0.5677  1.4557
13470TIP3   OH261900   6.328   6.081   2.387 -0.0259 -0.4539  0.2823
13470TIP3    H161901   6.357   6.166   2.356 -0.0904 -0.7598 -0.6320
13470TIP3    H261902   6.403   6.047   2.437 -0.0638  0.1982  0.7995
13471TIP3   OH261903   4.463   0.075  16.110 -0.3035 -0.3867 -0.0661
13471TIP3    H161904   4.466   0.167  16.134 -0.5043 -0.3821 -0.0528
13471TIP3    H261905   4.382   0.066  16.060 -0.1320 -0.4953 -0.3258
13472TIP3   OH261906   1.527   5.257   2.002 -0.1421 -0.0942  0.2121
13472TIP3    H161907   1.530   5.222   2.091  0.0518  0.3663  0.3918
13472TIP3    H261908   1.506   5.350   2.014  0.8517  0.1894 -0.1604
13473TIP3   OH261909   5.159   1.160   2.361 -0.2556  0.7596  0.6404
13473TIP3    H161910   5.090   1.209   2.317 -0.6512  1.4187  1.9171
13473TIP3    H261911   5.240   1.192   2.323 -0.6141  0.2245 -0.6378
13474TIP3   OH261912   2.404   0.870   3.529  0.4826 -0.3414 -0.0008
13474TIP3    H161913   2.380   0.820   3.606  0.3804  0.1408  0.2874
13474TIP3    H261914   2.340   0.942   3.526 -0.5326 -1.2454 -1.4308
13475TIP3   OH261915   1.352   0.770  16.748 -0.3200  0.2008  0.1187
13475TIP3    H161916   1.423   0.726  16.700 -1.1712 -1.1141  0.0250
13475TIP3    H261917   1.346   0.856  16.706  1.7400  0.6761  0.6502
13476TIP3   OH261918   4.811   1.810   2.879  0.8084  0.3367  0.4571
13476TIP3    H161919   4.894   1.796   2.926  1.4001 -0.3293 -0.7581
13476TIP3    H261920   4.812   1.903   2.858  1.0201  0.4343  0.8784
13477TIP3   OH261921   2.341   4.331   1.487 -0.5021 -0.1589 -0.1853
13477TIP3    H161922   2.376   4.393   1.423 -1.0272  0.0507 -0.2767
13477TIP3    H261923   2.415   4.275   1.510 -0.1500  0.1817 -0.4846
13478TIP3   OH261924   3.430   3.203   3.807  0.0017 -0.2336 -0.6179
13478TIP3    H161925   3.403   3.181   3.718 -0.3899 -0.6915 -0.3928
13478TIP3    H261926   3.473   3.123   3.839  1.1808  0.3084 -0.7916
13479TIP3   OH261927   4.086   2.234   2.275 -0.1244 -0.4448  0.3781
13479TIP3    H161928   4.062   2.276   2.357 -0.0908 -0.1348  0.2284
13479TIP3    H261929   4.179   2.214   2.285  0.1220  0.4718  0.0394
13480TIP3   OH261930   1.321   6.631  17.098 -0.4773  0.3115 -0.4251
13480TIP3    H161931   1.325   6.681  17.017 -0.2170  0.1456 -0.5152
13480TIP3    H261932   1.316   6.697  17.168  0.1640  0.4712 -0.5222
13481TIP3   OH261933   2.171   4.290  13.934 -0.4758  0.9027  0.4202
13481TIP3    H161934   2.217   4.218  13.976 -1.3166  0.9646  1.5213
13481TIP3    H261935   2.170   4.268  13.841 -1.9565 -1.2690  0.8690
13482TIP3   OH261936   0.420   6.306   5.943  0.6639 -0.0984  0.4703
13482TIP3    H161937   0.419   6.320   6.038 -0.1671  1.3015  0.2709
13482TIP3    H261938   0.336   6.266   5.924  1.2164 -1.2778  0.4279
13483TIP3   OH261939   6.753   6.808  16.989 -0.3139 -0.5466  0.0053
13483TIP3    H161940   6.844   6.790  16.965 -0.7622 -1.0852 -1.4117
13483TIP3    H261941   6.746   6.784  17.081  0.5493 -2.2195 -0.3365
13484TIP3   OH261942   0.163   0.872   0.642 -0.0594  0.1405 -0.1449
13484TIP3    H161943   0.223   0.827   0.583 -1.2181 -0.8375 -0.6193
13484TIP3    H261944   0.114   0.802   0.685 -1.0038  0.9146  0.0757
13485TIP3   OH261945   5.807   1.194   5.618  0.0464  0.5684 -0.0152
13485TIP3    H161946   5.721   1.155   5.603  0.0843  1.2610 -2.5193
13485TIP3    H261947   5.789   1.285   5.640  0.1021  0.2278  1.5143
13486TIP3   OH261948   4.494   2.595  13.115  0.0471  0.1721 -0.7498
13486TIP3    H161949   4.552   2.666  13.085  1.7117 -1.0472 -0.5872
13486TIP3    H261950   4.493   2.532  13.043 -1.1199  0.1673 -0.7461
13487TIP3   OH261951   1.083   4.501  10.931  0.1292  0.3604 -0.5004
13487TIP3    H161952   1.045   4.552  10.859  0.4720  0.8065 -0.3696
13487TIP3    H261953   1.128   4.566  10.985  0.4654 -0.0680 -0.2616
13488TIP3   OH261954   5.614   3.027  11.566 -0.1266  0.2420 -0.0456
13488TIP3    H161955   5.537   3.006  11.515 -1.5669  0.4191  1.9494
13488TIP3    H261956   5.682   3.047  11.501 -1.6533 -0.1986 -1.8366
13489TIP3   OH261957   6.005   6.500  14.056  0.2472  0.0207 -0.4417
13489TIP3    H161958   6.086   6.547  14.039 -0.0317  0.2520 -1.1495
13489TIP3    H261959   5.970   6.541  14.136 -0.2020  1.3226 -1.2649
13490TIP3   OH261960   4.317   4.991   3.828 -0.0264 -0.5439  0.6100
13490TIP3    H161961   4.359   4.930   3.888  0.9775  0.6413  1.1549
13490TIP3    H261962   4.225   4.992   3.854  0.2969 -0.4587  1.7787
13491TIP3   OH261963   0.625   6.814   5.979 -0.2156  0.4080  0.4833
13491TIP3    H161964   0.681   6.736   5.978 -0.4699  0.2343 -0.4037
13491TIP3    H261965   0.646   6.860   5.897 -2.3992 -0.3936 -0.5905
13492TIP3   OH261966   2.185   4.786  13.379 -0.4458  0.1281  0.2054
13492TIP3    H161967   2.147   4.698  13.380  1.0345 -0.5469  0.1938
13492TIP3    H261968   2.154   4.825  13.298 -0.3530 -0.7621 -0.2734
13493TIP3   OH261969   0.637   1.746  16.102 -0.4476 -0.6392  0.0869
13493TIP3    H161970   0.682   1.793  16.031 -1.9329  0.3649 -0.2511
13493TIP3    H261971   0.547   1.779  16.099 -1.3816 -2.9662  0.3696
13494TIP3   OH261972   5.343   5.224  15.011 -0.0965  0.0596 -0.1256
13494TIP3    H161973   5.302   5.276  15.080  2.2518  2.8528 -0.6357
13494TIP3    H261974   5.335   5.278  14.933  3.3804  0.3234 -0.4748
13495TIP3   OH261975   3.251   3.226  12.247  0.3545 -0.1530 -0.2028
13495TIP3    H161976   3.302   3.169  12.189  1.0188  0.8085 -0.5849
13495TIP3    H261977   3.275   3.198  12.336  1.2657  0.0407 -0.3834
13496TIP3   OH261978   4.054   3.303  17.250  0.2091 -0.0166 -0.4599
13496TIP3    H161979   4.006   3.280  17.330  1.3243 -1.6167 -0.2114
13496TIP3    H261980   4.142   3.270  17.265  0.8139  0.9328 -1.7944
13497TIP3   OH261981   3.948   5.313  14.875  0.4917  0.1716  0.4638
13497TIP3    H161982   3.916   5.320  14.785 -1.2879  2.2429  1.1784
13497TIP3    H261983   3.921   5.226  14.903  2.6283 -1.2310 -1.4936
13498TIP3   OH261984   6.727   1.624   0.037 -1.3423  0.3061 -0.1618
13498TIP3    H161985   6.782   1.627  -0.041 -1.1002 -0.2296 -0.0168
13498TIP3    H261986   6.641   1.596   0.004 -1.4375  0.8080 -0.3403
13499TIP3   OH261987   2.658   0.391  15.051 -0.4321 -0.2782  0.1880
13499TIP3    H161988   2.591   0.410  15.116  0.3253  1.4747  0.5096
13499TIP3    H261989   2.695   0.307  15.079 -2.6380 -1.4206 -0.1678
13500TIP3   OH261990   2.482   3.686  13.532  0.4529 -0.2633 -0.1271
13500TIP3    H161991   2.487   3.596  13.499  1.0161  0.5446 -2.4894
13500TIP3    H261992   2.571   3.721  13.519  0.3638  0.5080  1.1993
13501TIP3   OH261993   6.772   6.064   0.085  0.4411 -0.0094  0.2513
13501TIP3    H161994   6.864   6.074   0.106  0.3008 -0.6639  1.2710
13501TIP3    H261995   6.728   6.062   0.170 -0.4186 -0.4809 -0.1845
13502TIP3   OH261996   2.506   0.875  14.964 -0.1468 -0.1631  0.2196
13502TIP3    H161997   2.494   0.815  14.890  1.1590 -1.4026  0.9715
13502TIP3    H261998   2.534   0.819  15.036  0.4551  1.2704  1.1425
13503TIP3   OH261999   3.944   0.451   3.305  0.0369  0.2149  0.4052
13503TIP3    H162000   3.991   0.396   3.368 -1.4937 -0.9093  0.6145
13503TIP3    H262001   4.001   0.453   3.228  1.0655  0.0399  1.1389
13504TIP3   OH262002   3.713   4.880  11.841  0.5312 -0.8522 -0.5086
13504TIP3    H162003   3.774   4.913  11.907  1.1454 -1.5570 -0.7085
13504TIP3    H262004   3.671   4.805  11.883 -0.7627  0.0555 -0.1049
13505TIP3   OH262005   0.166   1.277  16.665 -0.0193 -0.0531  0.0962
13505TIP3    H162006   0.081   1.254  16.627  1.0616  0.1879 -2.6486
13505TIP3    H262007   0.155   1.368  16.692 -0.8558 -0.2690  0.5488
13506TIP3   OH262008   0.467   0.681   2.046 -0.2241  0.0220  0.7070
13506TIP3    H162009   0.490   0.621   1.975 -1.0496 -0.2686  0.6822
13506TIP3    H262010   0.550   0.725   2.067 -0.0428  0.4026 -0.6931
13507TIP3   OH262011   2.319   6.611  11.917 -0.1007  0.1835 -0.5191
13507TIP3    H162012   2.321   6.664  11.996 -0.2830  0.6676 -0.8346
13507TIP3    H262013   2.265   6.535  11.940 -2.1100  1.4542 -0.8676
13508TIP3   OH262014   6.015   5.310   5.686  0.7259  0.0534  0.3940
13508TIP3    H162015   6.086   5.347   5.738  0.6852  0.3324  0.2528
13508TIP3    H262016   5.942   5.371   5.698  0.1324 -0.8462  1.4862
13509TIP3   OH262017   1.223   2.005   3.670  0.0675  0.1412  0.1856
13509TIP3    H162018   1.302   1.997   3.724  0.8607  0.0013 -0.9718
13509TIP3    H262019   1.180   2.084   3.702  1.7071  1.3474 -0.4688
13510TIP3   OH262020   5.054   4.784   4.487  0.3420 -0.1854  0.7922
13510TIP3    H162021   5.029   4.696   4.459  3.5702 -1.5391  1.7067
13510TIP3    H262022   5.040   4.839   4.410 -1.6952 -1.4477  0.1848
13511TIP3   OH262023   1.004   3.907  16.230 -0.1364 -0.3338  0.3083
13511TIP3    H162024   0.985   3.850  16.156  0.8035  0.1366 -0.3210
13511TIP3    H262025   1.069   3.969  16.196 -1.0129  1.0155  1.0073
13512TIP3   OH262026   0.066   1.748  11.317  0.0180  0.6195  0.3431
13512TIP3    H162027   0.041   1.777  11.230  0.1388 -1.8374 -0.5630
13512TIP3    H262028   0.001   1.682  11.341  1.2371 -0.3448  1.1454
13513TIP3   OH262029   5.195   2.762  12.977 -0.4052 -0.2385  0.1083
13513TIP3    H162030   5.229   2.824  13.041 -0.6943 -1.1801  1.1916
13513TIP3    H262031   5.248   2.778  12.898 -1.2956  2.2287 -0.0870
13514TIP3   OH262032   6.363   6.167  16.147  0.0374  0.2063 -0.0071
13514TIP3    H162033   6.403   6.156  16.060  0.0894  3.1035 -0.4675
13514TIP3    H262034   6.425   6.223  16.194 -0.3123 -0.7811  1.7068
13515TIP3   OH262035   5.701   6.065  11.785  0.3690 -0.2094 -0.3618
13515TIP3    H162036   5.711   6.145  11.734  0.0470 -0.5051 -0.8964
13515TIP3    H262037   5.790   6.041  11.811  0.4712  0.2982 -0.2211
13516TIP3   OH262038   5.210   4.575  13.246 -0.0644 -0.1097  0.7288
13516TIP3    H162039   5.253   4.562  13.331 -2.1986 -0.4300  1.8188
13516TIP3    H262040   5.216   4.669  13.231  1.0578 -0.1557  0.8220
13517TIP3   OH262041   0.175   5.306  15.578  0.0229 -0.0280  0.6132
13517TIP3    H162042   0.259   5.260  15.579 -0.5626 -1.1904 -0.3121
13517TIP3    H262043   0.159   5.325  15.486 -0.4080  0.8101  0.8512
13518TIP3   OH262044   0.845   0.428  17.000  0.0174 -0.2939  0.8963
13518TIP3    H162045   0.911   0.373  16.958 -0.2075  0.3333 -0.3313
13518TIP3    H262046   0.777   0.439  16.934 -0.9038 -0.1826  1.8232
13519TIP3   OH262047   0.168   1.441  15.553 -0.2099 -0.4132  0.6580
13519TIP3    H162048   0.223   1.370  15.588 -0.8240 -0.5947  1.2712
13519TIP3    H262049   0.124   1.402  15.478  0.5330 -0.2464  0.1167
13520TIP3   OH262050   5.762   0.247   4.580 -1.1353  0.0739  0.2956
13520TIP3    H162051   5.682   0.200   4.560 -2.6018  1.4438  2.5623
13520TIP3    H262052   5.734   0.323   4.630  1.4867  1.3023  0.0837
13521TIP3   OH262053   1.036   3.495  15.019 -0.0177 -0.6518  0.2124
13521TIP3    H162054   1.124   3.525  15.042  0.2584 -0.7646 -0.6582
13521TIP3    H262055   1.026   3.412  15.064  1.0942 -1.6193 -1.2470
13522TIP3   OH262056   2.675   2.433  16.009  0.4651  0.4802  0.1939
13522TIP3    H162057   2.739   2.492  15.970  0.5385 -0.0320 -0.4637
13522TIP3    H262058   2.718   2.399  16.088  1.4064 -0.6390 -0.7803
13523TIP3   OH262059   3.110   5.068   1.706 -0.1556  0.2480 -0.5796
13523TIP3    H162060   3.194   5.030   1.730 -0.7760 -1.7446 -1.3160
13523TIP3    H262061   3.104   5.056   1.611  0.5909  4.4778 -1.3631
13524TIP3   OH262062   3.936   2.020  16.822  0.2327  0.5780  0.3679
13524TIP3    H162063   4.016   2.073  16.826  0.4000  0.6372 -2.0998
13524TIP3    H262064   3.867   2.084  16.801  0.0234  0.1635 -0.2247
13525TIP3   OH262065   6.145   1.399  11.012  0.2656  0.2233  0.3178
13525TIP3    H162066   6.054   1.371  11.015  0.4995 -0.5116  1.0762
13525TIP3    H262067   6.181   1.358  10.933  0.3639 -0.9049  0.9255
13526TIP3   OH262068   0.369   0.069  17.199 -0.3863  0.4031  0.2085
13526TIP3    H162069   0.408  -0.007  17.243 -1.0236 -0.2373 -0.3078
13526TIP3    H262070   0.416   0.076  17.116 -1.1322 -0.1708 -0.2717
13527TIP3   OH262071   6.223   4.596   2.226 -0.1391  0.0636 -0.2548
13527TIP3    H162072   6.282   4.534   2.269 -0.6865 -3.0399 -3.5963
13527TIP3    H262073   6.135   4.570   2.256 -0.2822  0.0274 -0.7007
13528TIP3   OH262074   1.253   0.774  15.041 -0.2813 -0.2452  0.6742
13528TIP3    H162075   1.267   0.682  15.019  0.2933 -0.0013 -0.0342
13528TIP3    H262076   1.214   0.812  14.963  1.7362  0.6296  0.0226
13529TIP3   OH262077   1.271   2.387  15.478 -0.4605  0.4728 -0.2100
13529TIP3    H162078   1.299   2.299  15.450  0.8278  0.2366  1.6829
13529TIP3    H262079   1.222   2.421  15.403  1.4411 -0.7276 -2.0997
13530TIP3   OH262080   2.806   3.986  16.135 -0.2005  0.3768  0.0097
13530TIP3    H162081   2.898   3.986  16.108 -0.3697  0.9632 -0.5746
13530TIP3    H262082   2.757   4.003  16.055 -0.8217  0.1425  0.3300
13531TIP3   OH262083   5.829   3.301  11.830 -0.0041 -0.0308 -0.2162
13531TIP3    H162084   5.861   3.220  11.870  1.1005  0.8514  0.7630
13531TIP3    H262085   5.735   3.288  11.822 -0.3775 -0.2190  2.9738
13532TIP3   OH262086   6.369   3.648  14.109  0.2014 -0.0595  0.5773
13532TIP3    H162087   6.335   3.560  14.124  3.9070 -1.5598  1.2648
13532TIP3    H262088   6.372   3.687  14.196  2.7491 -1.1021  1.0643
13533TIP3   OH262089   4.172   6.802  16.047 -0.1023 -0.2138 -0.0068
13533TIP3    H162090   4.131   6.757  16.121 -2.5045  1.3639 -0.2746
13533TIP3    H262091   4.172   6.737  15.976  1.6839 -1.5442  1.1202
13534TIP3   OH262092   0.006   1.130  15.257  0.5764 -0.1246 -0.6915
13534TIP3    H162093   0.027   1.223  15.256  0.0453  0.1625  2.6314
13534TIP3    H262094   0.090   1.087  15.277  0.6053 -0.2746 -1.1225
13535TIP3   OH262095   1.701   5.872   3.913 -0.1649  0.2916 -0.1170
13535TIP3    H162096   1.688   5.820   3.992 -0.4884  0.2561 -0.1941
13535TIP3    H262097   1.614   5.880   3.874  0.1470 -0.6479 -1.0619
13536TIP3   OH262098   4.468   0.230   0.410  0.0225  0.3511  0.2994
13536TIP3    H162099   4.376   0.208   0.395  0.2936 -0.8609  0.3530
13536TIP3    H262100   4.467   0.281   0.491 -0.4482 -1.0643  1.2252
13537TIP3   OH262101   4.190   5.036  15.820 -0.0580  0.2859 -0.2634
13537TIP3    H162102   4.196   5.123  15.779 -0.5814  0.6759  0.4476
13537TIP3    H262103   4.271   5.028  15.870  0.5040 -0.1208 -1.2224
13538TIP3   OH262104   3.903   2.749  14.600  0.1361 -0.4290  0.1952
13538TIP3    H162105   3.843   2.744  14.526  1.1746  0.6432 -0.7614
13538TIP3    H262106   3.931   2.658  14.614 -0.3644 -0.6967 -0.4831
13539TIP3   OH262107   1.382   0.952   2.593 -0.1426 -0.1605 -0.2066
13539TIP3    H162108   1.427   0.872   2.564  0.1156 -0.2447  0.4016
13539TIP3    H262109   1.446   1.021   2.582 -0.4721  0.0181 -1.0279
13540TIP3   OH262110   0.970   4.820   4.576 -0.1868 -0.1057 -0.1274
13540TIP3    H162111   1.036   4.762   4.612  0.8117  0.8003 -0.4381
13540TIP3    H262112   0.890   4.768   4.574  0.9111 -1.8636 -1.4846
13541TIP3   OH262113   2.296   4.727   2.702  0.1550  0.4921  0.2496
13541TIP3    H162114   2.324   4.709   2.791 -0.7602  0.2970  0.5077
13541TIP3    H262115   2.376   4.750   2.655  0.5244  1.4106  1.3200
13542TIP3   OH262116   1.522   5.382  15.233  0.0697 -0.0846  0.0347
13542TIP3    H162117   1.582   5.451  15.205 -0.6825 -0.0307 -1.5897
13542TIP3    H262118   1.576   5.303  15.234  0.0243 -0.2390 -2.4725
13543TIP3   OH262119   5.851   5.652   1.158 -0.4123  0.5827 -0.5077
13543TIP3    H162120   5.789   5.707   1.111 -2.3155  0.5488  1.7334
13543TIP3    H262121   5.811   5.565   1.156  1.6337 -0.4003 -2.4227
13544TIP3   OH262122   2.981   0.970   1.125 -0.0429 -0.1020  0.8154
13544TIP3    H162123   2.994   1.049   1.073 -2.2015 -0.5617 -0.5990
13544TIP3    H262124   2.946   1.001   1.208  1.6473  0.5367  1.3261
13545TIP3   OH262125   4.079   3.415   1.821 -0.0063  0.6805  0.2005
13545TIP3    H162126   4.036   3.348   1.874 -0.2339  0.4992 -0.2083
13545TIP3    H262127   4.023   3.425   1.745 -0.6979  2.3278  0.8965
13546TIP3   OH262128   2.737   2.216   0.564  0.0167 -0.1492  0.1579
13546TIP3    H162129   2.705   2.185   0.478  1.0507 -0.1295 -0.2456
13546TIP3    H262130   2.676   2.177   0.627 -0.1786 -0.9804 -0.5216
13547TIP3   OH262131   2.320   5.815  14.220 -0.0886  0.1363 -0.5020
13547TIP3    H162132   2.271   5.809  14.302  2.0816  0.7265  0.9225
13547TIP3    H262133   2.271   5.760  14.158 -2.3109  0.4413  0.8842
13548TIP3   OH262134   3.416   1.751  11.236 -0.0883  0.0629  0.2750
13548TIP3    H162135   3.466   1.751  11.154 -0.8302  0.4977 -0.1870
13548TIP3    H262136   3.423   1.662  11.269 -0.4610 -0.3287 -0.6887
13549TIP3   OH262137   0.003   5.467  15.722  0.0892 -0.2711 -0.8727
13549TIP3    H162138   0.081   5.433  15.676  0.1298 -0.9673 -0.3113
13549TIP3    H262139  -0.065   5.402  15.705  0.6708 -1.7186  1.7785
13550TIP3   OH262140   6.135   3.819  14.827  0.0009  0.2705 -0.4328
13550TIP3    H162141   6.146   3.855  14.739  0.0174 -2.1049 -1.4710
13550TIP3    H262142   6.195   3.870  14.881  1.6592  0.3591 -2.2234
13551TIP3   OH262143   4.688   6.729  15.777 -0.0915  0.1098 -0.4403
13551TIP3    H162144   4.637   6.732  15.696 -0.6132  0.2694 -0.1109
13551TIP3    H262145   4.775   6.701  15.750 -0.3456 -0.1279 -1.0157
13552TIP3   OH262146   4.785   5.863   0.165  0.1894  0.7121 -0.0320
13552TIP3    H162147   4.795   5.791   0.228  4.1484  1.5055  0.5027
13552TIP3    H262148   4.737   5.930   0.213  1.3889  0.5252  1.5282
13553TIP3   OH262149   2.689   3.314  14.452  0.5366 -0.2226  0.3924
13553TIP3    H162150   2.609   3.342  14.407  0.4796  0.1267  0.7088
13553TIP3    H262151   2.739   3.268  14.384 -0.2571 -1.1073  0.3769
13554TIP3   OH262152   0.351   2.172  17.100  0.3185 -0.1612  0.3210
13554TIP3    H162153   0.402   2.203  17.175 -1.1716  0.4547  1.1432
13554TIP3    H262154   0.367   2.078  17.097  1.2422 -0.0238  0.7442
13555TIP3   OH262155   2.950   2.884  16.355 -0.2159  0.4254  0.0998
13555TIP3    H162156   3.010   2.811  16.340  0.5944  0.4928  2.6093
13555TIP3    H262157   3.006   2.961  16.352 -0.7282  0.7850 -0.5322
13556TIP3   OH262158   3.603   4.455   2.150  0.1613 -0.0076 -0.6741
13556TIP3    H162159   3.561   4.485   2.231 -0.3001 -0.6633 -0.6618
13556TIP3    H262160   3.599   4.360   2.156  1.1220 -0.0695 -0.9594
13557TIP3   OH262161   3.590   1.346  15.918 -0.2993 -0.0650 -0.1420
13557TIP3    H162162   3.584   1.264  15.967 -1.7922  0.0871 -0.0353
13557TIP3    H262163   3.653   1.327  15.848 -1.8564 -1.8735 -1.1625
13558TIP3   OH262164   0.988   4.713  12.885  0.6137  0.5083  0.2363
13558TIP3    H162165   1.008   4.800  12.851 -0.2154  0.8187  0.5119
13558TIP3    H262166   1.010   4.653  12.814  1.4513  0.9125  0.1428
13559TIP3   OH262167   5.929   1.060  16.398  0.1729 -0.6379  0.0868
13559TIP3    H162168   5.892   1.110  16.471  1.1701 -0.7456  0.6794
13559TIP3    H262169   6.020   1.045  16.422  0.4764 -0.8434 -1.0981
13560TIP3   OH262170   2.645   1.500  13.901 -0.5371  0.1975 -0.0127
13560TIP3    H162171   2.602   1.502  13.987  0.4007 -0.2635  0.4890
13560TIP3    H262172   2.730   1.541  13.916 -0.4102  0.2214 -0.7544
13561TIP3   OH262173   3.892   4.172  16.873 -0.2117  0.2200 -0.2508
13561TIP3    H162174   3.925   4.101  16.929  0.3842  0.4831 -0.2667
13561TIP3    H262175   3.968   4.202  16.824 -0.4252  0.9759 -0.1357
13562TIP3   OH262176   2.488   2.219  15.371  0.1290 -0.2052 -0.2931
13562TIP3    H162177   2.453   2.136  15.405  1.3277 -0.9709 -0.8386
13562TIP3    H262178   2.526   2.195  15.287  3.1967  0.2283  0.8459
13563TIP3   OH262179   1.797   5.363  13.700 -0.5842  0.5444 -0.0733
13563TIP3    H162180   1.877   5.388  13.747  0.6597 -0.6866 -1.4210
13563TIP3    H262181   1.795   5.267  13.707 -0.5103  0.3514 -2.2029
13564TIP3   OH262182   1.324   3.525   0.772  0.4059 -0.7473 -0.6105
13564TIP3    H162183   1.365   3.609   0.793  1.3640 -1.4321  0.4186
13564TIP3    H262184   1.378   3.490   0.701  0.4981 -0.8413 -0.4949
13565TIP3   OH262185   4.509   5.874   3.161 -0.3702  0.3634 -0.0536
13565TIP3    H162186   4.481   5.803   3.219  1.4807  1.6611  2.7052
13565TIP3    H262187   4.592   5.842   3.124 -1.0404 -0.0535 -1.2365
13566TIP3   OH262188   4.263   0.623   1.570 -0.8374 -0.2471  0.0873
13566TIP3    H162189   4.343   0.645   1.522  0.1213  0.9772  2.1560
13566TIP3    H262190   4.293   0.564   1.640 -2.3405 -2.7087 -1.1878
13567TIP3   OH262191   4.301   3.217  14.479 -0.3995 -0.0247  0.5232
13567TIP3    H162192   4.278   3.303  14.444 -0.1205  0.0199  0.4502
13567TIP3    H262193   4.225   3.162  14.459 -0.3080  0.0379 -0.0154
13568TIP3   OH262194   6.580   1.462   5.262  0.0685  0.3927  0.0653
13568TIP3    H162195   6.495   1.497   5.287 -0.1900  0.1129 -0.4073
13568TIP3    H262196   6.574   1.450   5.167  1.0767  1.5556 -0.1634
13569TIP3   OH262197   4.244   1.760  12.056 -0.2842 -0.4489 -0.4046
13569TIP3    H162198   4.336   1.754  12.081 -0.6025 -1.4754  0.6442
13569TIP3    H262199   4.215   1.846  12.087  0.2090 -0.3055 -0.3443
13570TIP3   OH262200   3.879   5.882  15.286  0.8179 -0.0919  0.4516
13570TIP3    H162201   3.804   5.875  15.227  0.6213 -2.6703  0.8676
13570TIP3    H262202   3.848   5.842  15.368  2.3377 -0.3098  0.9469
13571TIP3   OH262203   2.930   3.676  14.200  0.0585 -0.1848 -0.4085
13571TIP3    H162204   2.998   3.712  14.143  0.2629  1.3944  0.7666
13571TIP3    H262205   2.951   3.709  14.287 -1.6850 -0.4279  0.1456
13572TIP3   OH262206   0.597   3.741   1.523 -0.1172  0.4494  0.0993
13572TIP3    H162207   0.675   3.703   1.484 -0.8069  1.2762 -2.2613
13572TIP3    H262208   0.553   3.667   1.565  1.6438 -0.1070  1.0375
13573TIP3   OH262209   2.071   0.147   0.017 -0.2123  0.7718 -0.7122
13573TIP3    H162210   1.986   0.170   0.052  0.5278  1.0489  0.9859
13573TIP3    H262211   2.132   0.160   0.090  1.0360 -1.1767 -1.3182
13574TIP3   OH262212   5.258   3.647  12.744  0.3071 -0.0247 -0.0469
13574TIP3    H162213   5.302   3.662  12.660 -1.3539 -0.4313 -1.0268
13574TIP3    H262214   5.230   3.556  12.741 -1.1276  0.3857  0.2816
13575TIP3   OH262215   0.694   2.454  17.262 -0.0998 -0.3933 -0.0821
13575TIP3    H162216   0.774   2.505  17.249  0.0982 -0.4826  0.7676
13575TIP3    H262217   0.717   2.366  17.232  0.2986 -0.5509  0.6600
13576TIP3   OH262218   2.338   2.396  14.840  0.1987 -0.1032  0.5546
13576TIP3    H162219   2.339   2.379  14.934  0.5825 -0.1543  0.5445
13576TIP3    H262220   2.364   2.313  14.801 -1.8170 -0.6508  0.2988
13577TIP3   OH262221   2.987   2.743  15.441 -0.3170  0.4666  0.9111
13577TIP3    H162222   2.929   2.798  15.389  0.9921  0.4628 -0.6309
13577TIP3    H262223   3.072   2.748  15.396  0.1122 -1.9518  1.3132
13578TIP3   OH262224   2.012   5.678   4.592  0.0701 -0.4862  0.1319
13578TIP3    H162225   2.056   5.760   4.613  2.3896 -1.3910 -0.8459
13578TIP3    H262226   2.048   5.614   4.653 -2.1243 -0.7501  1.2637
13579TIP3   OH262227   1.288   2.164   4.691  0.6258 -0.7321  0.4331
13579TIP3    H162228   1.288   2.191   4.783  0.0498 -2.1495  0.8775
13579TIP3    H262229   1.197   2.138   4.674  0.3916  0.8398 -0.9763
13580TIP3   OH262230   3.314   2.624   3.527 -0.2554  1.2036  0.2887
13580TIP3    H162231   3.400   2.619   3.484 -0.4733 -0.0952 -0.0452
13580TIP3    H262232   3.276   2.706   3.496 -0.1553  0.5996 -1.5477
13581TIP3   OH262233   0.645   2.278  12.648 -0.0224 -0.3503  0.2024
13581TIP3    H162234   0.675   2.353  12.699 -0.1969 -1.6128  2.2887
13581TIP3    H262235   0.718   2.258  12.589  0.0964  1.2876 -0.2576
13582TIP3   OH262236   2.369   4.320  15.478  0.0640 -0.3417  0.0016
13582TIP3    H162237   2.371   4.390  15.413 -3.6696 -0.3522 -0.3918
13582TIP3    H262238   2.418   4.248  15.439 -1.0785  0.0757 -2.3712
13583TIP3   OH262239   2.730   1.030  15.892 -0.1343  0.2545 -0.4825
13583TIP3    H162240   2.801   1.095  15.888  0.0832  0.0055 -0.7420
13583TIP3    H262241   2.651   1.079  15.869 -0.1925  0.7300  0.6408
13584TIP3   OH262242   2.637   6.785  11.787  0.1768  0.1855  0.9744
13584TIP3    H162243   2.685   6.827  11.716 -0.8570 -0.3609 -0.0794
13584TIP3    H262244   2.680   6.701  11.800  0.4610  0.3509  1.0948
13585TIP3   OH262245   2.198   4.924  15.369  0.5278  0.0657  0.0181
13585TIP3    H162246   2.278   4.888  15.408 -0.3248 -0.8209  1.0236
13585TIP3    H262247   2.131   4.858  15.387 -0.6871  1.3210  0.2615
13586TIP3   OH262248   2.919   2.265  15.429 -0.4618  0.3319  0.6520
13586TIP3    H162249   2.903   2.275  15.523 -0.8744  1.0121  0.5141
13586TIP3    H262250   2.896   2.350  15.391 -3.4844 -0.8804 -0.5006
13587TIP3   OH262251   2.738   1.916   4.137  0.4071 -0.1090  0.0416
13587TIP3    H162252   2.669   1.888   4.077  1.1735  0.1564 -0.9843
13587TIP3    H262253   2.695   1.980   4.194  0.2808  1.6701 -1.9358
13588TIP3   OH262254   3.124   1.654   2.780  0.4654  0.0730  0.1159
13588TIP3    H162255   3.092   1.590   2.843 -0.6710  1.0521  0.5849
13588TIP3    H262256   3.168   1.603   2.712 -0.7508 -1.2341  0.2739
13589TIP3   OH262257   1.457   5.859   3.790  0.7130  0.0313 -0.2268
13589TIP3    H162258   1.412   5.812   3.720 -0.8146 -0.4876  1.0505
13589TIP3    H262259   1.415   5.945   3.793  0.1296 -0.2604  0.6015
13590TIP3   OH262260   6.018   1.982   2.871 -0.2227 -0.1601  1.0598
13590TIP3    H162261   6.089   1.924   2.845  0.1609  0.5834  0.4139
13590TIP3    H262262   6.040   2.011   2.959  0.4600  0.3383  0.7310
13591TIP3   OH262263   3.412   3.430   1.365 -0.1227  0.4392  0.1699
13591TIP3    H162264   3.335   3.384   1.333 -0.7139  2.4815 -1.5599
13591TIP3    H262265   3.486   3.378   1.335 -0.7839 -0.8858  0.7800
13592TIP3   OH262266   2.249   4.714   4.340  0.3165 -0.3580  0.3394
13592TIP3    H162267   2.268   4.685   4.429 -1.1752 -0.5333  0.6320
13592TIP3    H262268   2.285   4.645   4.284  2.8290  0.5844  0.6633
13593TIP3   OH262269   1.861   0.794   2.705  0.2763  0.0562 -0.2071
13593TIP3    H162270   1.939   0.764   2.752 -1.5925 -1.4969  2.1740
13593TIP3    H262271   1.870   0.757   2.617  1.1830 -2.0669  0.7029
13594TIP3   OH262272   1.308   2.616  13.283 -0.5573 -0.1219 -0.0739
13594TIP3    H162273   1.363   2.552  13.327 -0.1680 -0.0814 -0.4923
13594TIP3    H262274   1.362   2.647  13.210 -1.3269 -0.4778 -0.8144
13595TIP3   OH262275   2.789   4.834   3.554  0.0351  0.1323  0.0488
13595TIP3    H162276   2.816   4.926   3.551 -0.8547  0.5299  2.3129
13595TIP3    H262277   2.717   4.831   3.617 -3.1929 -1.4105 -3.3202
13596TIP3   OH262278   2.477   4.224   4.693  0.0656 -0.0270  0.2523
13596TIP3    H162279   2.507   4.181   4.614 -0.8775  0.6392 -0.4931
13596TIP3    H262280   2.526   4.307   4.695 -0.3738  0.2409  0.0168
13597TIP3   OH262281   4.371   5.796  12.199  0.6621  0.4639 -0.6155
13597TIP3    H162282   4.414   5.761  12.278 -1.7435  2.5035  1.8000
13597TIP3    H262283   4.303   5.732  12.179  1.6617 -0.3616 -1.4753
13598TIP3   OH262284   2.429   6.053   5.208  0.3916 -0.1404 -0.7251
13598TIP3    H162285   2.503   5.997   5.233  0.0474  0.2106  1.2143
13598TIP3    H262286   2.352   6.004   5.237  0.1197  1.9044  2.5203
13599TIP3   OH262287   0.540   0.152   1.831 -0.5715 -0.0510 -0.4075
13599TIP3    H162288   0.555   0.109   1.747 -0.5021  1.5642 -1.2600
13599TIP3    H262289   0.613   0.213   1.840 -0.2143 -0.6661  1.1635
13600TIP3   OH262290   0.353   5.204  17.075 -0.8035  0.1781 -0.4347
13600TIP3    H162291   0.322   5.114  17.072  0.1471 -0.1768 -0.0703
13600TIP3    H262292   0.295   5.247  17.138 -0.5791 -0.4691  0.2315
13601TIP3   OH262293   5.791   6.482   3.601 -0.6087  0.0439 -0.2633
13601TIP3    H162294   5.787   6.574   3.626  1.0887  0.6946 -2.0851
13601TIP3    H262295   5.709   6.466   3.554  0.5265  1.7132 -3.0403
13602TIP3   OH262296   4.384   0.402  15.402 -0.3063 -0.7809 -0.7222
13602TIP3    H162297   4.478   0.393  15.417 -0.3447  1.7723  1.9225
13602TIP3    H262298   4.346   0.406  15.489 -2.3293  2.3109 -1.5824
13603TIP3   OH262299   5.138   6.823   3.905 -0.2727 -0.3601 -0.0800
13603TIP3    H162300   5.066   6.884   3.917 -0.3460 -0.5821  0.6982
13603TIP3    H262301   5.213   6.866   3.946 -0.5486 -1.1838  1.4006
13604TIP3   OH262302   6.747   1.032   5.469 -0.2048  0.3715 -0.0142
13604TIP3    H162303   6.808   1.057   5.538  0.7329 -0.7510 -0.4119
13604TIP3    H262304   6.680   0.980   5.513 -0.6462  1.2144  0.3414
13605TIP3   OH262305   3.022   1.045   1.637  0.0330 -0.2689 -0.2337
13605TIP3    H162306   3.080   1.057   1.712  1.0839  0.2475 -1.1057
13605TIP3    H262307   3.002   0.952   1.636  1.2393 -0.5423 -0.1884
13606TIP3   OH262308   2.124   4.536  12.669  0.1943 -0.3829  0.7747
13606TIP3    H162309   2.103   4.461  12.725 -0.9487 -1.9054 -1.5126
13606TIP3    H262310   2.212   4.520  12.637 -0.2090 -1.0507 -0.0574
13607TIP3   OH262311   4.241   5.205   0.160 -0.7190 -0.9886 -0.6493
13607TIP3    H162312   4.254   5.284   0.213  1.0724 -2.0849  0.6396
13607TIP3    H262313   4.146   5.194   0.157 -0.9498  0.4639  0.3058
13608TIP3   OH262314   5.410   0.889  14.829 -0.5110 -0.0547 -0.5015
13608TIP3    H162315   5.454   0.808  14.804 -0.1345 -0.3682  1.0750
13608TIP3    H262316   5.340   0.861  14.889  0.9755  0.8901  1.8118
13609TIP3   OH262317   3.201   4.093  13.162  0.1472  0.0146  0.3917
13609TIP3    H162318   3.154   4.080  13.080 -0.0824 -2.3221  0.8300
13609TIP3    H262319   3.132   4.114  13.225  0.2516  1.1840  0.1279
13610TIP3   OH262320   6.335   6.346  12.848  0.2743  0.2159 -0.8996
13610TIP3    H162321   6.273   6.346  12.920  1.4252  1.5570  0.1396
13610TIP3    H262322   6.350   6.254  12.828 -2.2562 -0.1519 -1.4193
13611TIP3   OH262323   5.270   1.922   0.277 -0.0547  0.2085  0.4712
13611TIP3    H162324   5.273   1.838   0.233 -2.0050  0.3683 -0.0359
13611TIP3    H262325   5.339   1.917   0.344  0.7687 -1.2409 -0.4508
13612TIP3   OH262326   0.756   0.524   5.152 -0.4659 -0.0880 -0.0463
13612TIP3    H162327   0.818   0.472   5.203 -0.6764  1.2377  1.6506
13612TIP3    H262328   0.811   0.571   5.089 -0.1489 -1.3372 -0.7437
13613TIP3   OH262329   3.604   1.234   0.228  0.1081  0.2014  0.0434
13613TIP3    H162330   3.551   1.259   0.152 -1.3577  0.7638  1.1978
13613TIP3    H262331   3.557   1.159   0.266  1.8106 -1.2550 -0.5903
13614TIP3   OH262332   5.162   6.045  14.945  0.1740  0.7508  0.5777
13614TIP3    H162333   5.225   5.973  14.948  0.3047  0.7767 -0.9363
13614TIP3    H262334   5.212   6.119  14.910 -0.7255  0.7297 -0.8123
13615TIP3   OH262335   1.172   5.885   4.304 -0.5944 -0.3250  0.6274
13615TIP3    H162336   1.189   5.970   4.343  2.5748 -0.7813  0.4414
13615TIP3    H262337   1.182   5.823   4.376 -2.8167 -0.6544  0.7482
13616TIP3   OH262338   0.336   3.088  13.958 -0.3800  0.4024 -0.1560
13616TIP3    H162339   0.281   3.037  13.899 -1.4212 -0.0633  1.1594
13616TIP3    H262340   0.384   3.023  14.010  1.3415  0.8002 -1.1643
13617TIP3   OH262341   2.035   3.447   1.949 -0.0206  0.5041  0.2594
13617TIP3    H162342   2.016   3.492   1.867 -1.4066 -1.5194 -0.6186
13617TIP3    H262343   1.958   3.463   2.004 -0.8736 -1.2945 -0.3416
13618TIP3   OH262344   3.519   1.219  17.026  0.3072  0.3651 -0.2229
13618TIP3    H162345   3.555   1.131  17.034  1.3972  0.9855  3.0938
13618TIP3    H262346   3.444   1.208  16.967  1.2895 -2.4611 -1.1135
13619TIP3   OH262347   1.996   5.062  14.444  0.4231 -0.6847  0.4214
13619TIP3    H162348   1.915   5.050  14.493  0.5432 -1.8224  0.3588
13619TIP3    H262349   2.032   5.145  14.477 -1.0616  0.1678  0.0079
13620TIP3   OH262350   5.850   2.003  14.019 -0.5278  0.6283  0.2352
13620TIP3    H162351   5.887   1.916  14.004 -0.9951  0.2331  1.2696
13620TIP3    H262352   5.877   2.026  14.108 -1.3264  1.0642  0.3762
13621TIP3   OH262353   4.073   6.057  15.950 -0.4533  0.9188 -0.5729
13621TIP3    H162354   4.158   6.026  15.983 -0.3371  0.3672 -1.3414
13621TIP3    H262355   4.095   6.130  15.893 -0.6596  1.9163  0.5808
13622TIP3   OH262356   5.862   4.076  13.099 -0.7932  0.0537 -0.3564
13622TIP3    H162357   5.817   4.117  13.173 -0.2262 -0.2290  0.1493
13622TIP3    H262358   5.802   4.006  13.072 -1.5849  0.9351 -0.9808
13623TIP3   OH262359   2.413   0.504   2.765  0.2639  0.2850 -0.5678
13623TIP3    H162360   2.440   0.588   2.801 -1.2479  0.9170 -0.8274
13623TIP3    H262361   2.479   0.442   2.796  0.4032  1.2417  1.1877
13624TIP3   OH262362   3.105   6.671   0.295  0.0279 -0.1198  0.0648
13624TIP3    H162363   3.010   6.664   0.296  0.0479 -0.4646 -0.1506
13624TIP3    H262364   3.126   6.733   0.365 -0.3871  0.4096 -0.2780
13625TIP3   OH262365   4.043   4.612   4.227  0.2730  0.3038  0.3763
13625TIP3    H162366   4.012   4.700   4.207  0.2985  0.0684 -0.7504
13625TIP3    H262367   4.138   4.621   4.235  0.4236  0.1451 -1.0969
13626TIP3   OH262368   5.003   1.728   4.043  0.1782  0.4271 -0.0007
13626TIP3    H162369   4.925   1.682   4.074  1.1988 -0.5611  1.2002
13626TIP3    H262370   5.068   1.713   4.111  1.2205  1.8254 -0.6453
13627TIP3   OH262371   6.307   5.982  10.098  0.0515 -0.5623  0.5032
13627TIP3    H162372   6.262   6.038  10.162 -0.2481 -0.4672  0.2087
13627TIP3    H262373   6.239   5.923  10.066 -0.1317  0.2693 -0.7238
13628TIP3   OH262374   0.708   6.590  15.331  0.1104  0.0781  0.2350
13628TIP3    H162375   0.661   6.603  15.413 -1.5629 -0.4301 -0.5962
13628TIP3    H262376   0.744   6.676  15.309 -0.1285  0.4010  1.0709
13629TIP3   OH262377   5.628   2.607  10.557  0.0063  0.0780 -0.7169
13629TIP3    H162378   5.660   2.580  10.471  2.1721 -1.3490  0.4439
13629TIP3    H262379   5.651   2.700  10.563  0.5719 -0.0084 -1.3934
13630TIP3   OH262380   0.043   5.145   6.019 -0.0990 -0.1279 -0.2267
13630TIP3    H162381   0.093   5.067   5.997 -1.4559 -1.0310 -0.2576
13630TIP3    H262382   0.071   5.167   6.108 -1.0945 -1.8530  0.5786
13631TIP3   OH262383   6.742   4.381   3.133  0.4906  0.6133  0.4980
13631TIP3    H162384   6.793   4.392   3.052 -0.8133  0.7937 -0.3313
13631TIP3    H262385   6.718   4.470   3.159  1.1784  0.5767  1.2733
13632TIP3   OH262386   4.729   5.661   5.984  0.1728  0.1934  0.0370
13632TIP3    H162387   4.733   5.571   5.952 -2.0150 -0.4751  1.3966
13632TIP3    H262388   4.643   5.667   6.027 -0.1665  3.2235 -0.8410
13633TIP3   OH262389   5.112   5.288  12.983  0.7829 -0.1689  0.2618
13633TIP3    H162390   5.083   5.311  13.071  2.2896  1.2539  0.4450
13633TIP3    H262391   5.102   5.369  12.933  0.3939 -0.8320 -0.7678
13634TIP3   OH262392   1.494   3.726   0.765  0.5111  0.1149  0.1238
13634TIP3    H162393   1.549   3.771   0.829  1.7780  0.7601 -1.3564
13634TIP3    H262394   1.552   3.661   0.725  0.0098  0.3324 -0.9795
13635TIP3   OH262395   1.369   0.522  12.903 -0.2160 -0.0736 -0.2191
13635TIP3    H162396   1.429   0.505  12.976  0.1994  1.0209 -0.2878
13635TIP3    H262397   1.289   0.477  12.927 -0.3957  1.0165  1.3675
13636TIP3   OH262398   6.340   3.988  13.142 -0.0209  0.7766 -0.0956
13636TIP3    H162399   6.355   3.962  13.233 -1.3215  0.3412  0.0241
13636TIP3    H262400   6.382   3.919  13.090 -1.4515 -0.3904  0.2138
13637TIP3   OH262401   4.570   2.729  10.711  0.6091  0.2126  0.3991
13637TIP3    H162402   4.646   2.671  10.705  0.6954  0.3168  0.4810
13637TIP3    H262403   4.579   2.787  10.636  0.5915  0.2026  0.3891
13638TIP3   OH262404   0.901   6.240  15.807 -0.2023  0.2626  0.1902
13638TIP3    H162405   0.857   6.155  15.796  0.2897 -0.1786  1.4408
13638TIP3    H262406   0.977   6.220  15.862 -0.6313  1.6811  1.3507
13639TIP3   OH262407   6.296   0.817   5.757  0.2888  0.3739 -0.0280
13639TIP3    H162408   6.257   0.847   5.839  0.3621 -1.4738  0.7568
13639TIP3    H262409   6.358   0.749   5.785  1.8282  1.1092 -1.4753
13640TIP3   OH262410   1.965   3.619  10.746 -0.2331  0.2582 -0.0922
13640TIP3    H162411   1.952   3.531  10.781  0.5263  0.4288  0.6503
13640TIP3    H262412   2.056   3.619  10.716  0.4241  1.3828  1.7513
13641TIP3   OH262413   4.429   4.021   3.929  0.1442 -0.9560  0.5302
13641TIP3    H162414   4.507   4.009   3.983  0.4916  0.6954  0.4651
13641TIP3    H262415   4.378   4.087   3.976 -0.7146 -1.2551  0.0419
13642TIP3   OH262416   2.159   3.976  12.151 -0.8311 -0.0420  0.6983
13642TIP3    H162417   2.161   3.972  12.056 -0.9424  2.4148  0.5380
13642TIP3    H262418   2.244   4.012  12.176 -1.6008  1.4153  1.3368
13643TIP3   OH262419   2.478   4.330  14.917 -0.1914  0.6632 -0.0541
13643TIP3    H162420   2.568   4.300  14.933 -0.2830 -0.1463 -0.9532
13643TIP3    H262421   2.487   4.423  14.895  0.3721  0.6945  0.2872
13644TIP3   OH262422   6.455   0.901  14.925  0.9600 -0.3203  0.2546
13644TIP3    H162423   6.511   0.886  14.849  0.5837  0.4666 -0.1865
13644TIP3    H262424   6.500   0.968  14.976  1.1167 -0.7091  0.6414
13645TIP3   OH262425   3.138   5.098   4.516  0.3454  0.2634  0.6055
13645TIP3    H162426   3.081   5.175   4.521  0.7327  0.4872  1.7725
13645TIP3    H262427   3.198   5.117   4.444 -0.4110  0.4586  0.0169
13646TIP3   OH262428   6.172   3.119   1.571  0.2365 -0.0031 -0.1350
13646TIP3    H162429   6.107   3.154   1.510 -0.8608 -1.3219  0.2284
13646TIP3    H262430   6.173   3.025   1.553  2.3197  0.0232 -0.3678
13647TIP3   OH262431   3.300   4.902  17.031 -0.1180 -0.2553  0.6307
13647TIP3    H162432   3.332   4.896  16.941 -1.9309 -2.2113  0.0269
13647TIP3    H262433   3.311   4.813  17.066  1.1702  0.6136  2.6221
13648TIP3   OH262434   6.042   2.584   1.020 -0.0880  0.2074 -0.1501
13648TIP3    H162435   6.077   2.579   0.931 -1.6773  0.5546 -0.8277
13648TIP3    H262436   5.996   2.501   1.032  1.5967 -0.6180  1.0526
13649TIP3   OH262437   1.439   1.461   6.480  0.6541  0.2402 -0.5372
13649TIP3    H162438   1.496   1.537   6.470  1.4276 -0.5430 -3.1711
13649TIP3    H262439   1.499   1.389   6.499 -0.1531  0.3324  2.8613
13650TIP3   OH262440   0.421   6.397  11.314  0.8988 -0.0451 -0.2950
13650TIP3    H162441   0.452   6.423  11.401  1.1240 -0.9999 -0.0750
13650TIP3    H262442   0.489   6.429  11.254  2.8396 -2.7634  0.2385
13651TIP3   OH262443   3.444   5.017  16.433 -0.2444 -0.0544  0.4106
13651TIP3    H162444   3.353   4.992  16.443 -0.5661  0.0606 -1.8030
13651TIP3    H262445   3.492   4.934  16.437 -0.5504 -0.2312  0.4668
13652TIP3   OH262446   6.318   1.199   1.389  0.0170 -0.0795  0.3661
13652TIP3    H162447   6.281   1.146   1.460  0.0893  1.5990  1.7182
13652TIP3    H262448   6.284   1.158   1.309 -1.6403 -0.8915  1.4169
13653TIP3   OH262449   1.639   4.658  16.863 -0.1122  0.0633  0.6012
13653TIP3    H162450   1.582   4.582  16.849 -0.0195 -0.0569  0.8814
13653TIP3    H262451   1.657   4.657  16.957 -0.7128  0.8623  0.7334
13654TIP3   OH262452   1.113   1.541  14.265 -0.3221  0.1625  0.5303
13654TIP3    H162453   1.123   1.584  14.180 -1.5215  0.9677  0.7787
13654TIP3    H262454   1.064   1.461  14.246  0.2341 -0.1393  0.3415
13655TIP3   OH262455   6.167   2.600  13.965 -0.1750  0.1994  0.1283
13655TIP3    H162456   6.143   2.679  14.013  0.2444  0.3842  0.0389
13655TIP3    H262457   6.195   2.632  13.879  2.9128  0.2724  1.0520
13656TIP3   OH262458   6.562   5.401  13.146  0.1547 -0.5158 -0.1535
13656TIP3    H162459   6.513   5.342  13.088  1.5371 -1.7736 -0.1127
13656TIP3    H262460   6.496   5.438  13.203 -1.2607  0.7156 -2.4431
13657TIP3   OH262461   4.375   2.470   2.345 -0.2115 -0.2233 -0.4272
13657TIP3    H162462   4.389   2.512   2.430 -0.6945  0.4401 -0.6732
13657TIP3    H262463   4.371   2.376   2.366  1.5124 -0.2304  0.0406
13658TIP3   OH262464   3.000   3.269  11.338 -0.0151 -0.5927  0.1296
13658TIP3    H162465   3.048   3.273  11.256 -0.6148 -0.0947 -0.2088
13658TIP3    H262466   2.912   3.298  11.315 -0.6612 -2.0578  0.5987
13659TIP3   OH262467   1.354   0.024   0.954  0.7407 -0.5411 -0.2302
13659TIP3    H162468   1.339   0.062   1.041  0.7618  0.1640 -0.5332
13659TIP3    H262469   1.369  -0.069   0.972 -0.4077 -0.6231  0.4088
13660TIP3   OH262470   0.945   0.750  14.207  0.3897  0.0927  0.2142
13660TIP3    H162471   0.923   0.795  14.288  0.2827  0.7473 -0.1674
13660TIP3    H262472   1.025   0.792  14.177  0.2579  0.0671 -0.1796
13661TIP3   OH262473   3.085   5.686  15.055  0.2594 -0.0516 -0.3448
13661TIP3    H162474   3.043   5.694  15.141  0.0234 -0.6405 -0.3983
13661TIP3    H262475   3.012   5.679  14.994  0.2952 -3.9952 -0.1893
13662TIP3   OH262476   2.812   3.127   1.914  0.6827 -0.4749  0.3854
13662TIP3    H162477   2.803   3.220   1.938  0.6833  0.0501 -1.4896
13662TIP3    H262478   2.757   3.081   1.976  1.1041  0.7174  1.7028
13663TIP3   OH262479   1.856   2.556  13.420 -0.1589 -0.1785  0.1646
13663TIP3    H162480   1.945   2.556  13.456 -0.2511 -1.4730  0.4664
13663TIP3    H262481   1.847   2.468  13.382  0.0098  1.1536 -3.2667
13664TIP3   OH262482   6.618   2.100   1.268 -0.0483  0.2136 -0.1321
13664TIP3    H162483   6.575   2.022   1.234 -0.1651  0.1549  0.1462
13664TIP3    H262484   6.698   2.068   1.308 -0.0195  0.2548 -0.1563
13665TIP3   OH262485   6.318   3.807  16.408 -0.5046 -0.4736  0.4109
13665TIP3    H162486   6.295   3.790  16.317  1.2560 -0.0093 -0.1544
13665TIP3    H262487   6.391   3.747  16.425 -0.1066  0.2145  1.1741
13666TIP3   OH262488   5.944   2.960   3.954 -0.3258 -0.3337  0.5627
13666TIP3    H162489   5.901   2.878   3.929 -0.4052  0.1709 -1.0972
13666TIP3    H262490   5.908   3.025   3.894  0.4799  0.7159  1.1842
13667TIP3   OH262491   4.403   3.805   5.264 -0.5830  0.1089  0.0834
13667TIP3    H162492   4.480   3.766   5.222 -0.7857  2.1204 -2.4160
13667TIP3    H262493   4.336   3.737   5.260 -0.0908 -0.3144 -1.4296
13668TIP3   OH262494   3.430   0.211   5.032 -0.1321 -0.1479 -0.2291
13668TIP3    H162495   3.398   0.291   4.990 -0.6606  0.2360  0.8771
13668TIP3    H262496   3.411   0.142   4.969 -0.9854  0.4013 -0.5840
13669TIP3   OH262497   2.903   2.218   4.187  0.0713 -0.0032  0.3602
13669TIP3    H162498   2.914   2.309   4.159  0.8755 -0.7060 -1.8553
13669TIP3    H262499   2.809   2.208   4.201  0.0157  1.2565  1.0528
13670TIP3   OH262500   5.478   0.269   2.230  0.6067 -0.1134 -0.0568
13670TIP3    H162501   5.394   0.282   2.274  0.5871 -0.2657 -0.0477
13670TIP3    H262502   5.458   0.280   2.137  0.4214 -0.9085 -0.1165
13671TIP3   OH262503   5.609   0.027   3.902 -0.2277 -0.2335 -0.4068
13671TIP3    H162504   5.522   0.049   3.936 -0.4109 -1.1743 -0.2432
13671TIP3    H262505   5.616  -0.068   3.913  0.8309 -0.1696 -0.4081
13672TIP3   OH262506   6.625   4.151  16.812  0.0115 -0.0016 -0.2726
13672TIP3    H162507   6.688   4.223  16.810  0.6491 -0.5639 -1.4926
13672TIP3    H262508   6.641   4.103  16.730 -1.4194 -0.6576 -0.1864
13673TIP3   OH262509   1.904   5.379  14.245 -0.1321  0.1244  0.4258
13673TIP3    H162510   1.876   5.363  14.335  1.1415 -1.0417  0.6457
13673TIP3    H262511   1.822   5.382  14.195 -0.9258  1.6439  1.7108
13674TIP3   OH262512   6.220   1.180  14.531 -0.3622  0.3971  0.2161
13674TIP3    H162513   6.158   1.230  14.584  0.3895 -0.2679  1.8142
13674TIP3    H262514   6.167   1.108  14.495 -0.8328  0.6906  0.3085
13675TIP3   OH262515   0.654   4.837   3.618  0.1372  0.1255  0.4627
13675TIP3    H162516   0.590   4.766   3.619 -1.4719  1.5079  0.3150
13675TIP3    H262517   0.628   4.893   3.691  1.3450  0.5913  0.5533
13676TIP3   OH262518   5.726   2.381  13.206  0.5556  0.7989 -0.1647
13676TIP3    H162519   5.693   2.318  13.270  0.7290  0.1647 -0.6865
13676TIP3    H262520   5.817   2.395  13.232  0.2074  1.6889  0.6072
13677TIP3   OH262521   5.307   5.277   3.144  0.3261 -0.4729 -0.3573
13677TIP3    H162522   5.235   5.216   3.129  0.5280 -0.6028 -0.8282
13677TIP3    H262523   5.329   5.311   3.057  0.5921 -0.1608 -0.1722
13678TIP3   OH262524   2.556   0.144   3.365 -0.0297  0.7212  0.5452
13678TIP3    H162525   2.533   0.077   3.300  0.2031  1.7047 -0.6001
13678TIP3    H262526   2.639   0.180   3.333  1.2945 -0.2786  2.6357
13679TIP3   OH262527   6.594   3.150  11.911  0.0117 -0.4980 -0.1415
13679TIP3    H162528   6.586   3.080  11.975 -0.5962 -0.0177  0.3163
13679TIP3    H262529   6.553   3.115  11.832 -3.1543  0.3743  0.9451
13680TIP3   OH262530   1.173   2.042  13.651  0.6938 -0.0602  0.3172
13680TIP3    H162531   1.215   1.977  13.595  2.5701  0.8094  0.6250
13680TIP3    H262532   1.153   2.115  13.592  1.9223  0.5250  0.6030
13681TIP3   OH262533   2.807   4.308  17.057  0.1960 -0.9840 -0.4957
13681TIP3    H162534   2.881   4.306  16.996  0.5750 -1.5549 -0.0351
13681TIP3    H262535   2.823   4.384  17.113 -0.1414 -0.4718 -1.0859
13682TIP3   OH262536   0.024   5.813  15.573  0.6281 -0.4762  0.4209
13682TIP3    H162537  -0.041   5.836  15.639  1.4034  2.0220  0.4431
13682TIP3    H262538  -0.020   5.751  15.515 -0.3616 -2.0446  2.7198
13683TIP3   OH262539   4.445   1.185  12.662 -0.8770 -0.0443  0.1238
13683TIP3    H162540   4.360   1.209  12.699  0.1409  1.2026  1.7835
13683TIP3    H262541   4.483   1.124  12.725  0.0355  0.4890  0.1085
13684TIP3   OH262542   6.291   2.169   3.370 -0.3836  0.0314  0.7779
13684TIP3    H162543   6.265   2.110   3.440 -0.5279 -1.3906 -0.4107
13684TIP3    H262544   6.310   2.252   3.413 -3.5712  0.1853  2.1084
13685TIP3   OH262545   0.239   4.529  16.564 -0.2423  0.0419  0.0586
13685TIP3    H162546   0.161   4.583  16.562 -0.6151 -0.4285  1.0895
13685TIP3    H262547   0.216   4.451  16.514  0.3136  0.8118 -1.4757
13686TIP3   OH262548   3.868   6.215   3.372 -0.3798  0.0149  0.3010
13686TIP3    H162549   3.963   6.215   3.360 -0.5666  1.1044 -1.3826
13686TIP3    H262550   3.836   6.291   3.324 -2.0853 -0.0194  1.2596
13687TIP3   OH262551   6.746   2.684   0.022 -0.3089 -0.0767 -0.6328
13687TIP3    H162552   6.730   2.602  -0.023  1.7599 -0.9282  0.0561
13687TIP3    H262553   6.666   2.701   0.072 -0.2606 -2.4891  0.3922
13688TIP3   OH262554   0.747   2.530  12.722  0.4868 -0.1139  0.0633
13688TIP3    H162555   0.829   2.579  12.719  0.1479  0.4186 -0.5546
13688TIP3    H262556   0.682   2.593  12.752  0.3369 -0.5986  0.7992
13689TIP3   OH262557   3.344   5.433  15.004 -0.1889  0.2635 -0.1079
13689TIP3    H162558   3.296   5.513  15.026  1.3085  1.9165 -2.3844
13689TIP3    H262559   3.361   5.392  15.089 -2.8645  1.1873  0.9740
13690TIP3   OH262560   6.530   1.654  13.704 -0.5726 -0.5574 -0.4584
13690TIP3    H162561   6.614   1.658  13.657  0.9287  0.6570  2.0756
13690TIP3    H262562   6.554   1.668  13.796 -3.6537  0.5880  0.2829
13691TIP3   OH262563   4.841   1.024   0.365  0.5603 -0.1599  0.1486
13691TIP3    H162564   4.748   1.039   0.381  0.4780 -0.9395  0.4422
13691TIP3    H262565   4.847   1.009   0.271  0.2434 -1.0371  0.2591
13692TIP3   OH262566   1.385   5.519  14.180  0.2042 -0.3342  0.0663
13692TIP3    H162567   1.343   5.503  14.096 -1.4007  3.3165 -0.0405
13692TIP3    H262568   1.454   5.583  14.161 -0.9737  1.5131  1.5379
13693TIP3   OH262569   3.879   6.015   5.193 -0.2391  0.3514  0.1182
13693TIP3    H162570   3.971   5.989   5.186 -0.6671 -1.3178  0.0722
13693TIP3    H262571   3.879   6.092   5.249  1.2561  0.8277 -0.5008
13694TIP3   OH262572   6.483   1.846   2.435 -0.4485  0.0551 -0.3083
13694TIP3    H162573   6.490   1.759   2.396 -3.2176 -0.1196 -0.5983
13694TIP3    H262574   6.484   1.830   2.530 -0.5223 -0.2331 -0.3565
13695TIP3   OH262575   1.325   1.688   5.581 -0.0872 -0.4182 -0.4639
13695TIP3    H162576   1.315   1.658   5.671 -1.4580  0.9536 -0.1270
13695TIP3    H262577   1.248   1.654   5.536  0.4624 -0.8783 -1.0688
13696TIP3   OH262578   4.876   6.301   6.014 -0.1406  0.1573  0.3221
13696TIP3    H162579   4.912   6.263   6.094  2.1431  0.6909 -0.3801
13696TIP3    H262580   4.949   6.349   5.976 -1.6251  1.2475 -1.2751
13697TIP3   OH262581   6.777   3.059   0.775 -0.6704 -0.5421 -0.1441
13697TIP3    H162582   6.773   2.964   0.787 -1.5747 -0.6484 -1.1506
13697TIP3    H262583   6.802   3.070   0.684  1.7963  0.2187  0.5389
13698TIP3   OH262584   0.225   2.110  14.516  0.3773 -0.2459  0.0082
13698TIP3    H162585   0.166   2.084  14.587  0.5037  0.7058  0.4856
13698TIP3    H262586   0.251   2.028  14.475 -1.7437 -0.6696 -0.6138
13699TIP3   OH262587   0.620   6.535  14.794  0.5629  0.0738  0.6169
13699TIP3    H162588   0.687   6.468  14.780  0.3564  0.3090 -1.9516
13699TIP3    H262589   0.544   6.504  14.746 -0.5884  0.7215  1.9307
13700TIP3   OH262590   5.871   5.007   3.330  0.0044  0.8078  0.7109
13700TIP3    H162591   5.877   4.918   3.296 -1.0830  0.7227  0.7087
13700TIP3    H262592   5.786   5.010   3.374  0.6613  1.4071  2.0102
13701TIP3   OH262593   6.795   2.337   0.990 -0.0091 -0.8948  0.3205
13701TIP3    H162594   6.861   2.393   0.950 -0.1162 -0.5989  0.5532
13701TIP3    H262595   6.786   2.263   0.930 -1.4007  0.3532 -1.1060
13702TIP3   OH262596   0.396   3.780   1.762  0.1602  0.0141  0.0741
13702TIP3    H162597   0.418   3.699   1.718  0.0897 -0.1857  0.4046
13702TIP3    H262598   0.332   3.755   1.828 -1.4884  0.6521 -1.1995
13703TIP3   OH262599   3.310   0.542  15.322  0.1143 -0.3346 -0.4326
13703TIP3    H162600   3.310   0.635  15.302  0.0883 -0.4511 -0.9961
13703TIP3    H262601   3.250   0.533  15.395  1.2594  0.2900  0.6159
13704TIP3   OH262602   0.115   4.742   2.383  0.0172 -0.9054  0.6778
13704TIP3    H162603   0.167   4.771   2.308  1.2218  0.1054  1.8660
13704TIP3    H262604   0.074   4.822   2.416 -2.5680 -1.6880 -0.3537
13705TIP3   OH262605   3.631   3.687   3.381  0.6585  0.1997  0.8964
13705TIP3    H162606   3.565   3.742   3.424  1.6246  1.3911  0.9120
13705TIP3    H262607   3.697   3.749   3.350  0.0855 -0.6109 -2.2103
13706TIP3   OH262608   2.491   4.421   4.451 -0.5186  0.0020  0.4744
13706TIP3    H162609   2.580   4.409   4.485  0.3294  0.0978 -1.6006
13706TIP3    H262610   2.455   4.332   4.446 -0.7141 -0.0096  1.6532
13707TIP3   OH262611   0.819   1.656   1.277  0.0047  0.2912 -0.0764
13707TIP3    H162612   0.767   1.670   1.356  1.2281  0.7661  0.6843
13707TIP3    H262613   0.755   1.635   1.209 -1.0374 -0.7448  1.1688
13708TIP3   OH262614   4.314   0.449   4.638 -0.2367 -0.7187 -0.0514
13708TIP3    H162615   4.313   0.376   4.575  0.5289 -0.3439 -0.5152
13708TIP3    H262616   4.254   0.421   4.708  1.3410 -2.5758  0.6544
13709TIP3   OH262617   6.322   6.363   1.466 -0.1726 -0.1417  0.4179
13709TIP3    H162618   6.369   6.373   1.549 -1.3380 -0.5713  1.1460
13709TIP3    H262619   6.249   6.425   1.471 -0.8369 -0.8832  0.1559
13710TIP3   OH262620   1.994   0.588   4.904 -0.0487  0.0942 -0.1111
13710TIP3    H162621   1.957   0.500   4.907 -1.3099  0.6248  0.6054
13710TIP3    H262622   1.991   0.612   4.811 -0.4077 -0.3364 -0.2159
13711TIP3   OH262623   5.289   2.958  11.178  0.4109  0.4265 -0.2015
13711TIP3    H162624   5.225   2.908  11.229 -0.0927  1.4243  0.1572
13711TIP3    H262625   5.281   2.922  11.090  0.2932 -0.3461  0.1063
13712TIP3   OH262626   5.789   0.073  14.768 -0.1674  0.2965  0.0355
13712TIP3    H162627   5.883   0.084  14.783 -0.1229 -0.5783  0.4306
13712TIP3    H262628   5.753   0.161  14.783  0.3462  0.2529  1.8552
13713TIP3   OH262629   1.970   0.266  12.006  0.2640 -0.4152 -0.4611
13713TIP3    H162630   1.878   0.247  12.022 -0.0820  0.0572 -1.7780
13713TIP3    H262631   2.013   0.249  12.090 -0.5880 -3.2385 -0.5042
13714TIP3   OH262632   4.308   4.475   0.961  0.8870  0.7726 -0.5321
13714TIP3    H162633   4.218   4.498   0.984  0.4956 -2.0943  1.2702
13714TIP3    H262634   4.361   4.547   0.996 -0.5820  1.8528 -0.4565
13715TIP3   OH262635   0.568   3.429   5.066 -0.1671  0.8496  0.2385
13715TIP3    H162636   0.651   3.458   5.027 -0.6028  2.4262  0.4180
13715TIP3    H262637   0.594   3.380   5.143  0.6197  0.4896 -0.2422
13716TIP3   OH262638   1.314   1.893  15.114 -0.1236  0.0985  0.3901
13716TIP3    H162639   1.329   1.798  15.117  0.2917  0.1750  1.6504
13716TIP3    H262640   1.394   1.930  15.151  0.1933  1.0128 -1.1603
13717TIP3   OH262641   5.887   1.186   0.249 -0.3367 -0.0257  0.0332
13717TIP3    H162642   5.956   1.229   0.299 -2.2348  0.6424  2.2726
13717TIP3    H262643   5.849   1.123   0.310 -3.2281  1.3101 -0.2340
13718TIP3   OH262644   2.730   5.503  14.637  0.2779 -0.1068 -0.5609
13718TIP3    H162645   2.678   5.581  14.656 -0.8361 -0.7457 -0.9231
13718TIP3    H262646   2.805   5.509  14.696  0.8393  1.8323 -1.3705
13719TIP3   OH262647   1.521   4.840   1.757 -0.4338  0.0741  0.6766
13719TIP3    H162648   1.443   4.880   1.795  0.2799  0.3070  1.9564
13719TIP3    H262649   1.594   4.892   1.792  0.3208 -0.2989 -0.2886
13720TIP3   OH262650   4.479   4.807   4.875  0.3487 -0.1923  0.4561
13720TIP3    H162651   4.532   4.800   4.955  0.9582  0.2995  0.0959
13720TIP3    H262652   4.497   4.726   4.827  0.2219 -0.3450  0.6594
13721TIP3   OH262653   1.900   1.984   5.887  0.3422  0.4038  0.0594
13721TIP3    H162654   1.906   1.888   5.894  1.8747  0.5248  0.9657
13721TIP3    H262655   1.891   2.001   5.794 -1.4696 -0.6670 -0.0048
13722TIP3   OH262656   5.491   2.892   0.812 -0.2160  0.8999 -0.6988
13722TIP3    H162657   5.567   2.855   0.768 -0.1169  0.4788 -0.1811
13722TIP3    H262658   5.417   2.871   0.755 -0.1498 -0.0299 -0.4466
13723TIP3   OH262659   5.006   4.990  13.082  0.3518 -0.0151 -0.0828
13723TIP3    H162660   4.929   5.036  13.116  1.3707  0.2504  2.0528
13723TIP3    H262661   5.048   5.054  13.024  1.4307  1.7339  2.3919
13724TIP3   OH262662   4.311   2.673  15.480  0.1047  0.0374  0.3068
13724TIP3    H162663   4.306   2.725  15.560  0.7362 -0.4975  0.7036
13724TIP3    H262664   4.229   2.692  15.434  0.1569  1.0919  0.6106
13725TIP3   OH262665   4.556   1.019  13.989  0.4691  0.1748 -0.4579
13725TIP3    H162666   4.548   0.924  13.985  1.0340  0.1375 -0.7590
13725TIP3    H262667   4.639   1.038  13.947  2.5571  0.4487  3.3254
13726TIP3   OH262668   5.965   0.722  11.553 -0.4312  0.0796 -0.2258
13726TIP3    H162669   5.931   0.802  11.513 -0.0846  0.7137  0.7117
13726TIP3    H262670   6.030   0.752  11.616  0.6750 -1.0221 -0.8098
13727TIP3   OH262671   2.602   1.483   2.515  0.0019  0.0199 -0.2430
13727TIP3    H162672   2.592   1.471   2.421 -0.7968  0.2703 -0.1987
13727TIP3    H262673   2.513   1.476   2.550  0.0866  1.3629  0.3154
13728TIP3   OH262674   4.516   6.639  15.972  0.2049 -0.7322  0.0775
13728TIP3    H162675   4.565   6.662  15.894 -0.8926  0.2016 -0.3674
13728TIP3    H262676   4.544   6.702  16.039 -0.6785  0.0872 -0.3030
13729TIP3   OH262677   2.397   3.183   2.568  0.2715  0.6984  0.0436
13729TIP3    H162678   2.397   3.164   2.662  1.3384  0.7234  0.0688
13729TIP3    H262679   2.489   3.173   2.542 -0.2281 -0.6753 -1.2939
13730TIP3   OH262680   2.313   2.283   6.595  0.6241 -0.4269  0.2513
13730TIP3    H162681   2.307   2.243   6.682  0.4138 -1.6219 -0.2901
13730TIP3    H262682   2.231   2.330   6.584  0.4565 -0.6550  0.5200
13731TIP3   OH262683   2.163   3.451  13.746  0.0860 -0.0215  0.3758
13731TIP3    H162684   2.171   3.422  13.655  0.5225 -2.1411  1.0411
13731TIP3    H262685   2.237   3.510  13.759 -0.7741  1.4434 -1.0011
13732TIP3   OH262686   2.477   1.065   0.332  0.0784 -0.6029 -0.3625
13732TIP3    H162687   2.485   0.970   0.328  1.5317 -0.6940  2.2236
13732TIP3    H262688   2.388   1.081   0.363  0.1993 -1.2116  0.3246
13733TIP3   OH262689   6.583   2.715   3.336  0.4516  0.3948 -0.8231
13733TIP3    H162690   6.659   2.773   3.328  0.7001  0.3055  0.5505
13733TIP3    H262691   6.562   2.690   3.246  1.6156  0.9800 -1.2800
13734TIP3   OH262692   4.698   5.286  15.290  0.2890  0.2451  0.2793
13734TIP3    H162693   4.686   5.364  15.235 -3.9332  1.3264  2.3246
13734TIP3    H262694   4.623   5.231  15.271  0.8680 -1.2615  2.0323
13735TIP3   OH262695   3.836   5.833   0.881 -0.2583 -0.1529  0.2486
13735TIP3    H162696   3.894   5.904   0.906  1.1493 -1.1207 -0.1699
13735TIP3    H262697   3.894   5.765   0.845 -1.6639 -1.0306 -0.4726
13736TIP3   OH262698   6.614   3.665   4.236  0.7771 -0.7158  0.4910
13736TIP3    H162699   6.646   3.598   4.296 -0.2991 -2.8117 -1.1296
13736TIP3    H262700   6.688   3.682   4.177  1.8293  1.3319  2.2315
13737TIP3   OH262701   4.200   0.706   2.640 -0.3486  0.2758  0.4577
13737TIP3    H162702   4.270   0.761   2.604  0.5997 -1.8881 -1.2824
13737TIP3    H262703   4.123   0.727   2.588  0.2229 -0.5744 -0.7777
13738TIP3   OH262704   2.088   0.050   6.818  0.0483  0.2872  0.3484
13738TIP3    H162705   2.096  -0.036   6.859 -0.9913 -0.4017 -0.8301
13738TIP3    H262706   2.139   0.043   6.738 -1.4403  0.1686 -0.6223
13739TIP3   OH262707   5.741   4.307  12.062  0.1439  0.2125 -0.4284
13739TIP3    H162708   5.679   4.259  12.116 -1.2371  3.4745  1.1915
13739TIP3    H262709   5.814   4.327  12.121  0.1375  1.0588 -0.6849
13740TIP3   OH262710   5.534   1.826   2.689  0.1837 -0.9120 -0.2063
13740TIP3    H162711   5.531   1.730   2.690  2.0715 -1.0082  0.6378
13740TIP3    H262712   5.521   1.850   2.781  0.7479 -0.4186 -0.2542
13741TIP3   OH262713   3.910   2.590   4.970 -0.2331 -0.0780 -0.2688
13741TIP3    H162714   3.961   2.536   5.031 -0.2099  0.7296  0.4389
13741TIP3    H262715   3.839   2.626   5.023  0.0589  1.0150 -0.6017
13742TIP3   OH262716   5.809   0.118  14.221 -0.3907  0.1575 -0.2731
13742TIP3    H162717   5.745   0.047  14.218 -0.4625  0.2214 -0.2507
13742TIP3    H262718   5.775   0.184  14.162 -1.1819  0.8914  0.9485
13743TIP3   OH262719   0.138   3.108  14.804 -0.3542 -0.8189  0.3618
13743TIP3    H162720   0.229   3.085  14.825 -0.6008 -2.3864 -0.1624
13743TIP3    H262721   0.129   3.199  14.834  1.1868 -0.8445  1.0134
13744TIP3   OH262722   6.007   1.164  12.228 -0.2072  0.3981  0.2068
13744TIP3    H162723   6.031   1.196  12.141 -0.6951 -0.1867 -0.1572
13744TIP3    H262724   6.036   1.232  12.288  1.0314  0.3570 -0.3315
13745TIP3   OH262725   4.923   5.560  14.402  0.2073  0.5290  0.7010
13745TIP3    H162726   4.910   5.635  14.461 -0.5305  1.0861 -0.1394
13745TIP3    H262727   4.847   5.504  14.418 -0.2669  0.9354 -0.0712
13746TIP3   OH262728   6.461   1.660   0.678 -0.6892 -0.3810  0.0182
13746TIP3    H162729   6.433   1.718   0.607  1.2795  0.6693  0.0028
13746TIP3    H262730   6.392   1.666   0.743 -1.0950  1.0927 -0.5025
13747TIP3   OH262731   2.282   1.453   4.335  0.0196 -0.2660  0.3180
13747TIP3    H162732   2.264   1.370   4.291 -1.6695  0.7597 -1.0944
13747TIP3    H262733   2.242   1.443   4.422  0.9242 -1.3273  0.6398
13748TIP3   OH262734   2.158   6.404  11.983 -0.4290  0.0078 -0.1882
13748TIP3    H162735   2.065   6.410  11.962 -0.1616 -1.0499 -1.9181
13748TIP3    H262736   2.163   6.338  12.052 -1.0130  0.5637  0.3883
13749TIP3   OH262737   6.600   3.688   5.603 -0.2089 -0.6613 -0.3557
13749TIP3    H162738   6.637   3.606   5.569  1.5796 -0.9185  1.9813
13749TIP3    H262739   6.655   3.757   5.567 -0.8844 -0.5728 -1.2450
13750TIP3   OH262740   3.361   1.831   5.835  0.2834  0.6428 -0.3057
13750TIP3    H162741   3.276   1.791   5.852 -0.2366  2.2385  1.2172
13750TIP3    H262742   3.415   1.761   5.799 -0.1525 -1.8292  3.3698
13751TIP3   OH262743   3.691   2.631  15.236  0.3328  0.0698 -0.4418
13751TIP3    H162744   3.745   2.709  15.249 -0.3410  0.2095  2.0783
13751TIP3    H262745   3.612   2.648  15.287  0.1374 -2.2399  0.1201
13752TIP3   OH262746   2.946   6.784  15.246 -0.1180 -0.0509  0.0097
13752TIP3    H162747   3.031   6.826  15.251 -0.3674  0.5709 -0.7815
13752TIP3    H262748   2.922   6.766  15.337  1.6047 -1.7922  0.1809
13753TIP3   OH262749   6.363   0.363  14.760  0.4374  0.1982 -0.1972
13753TIP3    H162750   6.395   0.275  14.740  0.2704 -0.7200  3.0443
13753TIP3    H262751   6.269   0.353  14.771  0.5705  0.5092  1.3483
13754TIP3   OH262752   0.407   1.410   3.909 -0.2103 -0.4038  0.7277
13754TIP3    H162753   0.359   1.469   3.967 -1.0296 -1.2340  0.9251
13754TIP3    H262754   0.426   1.333   3.963  0.8897 -0.3159  0.4973
13755TIP3   OH262755   0.596   3.947   3.823  0.0083  0.1469 -0.0612
13755TIP3    H162756   0.556   4.014   3.767  0.0219  1.0726  0.9978
13755TIP3    H262757   0.545   3.868   3.806 -0.3072  0.5418 -0.9939
13756TIP3   OH262758   0.933   5.782  14.202 -0.2635  0.0662  0.1763
13756TIP3    H162759   0.950   5.710  14.262 -2.2699 -1.3059 -0.8084
13756TIP3    H262760   1.007   5.780  14.141 -0.0946 -0.9130  0.3983
13757TIP3   OH262761   6.146   2.599   6.737 -0.0719 -0.4849 -0.3139
13757TIP3    H162762   6.086   2.586   6.664 -0.0635 -2.4574 -0.0095
13757TIP3    H262763   6.130   2.525   6.795 -0.0671  0.9997  1.7183
13758TIP3   OH262764   5.275   3.137  14.025 -0.1814  0.1452  0.5978
13758TIP3    H162765   5.335   3.062  14.024 -1.6623 -1.0974  0.0805
13758TIP3    H262766   5.296   3.183  14.106  1.7662  0.0356  0.2022
13759TIP3   OH262767   1.328   3.420   5.640 -0.2344  0.3347  0.1575
13759TIP3    H162768   1.304   3.330   5.662 -0.8839  0.3563 -0.4431
13759TIP3    H262769   1.267   3.474   5.690  0.9186  0.5030  1.4706
13760TIP3   OH262770   0.585   4.120   1.400  0.0764 -0.3921  0.3921
13760TIP3    H162771   0.662   4.170   1.428  1.3070 -1.3710 -1.0512
13760TIP3    H262772   0.610   4.086   1.313 -1.6224 -1.5276  0.3150
13761TIP3   OH262773   4.327   6.408  12.112 -1.0129  0.0945  0.0083
13761TIP3    H162774   4.396   6.395  12.176 -1.0320  0.0295  0.0149
13761TIP3    H262775   4.269   6.473  12.152 -1.1845 -0.1645  0.1842
13762TIP3   OH262776   4.064   6.254   6.665 -0.1981  0.0639 -0.3479
13762TIP3    H162777   4.069   6.203   6.746  0.1359  1.1369  0.3234
13762TIP3    H262778   3.971   6.261   6.647 -0.3468  0.8437  0.6303
13763TIP3   OH262779   1.322   6.294  11.723 -0.1487 -0.1115 -0.6502
13763TIP3    H162780   1.256   6.364  11.721 -1.2126 -0.9536  1.4774
13763TIP3    H262781   1.327   6.269  11.816  1.8952 -1.2957 -1.0253
13764TIP3   OH262782   0.770   1.526  15.931 -0.4587 -0.2761 -0.1862
13764TIP3    H162783   0.752   1.576  16.012  0.8384  1.2847 -0.7950
13764TIP3    H262784   0.749   1.587  15.861  1.3231 -0.4987 -0.9675
13765TIP3   OH262785   3.226   1.700  16.611  0.7513 -0.2712  0.0686
13765TIP3    H162786   3.285   1.756  16.662 -0.4043  0.9176  0.1675
13765TIP3    H262787   3.230   1.736  16.522 -0.5258  0.4596  0.2759
13766TIP3   OH262788   2.750   3.391  15.529 -0.4743 -0.1003  0.5494
13766TIP3    H162789   2.788   3.371  15.615  2.2362  1.7345 -0.0968
13766TIP3    H262790   2.767   3.485  15.517 -3.9805  0.5576 -0.5618
13767TIP3   OH262791   5.905   0.538  13.357 -0.2337  0.3903  0.2410
13767TIP3    H162792   5.908   0.620  13.308  0.5791 -0.0216 -0.4218
13767TIP3    H262793   5.827   0.493  13.325  0.0284  0.3396 -0.3405
13768TIP3   OH262794   0.140   0.399  11.830 -0.0277 -0.0274  0.3721
13768TIP3    H162795   0.129   0.345  11.908  0.3151  0.8746  1.0602
13768TIP3    H262796   0.175   0.339  11.764 -1.8805 -1.2086  0.3724
13769TIP3   OH262797   3.424   4.447   0.755 -0.0350 -0.5412 -0.6066
13769TIP3    H162798   3.432   4.387   0.681 -0.8421  0.5537 -1.6200
13769TIP3    H262799   3.358   4.511   0.727  0.5429  0.6109  0.5742
13770TIP3   OH262800   6.477   4.789  13.263  0.0326  0.4604  0.4581
13770TIP3    H162801   6.412   4.834  13.208 -0.0187 -0.8922 -0.6482
13770TIP3    H262802   6.495   4.851  13.334  0.2306  2.3675 -1.1579
13771TIP3   OH262803   0.737   4.048  14.593  0.4663 -0.2314 -0.1871
13771TIP3    H162804   0.763   3.977  14.652  1.2337  0.8591  0.8428
13771TIP3    H262805   0.642   4.038  14.584  0.6305 -1.7275 -0.5500
13772TIP3   OH262806   0.737   2.552   4.222 -0.3623 -0.2366 -0.4633
13772TIP3    H162807   0.792   2.486   4.180 -0.5898 -1.5540  1.1822
13772TIP3    H262808   0.662   2.563   4.164  0.4132 -0.3018 -1.4912
13773TIP3   OH262809   4.120   2.932  14.682 -0.3295  0.4377 -0.0264
13773TIP3    H162810   4.067   2.856  14.658 -1.0953  1.5614 -2.0910
13773TIP3    H262811   4.210   2.899  14.680 -0.5525 -0.1734 -2.0722
13774TIP3   OH262812   5.557   2.871   5.069 -0.0283  0.5897  0.3094
13774TIP3    H162813   5.472   2.905   5.041 -0.6400 -0.2830  1.0150
13774TIP3    H262814   5.574   2.796   5.012  0.6962  1.2735 -0.3975
13775TIP3   OH262815   4.341   4.710  13.889 -0.8638  0.5110 -0.4247
13775TIP3    H162816   4.254   4.706  13.928 -0.4530 -0.3546  0.4170
13775TIP3    H262817   4.325   4.729  13.797 -1.9249  0.7306 -0.2036
13776TIP3   OH262818   0.617   1.753  17.008 -0.7817 -0.4785 -0.6536
13776TIP3    H162819   0.571   1.698  16.945 -4.1464  0.9342  0.3712
13776TIP3    H262820   0.626   1.698  17.086  1.0905 -1.3670 -1.4252
13777TIP3   OH262821   1.812   1.076  13.848  0.4856  0.3953 -0.4387
13777TIP3    H162822   1.803   1.150  13.908 -2.1127  0.9449 -1.3844
13777TIP3    H262823   1.809   0.999  13.905 -1.7184  0.9109  0.2199
13778TIP3   OH262824   0.456   0.943   2.786 -0.2323 -0.2494 -0.2693
13778TIP3    H162825   0.369   0.974   2.759 -1.3687 -1.8531  1.3135
13778TIP3    H262826   0.439   0.859   2.828  2.0528 -0.3619  0.5441
13779TIP3   OH262827   2.252   5.049   3.171 -0.5418  0.0152  0.3903
13779TIP3    H162828   2.197   5.029   3.096 -0.3400  1.3132 -0.1239
13779TIP3    H262829   2.342   5.040   3.139 -0.3823 -2.2887  1.2753
13780TIP3   OH262830   6.517   2.765  11.709  1.3648 -0.0742  0.0123
13780TIP3    H162831   6.535   2.752  11.802  2.0349 -1.2171 -0.2576
13780TIP3    H262832   6.602   2.783  11.670  1.0557  0.6209 -0.3603
13781TIP3   OH262833   6.129   0.345   1.138  0.1594 -0.3010  0.6273
13781TIP3    H162834   6.102   0.414   1.077 -1.3462  0.1210  1.7091
13781TIP3    H262835   6.083   0.365   1.219  1.4705 -1.3087  1.6820
13782TIP3   OH262836   2.161   3.167  16.330 -0.1049  0.6079  0.0330
13782TIP3    H162837   2.100   3.233  16.363 -1.6083 -0.3010 -0.8406
13782TIP3    H262838   2.176   3.109  16.404 -0.4675  0.7129  0.1924
13783TIP3   OH262839   0.905   3.291  16.202 -0.2271 -0.5360  0.0341
13783TIP3    H162840   0.828   3.280  16.258 -0.7215  1.3424 -0.2303
13783TIP3    H262841   0.953   3.364  16.241 -0.6888  0.9674 -2.0440
13784TIP3   OH262842   4.376   1.966  11.813  0.3515  0.0125 -0.1946
13784TIP3    H162843   4.344   2.027  11.746 -0.7952 -0.1073  0.2234
13784TIP3    H262844   4.314   1.893  11.810  0.2193  0.0527  1.0652
13785TIP3   OH262845   2.402   2.709   4.062 -0.3073  0.3881 -0.8345
13785TIP3    H162846   2.435   2.678   4.147 -0.3322 -0.0229 -0.9714
13785TIP3    H262847   2.389   2.629   4.012 -0.5873  0.6150 -1.1199
13786TIP3   OH262848   2.190   5.423   2.546 -0.1460 -0.6978 -0.5043
13786TIP3    H162849   2.259   5.449   2.485 -0.0168  1.7796  0.5847
13786TIP3    H262850   2.237   5.388   2.621 -0.2099 -1.4769 -0.8187
13787TIP3   OH262851   4.532   1.743  12.586 -0.2554 -0.7044 -0.2353
13787TIP3    H162852   4.485   1.662  12.564 -0.7192 -0.3230 -0.6911
13787TIP3    H262853   4.462   1.807  12.602  0.1096 -0.1336 -0.8879
13788TIP3   OH262854   5.143   1.476  11.327  0.3288 -0.2917  0.4506
13788TIP3    H162855   5.141   1.534  11.251 -1.9385  1.3425  1.6325
13788TIP3    H262856   5.189   1.527  11.394 -0.8633 -0.1966  1.2217
13789TIP3   OH262857   3.308   4.126  17.265  0.3917  0.6076 -0.2200
13789TIP3    H162858   3.317   4.046  17.213  3.0233 -0.6292  1.8803
13789TIP3    H262859   3.224   4.163  17.239 -0.7784 -2.6534 -1.5433
13790TIP3   OH262860   1.232   2.776   2.089 -0.0028  0.5406 -0.0471
13790TIP3    H162861   1.307   2.723   2.065 -0.8989 -1.0731  0.5316
13790TIP3    H262862   1.246   2.798   2.181  0.0943  0.8313 -0.1305
13791TIP3   OH262863   2.688   0.911  16.158 -0.2402  0.1456  0.0913
13791TIP3    H162864   2.778   0.888  16.177 -0.4651 -1.1701 -0.3439
13791TIP3    H262865   2.690   0.945  16.069  0.1568  2.3547  0.8752
13792TIP3   OH262866   1.204   1.547   2.247 -0.2527  0.5102  0.5464
13792TIP3    H162867   1.187   1.578   2.336  0.5426  0.2975  0.7838
13792TIP3    H262868   1.295   1.573   2.230  0.1779 -0.9650  0.4500
13793TIP3   OH262869   5.704   3.646   5.883  0.0877 -0.2919 -0.0880
13793TIP3    H162870   5.757   3.718   5.917  0.6520 -1.1916  0.9953
13793TIP3    H262871   5.758   3.568   5.895 -1.2603 -1.1646  0.5421
13794TIP3   OH262872   1.269   6.022  12.247  0.3031  0.1278  0.3078
13794TIP3    H162873   1.260   6.007  12.341 -0.0339 -1.4803  0.0425
13794TIP3    H262874   1.362   6.006  12.229  0.2092 -0.3631  0.2454
13795TIP3   OH262875   5.592   1.814  13.282  0.2716 -0.3155 -0.4561
13795TIP3    H162876   5.526   1.746  13.274  0.1809 -0.1056 -1.6568
13795TIP3    H262877   5.659   1.776  13.339 -1.1571 -0.2869  1.3232
13796TIP3   OH262878   6.584   1.018   0.050 -0.3431  0.0683 -0.1685
13796TIP3    H162879   6.662   1.072   0.042  0.2652 -0.8234 -0.4448
13796TIP3    H262880   6.538   1.029  -0.033  0.2703 -0.5670 -0.6039
13797TIP3   OH262881   2.461   4.247   1.100 -0.2190  0.2879 -0.1089
13797TIP3    H162882   2.414   4.165   1.110  1.4647 -0.6629  0.3906
13797TIP3    H262883   2.529   4.244   1.167  0.6763  1.5097 -0.9183
13798TIP3   OH262884   2.521   0.307   2.936 -0.3383  0.0216  0.2796
13798TIP3    H162885   2.557   0.225   2.969  1.4949  0.0971 -1.3473
13798TIP3    H262886   2.537   0.370   3.006  1.5059 -0.2625  0.1549
13799TIP3   OH262887   1.824   3.440   2.100  0.1537  0.2359  0.0335
13799TIP3    H162888   1.766   3.510   2.132 -0.3782  0.2861 -1.0003
13799TIP3    H262889   1.843   3.388   2.178 -2.4037 -0.5924  0.2118
13800TIP3   OH262890   1.965   2.692  14.868  0.0802 -0.3382 -0.0532
13800TIP3    H162891   2.048   2.735  14.847 -0.9531  0.7899 -2.2304
13800TIP3    H262892   1.974   2.604  14.832  0.5517 -0.4318  0.2851
13801TIP3   OH262893   3.165   2.350   3.066 -0.2309  0.3304 -0.2079
13801TIP3    H162894   3.123   2.333   3.150  2.1228  0.8676  1.1565
13801TIP3    H262895   3.254   2.377   3.088 -0.1211  2.5053 -2.7914
13802TIP3   OH262896   3.334   5.288  13.988 -0.1255  0.2823  0.1837
13802TIP3    H162897   3.348   5.235  14.066  0.8741 -0.6126 -0.5675
13802TIP3    H262898   3.248   5.328  14.000 -0.6279 -1.0113  1.0694
13803TIP3   OH262899   1.526   6.817  15.212 -0.1996  0.3191  0.2476
13803TIP3    H162900   1.450   6.809  15.154  0.2358  1.0945 -0.4468
13803TIP3    H262901   1.539   6.729  15.246 -1.6780  0.2563  0.7241
13804TIP3   OH262902   4.316   2.565  14.553  0.5144  0.9166  0.0580
13804TIP3    H162903   4.408   2.551  14.573  0.1798 -0.9955  0.4890
13804TIP3    H262904   4.312   2.569  14.457  0.8288 -1.2201 -0.0940
13805TIP3   OH262905   5.866   0.654  15.533  0.9315  0.2391 -0.3967
13805TIP3    H162906   5.866   0.580  15.593 -0.6945 -0.1881 -0.8809
13805TIP3    H262907   5.897   0.728  15.586  0.7671 -0.3912  0.6046
13806TIP3   OH262908   6.131   3.314   0.376 -0.5395 -0.4220 -0.3252
13806TIP3    H162909   6.162   3.371   0.306 -0.4286  0.7807  0.6843
13806TIP3    H262910   6.209   3.294   0.428 -0.9804  0.6083  0.7901
13807TIP3   OH262911   2.685   6.741   4.967 -0.1219 -0.5731  0.2163
13807TIP3    H162912   2.680   6.814   4.905 -0.3221 -0.5656  0.2409
13807TIP3    H262913   2.600   6.697   4.960 -0.2953 -0.3389  0.7696
13808TIP3   OH262914   4.870   4.971   4.377 -0.6661  0.2068  0.6161
13808TIP3    H162915   4.919   5.025   4.438 -0.4617  0.5118  0.1841
13808TIP3    H262916   4.783   5.011   4.374 -0.4817  0.5898  0.2090
13809TIP3   OH262917   1.222   1.224  15.361  0.4551  0.1758  0.2472
13809TIP3    H162918   1.251   1.184  15.443 -1.7353  0.8379  1.4288
13809TIP3    H262919   1.231   1.154  15.297  1.5134 -0.5987  1.1942
13810TIP3   OH262920   5.557   2.633  12.547 -0.1062  0.2227 -0.0608
13810TIP3    H162921   5.526   2.585  12.623 -0.0497 -1.1062 -0.8565
13810TIP3    H262922   5.651   2.615  12.544 -0.1390  0.1257 -0.5441
13811TIP3   OH262923   1.511   2.739  12.530  0.3708 -0.0984  0.0249
13811TIP3    H162924   1.543   2.680  12.461  0.1429  0.5790 -0.6769
13811TIP3    H262925   1.474   2.813  12.483  0.3071  0.4354  0.8876
13812TIP3   OH262926   4.161   2.996   4.533  0.2309  0.4292 -0.5193
13812TIP3    H162927   4.176   3.088   4.556  2.2858 -0.2804  1.3260
13812TIP3    H262928   4.121   2.958   4.612  2.2943 -0.8777 -0.0170
13813TIP3   OH262929   0.371   0.066   5.956 -0.0159  0.3563 -0.1985
13813TIP3    H162930   0.460   0.036   5.935 -0.5856 -1.4007 -0.2161
13813TIP3    H262931   0.384   0.137   6.019  1.3716 -2.3284  2.8527
13814TIP3   OH262932   4.515   0.949  14.465  0.3517 -0.3164  0.2854
13814TIP3    H162933   4.556   0.949  14.552  1.8628 -1.6463 -0.3671
13814TIP3    H262934   4.518   0.858  14.437  0.0965  0.1188 -1.2531
13815TIP3   OH262935   4.204   0.967  13.561  0.0562  0.2392 -0.2752
13815TIP3    H162936   4.255   0.993  13.484  1.5641  0.2146  0.6773
13815TIP3    H262937   4.269   0.947  13.627 -1.2144  0.6683  1.1607
13816TIP3   OH262938   4.194   2.839  11.979  0.3030 -0.1963  1.1525
13816TIP3    H162939   4.121   2.887  12.018  1.2769  2.5926 -0.2135
13816TIP3    H262940   4.158   2.753  11.958 -2.1851  0.6237  1.7735
13817TIP3   OH262941   5.643   4.004  13.957  0.4814  0.0057 -0.2685
13817TIP3    H162942   5.724   4.054  13.946  1.5981 -1.2078  1.6609
13817TIP3    H262943   5.669   3.930  14.013 -1.7061 -1.1310 -0.6599
13818TIP3   OH262944   1.885   1.806   5.279 -0.1971 -0.1199 -0.1412
13818TIP3    H162945   1.857   1.891   5.314 -0.7555 -0.5607  0.5092
13818TIP3    H262946   1.812   1.747   5.297  1.0770 -1.2898  1.5396
13819TIP3   OH262947   5.088   1.933   4.525  0.5143 -0.0961 -0.4330
13819TIP3    H162948   5.003   1.921   4.484  0.2039  2.6535 -0.7356
13819TIP3    H262949   5.083   1.882   4.606 -1.5383  0.2692 -0.2887
13820TIP3   OH262950   0.830   5.709   1.956  0.2329 -0.0659 -0.0745
13820TIP3    H162951   0.794   5.762   2.027  0.2658  0.6777 -0.6026
13820TIP3    H262952   0.834   5.769   1.881 -0.7756 -1.1010 -0.9994
13821TIP3   OH262953   6.307   0.190  16.208 -0.0221 -0.4152 -0.2693
13821TIP3    H162954   6.332   0.267  16.156  0.0358  0.9625  1.6651
13821TIP3    H262955   6.391   0.153  16.237 -0.0580 -0.9859 -0.8958
13822TIP3   OH262956   3.661   5.124   5.349  0.3571  0.1225 -0.2521
13822TIP3    H162957   3.706   5.068   5.411 -1.7794 -0.9268  0.4405
13822TIP3    H262958   3.612   5.064   5.292  1.7995  1.0743 -2.6756
13823TIP3   OH262959   5.904   5.731  14.136 -0.0951  0.1803  0.3738
13823TIP3    H162960   5.919   5.636  14.139  0.0765  0.1903 -0.2225
13823TIP3    H262961   5.976   5.768  14.186 -0.2793 -0.0127  0.7931
13824TIP3   OH262962   2.248   4.421   1.158 -0.5703 -0.6730 -0.0255
13824TIP3    H162963   2.193   4.406   1.081 -3.0974 -1.8950  1.8404
13824TIP3    H262964   2.325   4.366   1.143 -1.6247 -1.9380 -1.1269
13825TIP3   OH262965   6.531   5.269   3.091  0.5747  0.1091  0.4300
13825TIP3    H162966   6.528   5.193   3.149  2.2861 -1.1050 -0.9837
13825TIP3    H262967   6.623   5.294   3.087  0.1068  2.0029  0.4912
13826TIP3   OH262968   1.664   1.628  13.550 -0.3020  0.3630  0.6614
13826TIP3    H162969   1.721   1.552  13.535 -0.0470  0.9233 -1.4554
13826TIP3    H262970   1.580   1.603  13.511  0.1644  1.6103 -1.2676
13827TIP3   OH262971   6.036   2.208   4.845  0.1696 -0.0153  0.3230
13827TIP3    H162972   6.093   2.285   4.851  0.6699 -0.1056 -2.3332
13827TIP3    H262973   5.948   2.242   4.863  0.5303  0.9376  0.3456
13828TIP3   OH262974   5.277   0.577  14.478  0.0664 -0.5998  0.4115
13828TIP3    H162975   5.371   0.573  14.465 -0.0059 -1.3931  0.0297
13828TIP3    H262976   5.240   0.571  14.389 -0.3335  0.4142  0.4965
13829TIP3   OH262977   4.687   2.411   4.119  0.1568  0.0203 -0.2983
13829TIP3    H162978   4.599   2.446   4.136  0.1656  0.6986 -1.5369
13829TIP3    H262979   4.721   2.465   4.048  0.8493 -1.4241 -1.1106
13830TIP3   OH262980   4.457   2.841   2.579 -0.4396 -0.1644  0.6212
13830TIP3    H162981   4.527   2.829   2.514 -0.0395  1.3154  0.7514
13830TIP3    H262982   4.409   2.758   2.578 -1.8150  0.4792 -3.1932
13831TIP3   OH262983   1.098   2.295  11.990 -0.0059 -0.1105  0.3235
13831TIP3    H162984   1.076   2.387  12.001  0.8386  0.4372 -1.9892
13831TIP3    H262985   1.193   2.292  12.001 -0.1068 -0.8353  1.0582
13832TIP3   OH262986   0.158   0.520   0.536 -0.6891  0.0855 -0.2346
13832TIP3    H162987   0.214   0.448   0.506  0.9800  0.3204  2.1116
13832TIP3    H262988   0.101   0.538   0.461  0.1037 -2.4094 -1.5507
13833TIP3   OH262989   1.706   6.579   0.798  0.2787 -0.1384 -0.0303
13833TIP3    H162990   1.675   6.489   0.787  2.1681 -0.7484 -0.6899
13833TIP3    H262991   1.665   6.628   0.727  0.9451 -0.9522 -0.9831
13834TIP3   OH262992   1.659   3.517   3.658 -0.2618  0.0916  0.2107
13834TIP3    H162993   1.703   3.537   3.575 -3.4820  0.0449 -1.6576
13834TIP3    H262994   1.631   3.602   3.692  0.9790  0.1029  1.2931
13835TIP3   OH262995   3.451   2.878   6.018  0.4282  0.2485 -0.2648
13835TIP3    H162996   3.485   2.844   6.101 -0.5673 -2.7927 -0.9839
13835TIP3    H262997   3.359   2.898   6.036  0.1006 -0.8110 -0.7069
13836TIP3   OH262998   1.707   5.177   4.210  0.1433 -0.2456 -0.2385
13836TIP3    H162999   1.755   5.138   4.137  2.7261  1.1670  0.5764
13836TIP3    H263000   1.773   5.229   4.257 -1.3872 -1.1348  3.1598
13837TIP3   OH263001   5.386   1.089  16.500 -0.1695 -0.3311 -0.1431
13837TIP3    H163002   5.449   1.139  16.448 -1.3366  0.2650 -1.0322
13837TIP3    H263003   5.341   1.033  16.436 -2.7588  1.5686 -0.1579
13838TIP3   OH263004   0.702   3.753  14.509  0.0612 -0.3493  0.0385
13838TIP3    H163005   0.700   3.814  14.583 -0.8158  1.4040 -1.3527
13838TIP3    H263006   0.777   3.696  14.527 -1.2111 -1.2506  3.1949
13839TIP3   OH263007   1.781   0.500  12.069 -0.4355 -0.1433 -0.1652
13839TIP3    H163008   1.862   0.504  12.019  1.9109 -0.0554  3.2605
13839TIP3    H263009   1.744   0.414  12.048  1.8595 -1.2254 -0.0766
13840TIP3   OH263010   0.256   2.847   3.936  0.2999 -0.0164  0.5503
13840TIP3    H163011   0.335   2.890   3.902  2.2400 -2.5456  1.5507
13840TIP3    H263012   0.206   2.918   3.977  1.1610  1.9504 -1.5803
13841TIP3   OH263013   4.670   4.106  11.547  0.3353 -0.2219 -0.2176
13841TIP3    H163014   4.600   4.097  11.611  0.6351 -0.1848  0.1209
13841TIP3    H263015   4.658   4.032  11.487  0.2564 -0.4516  0.0787
13842TIP3   OH263016   2.521   4.449   2.019  0.0334 -0.2311 -0.3268
13842TIP3    H163017   2.482   4.391   2.084 -1.4931  0.4324 -0.6010
13842TIP3    H263018   2.527   4.396   1.940  0.0204 -0.4481 -0.1826
13843TIP3   OH263019   5.916   5.612  15.874  0.4523  0.3609  0.0185
13843TIP3    H163020   5.902   5.694  15.827 -0.5212 -0.0366 -0.4151
13843TIP3    H263021   5.874   5.627  15.959 -1.7674 -0.4478 -0.8830
13844TIP3   OH263022   6.459   4.307   1.530  0.0671  0.0015  0.0381
13844TIP3    H163023   6.490   4.270   1.447 -1.6612 -0.0396 -0.6308
13844TIP3    H263024   6.434   4.397   1.509 -0.5282 -0.0551  0.4616
13845TIP3   OH263025   3.889   0.235  15.229 -0.0546  0.4472  0.2973
13845TIP3    H163026   3.875   0.148  15.266 -1.6150 -0.4158 -2.0215
13845TIP3    H263027   3.882   0.295  15.303  0.5051 -1.3572  1.8703
13846TIP3   OH263028   2.881   4.716  16.733  0.6758  0.4035 -0.2515
13846TIP3    H163029   2.918   4.804  16.724 -0.8259  1.1203  0.1994
13846TIP3    H263030   2.833   4.718  16.816 -1.9637  0.2026 -1.6575
13847TIP3   OH263031   4.928   3.916   5.765 -0.0634  0.8750  0.3465
13847TIP3    H163032   4.905   3.901   5.857 -1.1601  1.6896  0.2192
13847TIP3    H263033   4.845   3.940   5.723 -0.2796 -2.4976 -1.5605
13848TIP3   OH263034   3.275   2.323  10.081  0.0215  0.1608  0.0966
13848TIP3    H163035   3.212   2.303  10.150  0.8852 -2.3512  0.2424
13848TIP3    H263036   3.228   2.307  10.000 -0.2279  0.6339  0.1433
13849TIP3   OH263037   5.305   5.767   3.651  0.1147 -0.3049 -0.0920
13849TIP3    H163038   5.285   5.808   3.736 -1.0811  0.8330 -0.8817
13849TIP3    H263039   5.348   5.836   3.601 -1.4947 -0.1122 -1.2833
13850TIP3   OH263040   0.272   4.054  14.352  0.1253  0.1035 -0.1591
13850TIP3    H163041   0.278   4.100  14.269 -0.8423  0.4129 -0.0638
13850TIP3    H263042   0.330   3.978  14.341  0.8120  0.6890 -0.7307
13851TIP3   OH263043   5.425   6.387  17.258  0.1510 -0.1368  0.3037
13851TIP3    H163044   5.509   6.361  17.221  0.6648  1.5097  0.2050
13851TIP3    H263045   5.374   6.418  17.182 -0.6106 -1.2670  0.3425
13852TIP3   OH263046   3.753   6.771   3.237 -0.1163  0.8882 -0.3075
13852TIP3    H163047   3.679   6.796   3.292 -0.3459  1.2338 -0.7711
13852TIP3    H263048   3.790   6.854   3.208  0.1311  0.7080 -0.5079
13853TIP3   OH263049   0.368   5.173   3.877 -0.3854  0.3606  0.7387
13853TIP3    H163050   0.444   5.116   3.889  1.0884  1.9947 -0.2796
13853TIP3    H263051   0.368   5.231   3.953 -0.1801  0.8268  0.3867
13854TIP3   OH263052   3.419   6.232   3.386  0.4500  0.2720  0.3654
13854TIP3    H163053   3.510   6.209   3.368  0.5929  1.9951 -1.4452
13854TIP3    H263054   3.369   6.159   3.350  1.0849 -0.2126  0.4511
13855TIP3   OH263055   1.024   4.417  14.256 -0.2652  0.2484  0.0350
13855TIP3    H163056   0.998   4.330  14.225 -3.3922  1.2002 -0.3792
13855TIP3    H263057   1.105   4.436  14.210 -0.3201 -1.8313 -1.0306
13856TIP3   OH263058   3.142   4.188   0.766 -0.5267 -0.3347  0.2725
13856TIP3    H163059   3.170   4.235   0.845 -1.7677  0.6112  0.1891
13856TIP3    H263060   3.077   4.125   0.797  1.4184 -2.3569  0.4375
13857TIP3   OH263061   4.033   0.966   2.649  0.2218  0.1664 -0.2890
13857TIP3    H163062   4.005   1.034   2.711 -0.8285  0.4615 -1.0704
13857TIP3    H263063   4.021   0.884   2.697 -2.7005  0.2036 -0.7825
13858TIP3   OH263064   5.684   0.550  15.926  0.6866  0.0411  0.5158
13858TIP3    H163065   5.664   0.507  15.842  0.0755  2.4843 -0.6933
13858TIP3    H263066   5.773   0.523  15.947  0.9399 -0.4415 -1.0725
13859TIP3   OH263067   3.149   1.682   5.959  0.4616  0.0858  0.2585
13859TIP3    H163068   3.082   1.725   5.906  0.2450 -1.3910 -0.7460
13859TIP3    H263069   3.151   1.731   6.041 -0.6004  1.2280 -0.3733
13860TIP3   OH263070   2.315   5.603  12.055  0.0843 -0.3442 -0.6462
13860TIP3    H163071   2.348   5.555  11.979  0.1345 -1.8619  0.2952
13860TIP3    H263072   2.392   5.618  12.110 -0.3314 -1.5534  0.3038
13861TIP3   OH263073   2.921   0.259  15.647  0.3227 -0.0598  0.4290
13861TIP3    H163074   2.938   0.219  15.732  2.6510  4.2744  2.3217
13861TIP3    H263075   2.846   0.317  15.661  0.1444  0.0201 -0.7334
13862TIP3   OH263076   3.408   2.646   3.815 -0.2187 -0.0846 -0.6670
13862TIP3    H163077   3.430   2.739   3.821  0.5319 -0.2660 -0.4274
13862TIP3    H263078   3.375   2.635   3.726 -0.9704  0.5406 -0.4744
13863TIP3   OH263079   5.498   4.380  10.529  0.3281  0.0064  0.6305
13863TIP3    H163080   5.540   4.463  10.551  0.1802  0.5706 -1.0582
13863TIP3    H263081   5.568   4.314  10.535  0.8474  0.5289  0.3627
13864TIP3   OH263082   5.121   1.005  12.698  0.5936 -0.2727  0.2817
13864TIP3    H163083   5.084   1.086  12.662  0.5224  1.3816  3.6889
13864TIP3    H263084   5.049   0.965  12.747  1.8814  0.4810  2.9980
13865TIP3   OH263085   0.181   5.243  14.565  0.4059  0.0518 -0.0452
13865TIP3    H163086   0.128   5.179  14.613 -0.9245  0.5751 -0.7901
13865TIP3    H263087   0.198   5.313  14.628 -0.9707  0.5326 -0.1916
13866TIP3   OH263088   4.322   1.765   1.873 -0.2927 -0.0727  0.5035
13866TIP3    H163089   4.250   1.708   1.901 -0.6292  0.6299  1.0905
13866TIP3    H263090   4.400   1.726   1.913 -0.3528 -0.7431 -0.0020
13867TIP3   OH263091   1.657   6.234  11.860 -0.2355 -0.6296  0.5733
13867TIP3    H163092   1.698   6.197  11.782 -0.1815  1.0927 -0.2562
13867TIP3    H263093   1.565   6.246  11.835 -0.4389 -0.9959  1.1295
13868TIP3   OH263094   0.654   3.305   6.418  0.1138  0.7885 -0.6543
13868TIP3    H163095   0.594   3.267   6.481  0.3032  1.8275  0.1756
13868TIP3    H263096   0.614   3.388   6.392  1.7260  2.1311  0.8868
13869TIP3   OH263097   3.313   1.747  15.665  0.0840 -0.3036 -0.0055
13869TIP3    H163098   3.272   1.795  15.736 -0.8970  1.3432 -1.5944
13869TIP3    H263099   3.407   1.748  15.687  0.0572  1.9316  0.3239
13870TIP3   OH263100   3.673   0.443  16.043 -0.3284  0.4140  0.2091
13870TIP3    H163101   3.679   0.537  16.058  1.4823  0.5106 -0.8110
13870TIP3    H263102   3.582   0.428  16.017 -0.4346  2.0059 -0.3992
13871TIP3   OH263103   1.158   0.214   3.725 -0.4049 -0.4461 -0.2780
13871TIP3    H163104   1.245   0.224   3.687  0.1037 -0.2797  0.8844
13871TIP3    H263105   1.166   0.253   3.813 -1.7904  0.0454 -0.3497
13872TIP3   OH263106   5.864   4.963   4.866  0.7481  0.5586 -0.5234
13872TIP3    H163107   5.916   4.975   4.787 -0.4883  0.2121 -1.4272
13872TIP3    H263108   5.790   4.909   4.838  0.9746 -0.7042  1.1857
13873TIP3   OH263109   2.445   5.959   6.020  0.1615 -0.3882  0.1826
13873TIP3    H163110   2.528   5.990   5.985  0.5337 -0.1671  1.2369
13873TIP3    H263111   2.450   5.864   6.012  0.4750 -0.3710  0.1659
13874TIP3   OH263112   4.433   1.637   3.973 -0.0777 -0.2625  0.2299
13874TIP3    H163113   4.473   1.679   3.897 -1.1874 -1.9881 -1.3906
13874TIP3    H263114   4.339   1.655   3.963 -0.6838 -3.4666 -0.8684
13875TIP3   OH263115   2.127   5.026  14.944  0.2521 -0.2791 -0.3397
13875TIP3    H163116   2.036   5.048  14.961  0.4215 -0.8218  1.4983
13875TIP3    H263117   2.168   5.110  14.922 -0.1812  0.4262  1.4017
13876TIP3   OH263118   0.085   2.450   3.538 -0.3286  1.0378  0.7880
13876TIP3    H163119   0.068   2.507   3.463  0.1692  0.9591  0.6143
13876TIP3    H263120   0.010   2.390   3.540  1.0354 -0.9679 -1.5159
13877TIP3   OH263121   5.950   5.155   1.135  0.2840 -0.5605  0.3482
13877TIP3    H163122   5.890   5.103   1.187  0.2994 -0.4668  0.4590
13877TIP3    H263123   5.900   5.233   1.110  0.9577  0.4933  2.1167
13878TIP3   OH263124   6.761   5.669  11.024  0.7604 -0.3650 -0.5566
13878TIP3    H163125   6.676   5.645  11.060  0.1390 -0.7135 -2.1490
13878TIP3    H263126   6.754   5.648  10.931  2.6923 -0.6593 -0.6724
13879TIP3   OH263127   5.196   5.978  12.636 -0.0720 -0.0579  0.2835
13879TIP3    H163128   5.228   6.000  12.723  2.0817  1.2878 -0.7423
13879TIP3    H263129   5.136   6.049  12.614 -0.4495 -0.2828  0.5819
13880TIP3   OH263130   4.835   3.313  14.337  0.2472 -0.1678 -0.5350
13880TIP3    H163131   4.780   3.278  14.267 -0.1451 -0.1675 -0.2302
13880TIP3    H263132   4.924   3.306  14.303  0.0065  0.5239 -1.3358
13881TIP3   OH263133   0.758   5.128  12.591 -0.1072 -0.1029 -0.3327
13881TIP3    H163134   0.687   5.187  12.564 -0.7938  0.0059  1.5453
13881TIP3    H263135   0.714   5.047  12.615  0.8136 -1.3872 -2.6498
13882TIP3   OH263136   6.094   3.307   0.861 -0.2907  0.6258 -0.2611
13882TIP3    H163137   6.035   3.233   0.871 -0.2551  0.1859 -2.6592
13882TIP3    H263138   6.036   3.383   0.852 -0.5382  0.3072 -1.7366
13883TIP3   OH263139   2.708   2.539  16.616  0.2492  0.6212  0.6318
13883TIP3    H163140   2.633   2.516  16.562  0.3120  0.4250  0.6285
13883TIP3    H263141   2.740   2.455  16.650 -0.0970  0.7882  1.3888
13884TIP3   OH263142   3.912   0.699   5.844  1.2611  0.1227 -0.4908
13884TIP3    H163143   3.944   0.789   5.856  2.3341 -0.3277  0.1033
13884TIP3    H263144   3.850   0.706   5.771 -0.3219  1.7395  0.8828
13885TIP3   OH263145   1.640   3.538  14.148  0.0531 -0.2545 -0.4580
13885TIP3    H163146   1.598   3.560  14.231  1.3644 -1.1169  0.4697
13885TIP3    H263147   1.589   3.586  14.082  0.1225  1.9863  1.0042
13886TIP3   OH263148   0.289   2.035   1.399 -0.1178  0.9251  0.2744
13886TIP3    H163149   0.269   2.016   1.307  0.9106  0.8145  0.0574
13886TIP3    H263150   0.258   1.957   1.446  0.0154  0.6557 -0.0733
13887TIP3   OH263151   6.391   1.622   1.246 -0.1694  0.0000  0.4856
13887TIP3    H163152   6.301   1.643   1.219 -0.2119 -0.5710  0.1737
13887TIP3    H263153   6.380   1.567   1.324 -0.0871 -0.0404  0.4682
13888TIP3   OH263154   4.497   2.122  12.766  0.0686  0.5874 -0.8030
13888TIP3    H163155   4.458   2.134  12.679 -0.2080  0.6355 -0.6754
13888TIP3    H263156   4.503   2.027  12.776  2.1340  0.5591 -1.7587
13889TIP3   OH263157   0.220   4.314   4.877 -0.1759 -0.3996 -1.1930
13889TIP3    H163158   0.215   4.301   4.972 -0.4801  0.5601 -1.0642
13889TIP3    H263159   0.294   4.374   4.865 -1.7690  1.6718 -1.2894
13890TIP3   OH263160   6.510   3.211   4.332  0.2825  0.3313 -0.0755
13890TIP3    H163161   6.588   3.156   4.319 -0.5569 -1.0875  0.6825
13890TIP3    H263162   6.495   3.251   4.247  1.6508  0.3917 -0.3186
13891TIP3   OH263163   0.820   0.168   2.795  0.6558  0.1403 -0.4201
13891TIP3    H163164   0.871   0.245   2.771  1.1558 -0.1760 -0.3953
13891TIP3    H263165   0.801   0.124   2.712  0.3712  0.2841 -0.4343
13892TIP3   OH263166   2.082   0.705   2.847  0.0488 -0.3640  0.4529
13892TIP3    H163167   2.115   0.725   2.934 -0.3001  0.5479  0.3911
13892TIP3    H263168   2.151   0.653   2.805  0.1121 -1.0154  1.3484
13893TIP3   OH263169   4.145   2.928  12.713 -0.1280  0.2728  0.1909
13893TIP3    H163170   4.161   2.981  12.791  1.3015  0.0967  0.0559
13893TIP3    H263171   4.169   2.984  12.639  1.3682 -0.4993  0.0443
13894TIP3   OH263172   1.894   2.938  16.744  0.2876 -0.0772 -0.4222
13894TIP3    H163173   1.983   2.922  16.775 -1.0092 -0.3685  3.6305
13894TIP3    H263174   1.890   3.032  16.731  0.8610  0.0845  0.5060
13895TIP3   OH263175   5.982   2.993   4.386  0.3804 -0.0911 -0.3948
13895TIP3    H163176   5.969   2.953   4.472  0.5219 -0.5398 -0.5740
13895TIP3    H263177   6.008   3.083   4.404  0.7216 -0.2743  0.0403
13896TIP3   OH263178   2.356   5.261   6.260 -0.1093  0.0846  0.1748
13896TIP3    H163179   2.451   5.273   6.258  0.2116 -2.1454 -1.7213
13896TIP3    H263180   2.337   5.237   6.351  1.3255 -0.6180  0.3189
13897TIP3   OH263181   0.997   3.407  11.522 -0.1490 -0.1666 -0.0755
13897TIP3    H163182   0.950   3.489  11.538  1.9436  1.2347 -0.6660
13897TIP3    H263183   1.047   3.392  11.602  0.4698 -0.1420 -0.4495
13898TIP3   OH263184   0.080   6.166   2.092 -0.1201  0.3297 -0.1457
13898TIP3    H163185   0.057   6.223   2.019  1.0378 -0.2100 -0.9694
13898TIP3    H263186   0.143   6.217   2.144  0.6581 -0.0412 -0.6982
13899TIP3   OH263187   6.568   3.409  17.185 -0.2006 -0.3696 -0.4518
13899TIP3    H163188   6.527   3.494  17.166 -1.3529 -0.8588 -0.2543
13899TIP3    H263189   6.582   3.410  17.280  0.8140  0.0255 -0.5903
13900TIP3   OH263190   5.858   1.458   3.249 -0.6192 -0.0737  0.0809
13900TIP3    H163191   5.777   1.414   3.227  0.8618 -3.0629  0.1029
13900TIP3    H263192   5.918   1.436   3.178  0.7446  0.2839  1.0615
13901TIP3   OH263193   3.039   5.517   2.121  0.3320  0.3352 -0.1460
13901TIP3    H163194   3.049   5.523   2.026  0.0876  0.2687 -0.1775
13901TIP3    H263195   3.000   5.601   2.146 -0.3634  0.0411 -0.2115
13902TIP3   OH263196   4.421   0.021   2.599 -0.2501  0.2622 -0.3386
13902TIP3    H163197   4.414  -0.065   2.557 -1.6520  0.1067  0.1893
13902TIP3    H263198   4.391   0.083   2.532 -0.6026  0.2012 -0.2383
13903TIP3   OH263199   2.347   5.080   0.009  0.3188 -0.1298 -0.2233
13903TIP3    H163200   2.418   5.097   0.071  0.6764 -0.7503 -0.4458
13903TIP3    H263201   2.284   5.150   0.023  0.8307  0.2457  0.2051
13904TIP3   OH263202   1.931   4.066  13.202  0.0738  0.0058  0.1622
13904TIP3    H163203   1.851   4.025  13.168 -0.1688  1.2005 -0.7675
13904TIP3    H263204   2.002   4.027  13.151  0.1765 -1.4665  1.3650
13905TIP3   OH263205   3.767   1.044   5.759  0.3654 -0.1293 -0.0198
13905TIP3    H163206   3.760   1.070   5.667  0.4144  2.0859  0.5588
13905TIP3    H263207   3.855   1.070   5.785  0.2197 -0.3962  0.7551
13906TIP3   OH263208   0.617   1.224   3.111 -0.2744  0.4413 -0.1823
13906TIP3    H163209   0.607   1.236   3.017  1.2832  0.4329 -0.3767
13906TIP3    H263210   0.595   1.309   3.149 -0.6508  0.5212 -0.5775
13907TIP3   OH263211   3.777   6.153   4.302 -0.0015  0.0559  0.0991
13907TIP3    H163212   3.754   6.149   4.395  0.9313 -0.2606  0.3192
13907TIP3    H263213   3.866   6.119   4.297 -0.0676 -0.0028 -0.9263
13908TIP3   OH263214   6.096   6.229  16.108 -0.3821  0.3944  0.1017
13908TIP3    H163215   6.188   6.210  16.124 -0.3937  0.5211  0.3145
13908TIP3    H263216   6.050   6.197  16.186 -0.6806 -0.9248 -0.5876
13909TIP3   OH263217   3.654   2.996  12.912 -0.2692  0.1657  0.0080
13909TIP3    H163218   3.709   2.942  12.855 -0.5830 -0.9693  0.7492
13909TIP3    H263219   3.565   2.961  12.900 -0.4803  0.5177  0.5033
13910TIP3   OH263220   2.264   1.390  10.208  0.4116  0.3702  0.0292
13910TIP3    H163221   2.336   1.451  10.191  0.5875  0.1155 -0.1488
13910TIP3    H263222   2.195   1.445  10.244  1.0169  0.4772  1.0830
13911TIP3   OH263223   0.514   4.945   1.061 -0.9017 -0.7564  0.0691
13911TIP3    H163224   0.459   5.022   1.076 -1.1520 -0.9129 -0.0436
13911TIP3    H263225   0.547   4.922   1.148 -1.6153 -1.1124  0.2513
13912TIP3   OH263226   4.397   5.165   1.799 -0.3092 -0.1813  0.2450
13912TIP3    H163227   4.457   5.168   1.874  0.0255 -0.9611  0.0228
13912TIP3    H263228   4.384   5.071   1.783 -0.8409 -0.0194 -0.3069
13913TIP3   OH263229   5.157   4.172  16.391 -0.1389 -0.1416 -0.8084
13913TIP3    H163230   5.193   4.245  16.341  1.2141 -0.8497 -0.9005
13913TIP3    H263231   5.082   4.210  16.438  0.2087  1.1618 -1.2685
13914TIP3   OH263232   2.676   1.232  16.112 -0.3352 -0.1658  0.0918
13914TIP3    H163233   2.640   1.318  16.131 -0.7355 -0.0346 -1.1413
13914TIP3    H263234   2.740   1.248  16.042  0.7086 -0.6649  0.9143
13915TIP3   OH263235   3.984   1.901   6.081 -0.0913 -0.2733 -0.0131
13915TIP3    H163236   3.909   1.959   6.067 -0.1824 -0.3871 -0.0001
13915TIP3    H263237   4.012   1.876   5.993 -1.5589 -2.1382 -0.0237
13916TIP3   OH263238   5.847   6.783   4.503  0.1343 -0.3253  0.1077
13916TIP3    H163239   5.813   6.872   4.493  1.8055  0.1615 -1.7203
13916TIP3    H263240   5.923   6.793   4.560 -0.5161 -0.8458  1.1050
13917TIP3   OH263241   3.779   3.807   4.567 -0.0581  0.0792  0.3998
13917TIP3    H163242   3.707   3.856   4.526  1.0588  1.5788  0.1696
13917TIP3    H263243   3.737   3.760   4.640 -1.0839  1.9378  1.0802
13918TIP3   OH263244   6.366   6.203   0.778  0.2105 -0.4957 -0.1826
13918TIP3    H163245   6.359   6.260   0.701  0.5227  0.5860  0.5564
13918TIP3    H263246   6.460   6.183   0.783  0.2073 -0.4669 -0.0208
13919TIP3   OH263247   5.134   5.551   1.734  0.3458 -0.4193 -0.0346
13919TIP3    H163248   5.202   5.540   1.667 -0.0994 -0.8103 -0.4361
13919TIP3    H263249   5.138   5.644   1.757  0.7657 -0.3592 -0.3279
13920TIP3   OH263250   2.889   3.146  16.883 -0.2142 -0.3637  0.0611
13920TIP3    H163251   2.921   3.212  16.944 -1.2586 -0.6562  0.9703
13920TIP3    H263252   2.816   3.104  16.930 -1.1352 -0.5199 -1.4399
13921TIP3   OH263253   0.407   5.856   2.398 -0.4310 -0.3528 -0.2987
13921TIP3    H163254   0.421   5.942   2.437 -1.1893 -0.7131  0.8494
13921TIP3    H263255   0.495   5.820   2.385 -0.1052 -0.5735  2.0129
13922TIP3   OH263256   3.221   3.026   6.121  0.0645  0.1282  0.1547
13922TIP3    H163257   3.137   3.061   6.091  0.6824  0.7485 -0.9347
13922TIP3    H263258   3.198   2.951   6.176 -1.1977  0.2039 -0.2387
13923TIP3   OH263259   4.149   4.345   1.587 -0.2416 -0.4580 -0.1805
13923TIP3    H163260   4.146   4.305   1.673 -0.4395  2.6588  1.4252
13923TIP3    H263261   4.063   4.388   1.578  0.7884  1.6920 -0.5412
13924TIP3   OH263262   5.408   0.921  15.438  0.7146 -0.0865  0.0628
13924TIP3    H163263   5.407   0.968  15.354 -0.4309  1.4447  0.8949
13924TIP3    H263264   5.319   0.886  15.446  0.2863  1.2059  1.3764
13925TIP3   OH263265   2.840   3.925  14.097 -0.0847 -0.2914 -0.5086
13925TIP3    H163266   2.859   3.833  14.115  1.3527 -0.0277 -0.6014
13925TIP3    H263267   2.860   3.971  14.179 -1.8054 -0.1630 -0.1161
13926TIP3   OH263268   3.131   4.641  16.821 -0.1540  0.1920 -0.7424
13926TIP3    H163269   3.133   4.574  16.889  0.9973 -0.6016 -1.5258
13926TIP3    H263270   3.037   4.657  16.806 -0.4371  0.2511  0.8649
13927TIP3   OH263271   6.492   3.936  14.627  0.1102  0.3769 -0.0093
13927TIP3    H163272   6.434   3.938  14.703  1.5240 -0.2322  1.1397
13927TIP3    H263273   6.534   4.022  14.627  1.5928 -0.3126  1.1415
13928TIP3   OH263274   3.694   6.725  14.786  0.3832  0.2139  0.8824
13928TIP3    H163275   3.789   6.713  14.787  0.6243  1.9013  0.6324
13928TIP3    H263276   3.661   6.655  14.729  1.6698  0.7313 -0.5626
13929TIP3   OH263277   4.779   4.162   2.849  0.2311  0.1205 -0.0652
13929TIP3    H163278   4.740   4.126   2.929 -0.1255 -0.0149 -0.2980
13929TIP3    H263279   4.866   4.193   2.877 -0.1900  0.7952  0.5443
13930TIP3   OH263280   2.956   2.719  13.924  0.2338  0.1552  0.6249
13930TIP3    H163281   2.891   2.721  13.854  1.4236 -1.8882 -0.6399
13930TIP3    H263282   2.904   2.719  14.005 -1.3006 -0.6168 -0.3126
13931TIP3   OH263283   1.058   2.762   3.903  0.4340 -0.1040 -0.4407
13931TIP3    H163284   0.979   2.712   3.924 -1.7487  2.2696 -2.3082
13931TIP3    H263285   1.067   2.823   3.976 -1.1881  1.4357 -1.4402
13932TIP3   OH263286   3.285   3.291  13.687 -0.3641  0.0034 -0.3178
13932TIP3    H163287   3.214   3.338  13.643 -0.8519  0.2666  0.7166
13932TIP3    H263288   3.266   3.300  13.780 -0.2938 -1.9931 -0.0701
13933TIP3   OH263289   2.082   0.225   5.641  1.0744 -0.3157 -0.1973
13933TIP3    H163290   2.033   0.281   5.701 -0.9405 -2.1156 -0.0629
13933TIP3    H263291   2.134   0.286   5.588  0.5149  1.5119  1.2494
13934TIP3   OH263292   1.992   3.630  15.497  0.9247 -0.1582  0.6036
13934TIP3    H163293   1.968   3.669  15.413 -0.7436  1.1977  1.6379
13934TIP3    H263294   2.064   3.684  15.529  0.7075  0.1299  0.6114
13935TIP3   OH263295   0.710   3.226   3.284  0.2356  0.0900 -0.2108
13935TIP3    H163296   0.666   3.190   3.207  0.6088 -0.5052 -0.1518
13935TIP3    H263297   0.759   3.301   3.250  0.4036 -0.1726 -0.5554
13936TIP3   OH263298   3.940   3.257  17.014  0.0560  0.1584 -0.6829
13936TIP3    H163299   3.949   3.297  17.101  0.5593 -0.6595 -0.3496
13936TIP3    H263300   3.884   3.181  17.028  0.7563 -0.4121 -0.9244
13937TIP3   OH263301   5.310   6.301  12.696  0.2045  0.0282  0.1079
13937TIP3    H163302   5.288   6.367  12.762 -2.2465  0.6851 -1.2164
13937TIP3    H263303   5.260   6.328  12.619  2.5217 -1.0164 -1.8550
13938TIP3   OH263304   3.575   4.833   5.391  0.3163  0.2807  0.9245
13938TIP3    H163305   3.634   4.792   5.455  0.1108  0.7021  1.3919
13938TIP3    H263306   3.528   4.760   5.352  1.3710 -0.0955  0.3099
13939TIP3   OH263307   2.072   6.216  15.083  0.0817  0.6874  0.1436
13939TIP3    H163308   2.025   6.150  15.133 -1.8973  0.7068 -1.5678
13939TIP3    H263309   2.109   6.167  15.009  0.3207  1.1747 -0.0636
13940TIP3   OH263310   5.532   1.322   2.391  0.4931 -0.2237 -0.2531
13940TIP3    H163311   5.445   1.361   2.403  0.0731 -0.6115 -1.8058
13940TIP3    H263312   5.592   1.397   2.391 -0.0990  0.2745 -1.3732
13941TIP3   OH263313   5.228   4.702   3.796 -0.0647  0.5189 -0.0797
13941TIP3    H163314   5.190   4.631   3.849  1.0992 -1.1986 -1.4106
13941TIP3    H263315   5.320   4.678   3.786 -0.0640  1.1499 -2.2248
13942TIP3   OH263316   5.992   4.282  17.177 -0.1617  0.4315 -0.1290
13942TIP3    H163317   6.056   4.337  17.132 -0.9212  2.0312  0.6808
13942TIP3    H263318   5.910   4.296  17.129 -0.6722  1.1021  0.9162
13943TIP3   OH263319   0.935   5.293  13.305 -0.8093  0.0265 -0.2221
13943TIP3    H163320   0.906   5.369  13.354 -0.0417 -0.7574  1.5304
13943TIP3    H263321   0.944   5.324  13.215  2.2560  2.7967  0.8663
13944TIP3   OH263322   1.284   1.706  10.593  0.2082 -0.3394 -0.3444
13944TIP3    H163323   1.315   1.716  10.503  0.2603  1.8875 -0.1459
13944TIP3    H263324   1.230   1.784  10.608  2.6615  1.0187  2.4767
13945TIP3   OH263325   5.572   4.636  14.342  0.3808 -0.1411  0.3257
13945TIP3    H163326   5.608   4.590  14.267  2.6874  0.9616  0.6579
13945TIP3    H263327   5.541   4.720  14.307  0.6676  0.0178  0.4410
13946TIP3   OH263328   4.884   3.706  15.485  0.0500 -0.0161  0.3132
13946TIP3    H163329   4.839   3.627  15.454 -0.1265 -0.5954  1.9376
13946TIP3    H263330   4.814   3.767  15.507  0.1898  1.4188 -2.7390
13947TIP3   OH263331   0.429   1.910  14.894  0.0349  0.1173  0.0260
13947TIP3    H163332   0.367   1.981  14.874  0.5198  0.2352 -1.0994
13947TIP3    H263333   0.375   1.843  14.936 -0.5669  0.8490  0.4532
13948TIP3   OH263334   2.291   6.728   0.702 -0.0150  0.6502 -0.2801
13948TIP3    H163335   2.214   6.760   0.750  1.4160  3.2648  0.4933
13948TIP3    H263336   2.360   6.721   0.768  1.1070  0.9679 -1.3706
13949TIP3   OH263337   5.192   0.397  16.845  0.0257  0.4706 -0.1790
13949TIP3    H163338   5.178   0.373  16.937  2.5510  0.4485  0.2749
13949TIP3    H263339   5.252   0.330  16.812 -0.2751  0.8965 -1.6470
13950TIP3   OH263340   3.332   5.547  13.910  0.8964  0.3016  0.3886
13950TIP3    H163341   3.366   5.555  13.821 -0.5653  0.0144 -0.2233
13950TIP3    H263342   3.366   5.463  13.941  0.4277 -0.1840 -0.3670
13951TIP3   OH263343   3.121   5.733   2.410 -0.3023  0.2231 -0.3070
13951TIP3    H163344   3.190   5.754   2.473  0.1560  1.9552 -1.3115
13951TIP3    H263345   3.046   5.785   2.438  0.2675  1.9355 -1.7894
13952TIP3   OH263346   0.540   3.532   4.410 -0.3664 -0.4091 -0.8066
13952TIP3    H163347   0.602   3.500   4.343 -0.2341 -1.6345 -0.1325
13952TIP3    H263348   0.593   3.543   4.488 -0.7514 -0.1858 -0.5764
13953TIP3   OH263349   2.071   3.730   1.426 -0.0421  0.1339  0.4174
13953TIP3    H163350   2.029   3.817   1.426 -0.3754 -0.0255  0.9315
13953TIP3    H263351   2.026   3.682   1.357 -0.2706  0.1744  0.5374
13954TIP3   OH263352   3.870   0.691   2.806  0.0128  0.0415 -0.5004
13954TIP3    H163353   3.952   0.725   2.844  0.0821  0.5510 -1.0812
13954TIP3    H263354   3.894   0.606   2.770  0.0121 -0.3199  0.3414
13955TIP3   OH263355   5.391   4.156  15.963  0.0166 -0.1331  0.6380
13955TIP3    H163356   5.481   4.155  15.930 -0.1850 -0.8273  0.1040
13955TIP3    H263357   5.354   4.237  15.930 -0.1201 -0.7171 -0.6996
13956TIP3   OH263358   0.576   5.445   2.417 -0.4613  0.0265 -0.1870
13956TIP3    H163359   0.490   5.407   2.403  0.6264 -2.4406 -0.6481
13956TIP3    H263360   0.599   5.422   2.507 -0.7436  1.7695  0.3773
13957TIP3   OH263361   1.601   5.254   0.624  0.0175  0.0921 -0.7313
13957TIP3    H163362   1.556   5.295   0.550  1.7603  1.6681 -0.9930
13957TIP3    H263363   1.547   5.275   0.699 -1.3817 -0.8859 -1.4104
13958TIP3   OH263364   5.717   3.888  11.143  0.3614 -0.0247  0.4436
13958TIP3    H163365   5.702   3.802  11.182 -0.1951 -0.5093 -0.7766
13958TIP3    H263366   5.714   3.949  11.217  1.4471 -1.1013  1.4197
13959TIP3   OH263367   2.622   2.477  14.289  0.1539  0.0899  0.0391
13959TIP3    H163368   2.704   2.501  14.332  1.6470 -2.3746 -1.1580
13959TIP3    H263369   2.577   2.422  14.353  0.2707  0.0385  0.0785
13960TIP3   OH263370   1.327   3.020  15.178 -0.2683  0.4616 -0.0484
13960TIP3    H163371   1.400   3.000  15.119  0.2958  1.0234  0.4386
13960TIP3    H263372   1.327   3.116  15.184 -0.0738  0.4097  1.1347
13961TIP3   OH263373   0.388   3.940   4.967  0.3089 -0.4132  0.2465
13961TIP3    H163374   0.453   3.981   4.910 -0.5194 -1.6831 -1.7066
13961TIP3    H263375   0.424   3.854   4.987  0.3603 -0.1693  1.2950
13962TIP3   OH263376   6.199   1.351  13.459 -0.0629  0.4272 -0.1895
13962TIP3    H163377   6.143   1.315  13.528 -1.0715 -0.3238 -1.3446
13962TIP3    H263378   6.281   1.374  13.504 -0.7749  0.2100  1.2865
13963TIP3   OH263379   6.375   6.417   0.541  0.2572  0.5518 -0.2504
13963TIP3    H163380   6.449   6.459   0.587  0.3972  0.6017 -0.5189
13963TIP3    H263381   6.333   6.489   0.493 -0.4473  0.6756  0.5237
13964TIP3   OH263382   4.494   0.738  12.991  0.1046 -1.2246 -0.2977
13964TIP3    H163383   4.459   0.756  13.078  0.2619 -2.6621  0.0918
13964TIP3    H263384   4.417   0.723  12.936  0.0314 -1.4184 -0.1421
13965TIP3   OH263385   6.555   1.638  12.307 -0.1785  0.4761 -0.0871
13965TIP3    H163386   6.566   1.733  12.316  0.4923  0.4033 -0.0270
13965TIP3    H263387   6.618   1.601  12.369  0.4544 -0.0123 -0.9973
13966TIP3   OH263388   6.457   4.800  15.619 -0.4343  0.5963 -0.4955
13966TIP3    H163389   6.413   4.861  15.679 -1.3248  1.4987 -2.0218
13966TIP3    H263390   6.538   4.777  15.664 -0.1317  2.7975  0.1749
13967TIP3   OH263391   4.186   1.145  15.128  0.4427 -0.2363 -0.1114
13967TIP3    H163392   4.206   1.133  15.221  0.8148 -2.7032 -0.4312
13967TIP3    H263393   4.091   1.152  15.124  0.5190  2.0484  0.5833
13968TIP3   OH263394   0.207   0.639  13.849 -0.0551  0.4281  0.1137
13968TIP3    H163395   0.195   0.657  13.942  2.9759  1.1282  0.4841
13968TIP3    H263396   0.185   0.721  13.805 -2.3274 -0.1496  0.0295
13969TIP3   OH263397   2.014   4.652   5.833 -0.2493  0.1596  0.2961
13969TIP3    H163398   2.035   4.652   5.927 -0.2306 -0.8232  0.3085
13969TIP3    H263399   2.086   4.702   5.793  0.5349 -0.6290  0.6663
13970TIP3   OH263400   4.664   6.334   0.216  0.5292  0.2616  0.1479
13970TIP3    H163401   4.706   6.404   0.166 -0.5774  0.1047 -1.0517
13970TIP3    H263402   4.616   6.379   0.285  2.5595  0.4436  1.5182
13971TIP3   OH263403   3.655   2.974  11.364  0.0478  0.0321 -0.1677
13971TIP3    H163404   3.688   3.019  11.287 -0.2907  2.5170  1.0515
13971TIP3    H263405   3.565   3.005  11.375  0.0731 -0.2848  1.1966
13972TIP3   OH263406   4.087   2.300   0.777 -0.5280  0.2215  0.2351
13972TIP3    H163407   4.131   2.381   0.802 -0.2260  0.5626 -1.2960
13972TIP3    H263408   4.125   2.234   0.835  0.9454  0.7786 -0.0514
13973TIP3   OH263409   5.705   0.765   0.460  0.0696 -0.3864 -0.2707
13973TIP3    H163410   5.628   0.743   0.513  0.9577  0.0253  1.2537
13973TIP3    H263411   5.745   0.680   0.440 -0.4344 -0.5639 -0.5283
13974TIP3   OH263412   3.834   1.228   0.081  0.4874 -0.3634  0.2050
13974TIP3    H163413   3.863   1.143   0.049  0.7415 -1.9638  4.1244
13974TIP3    H263414   3.749   1.211   0.121  0.6648  1.1682  1.3295
13975TIP3   OH263415   5.492   1.842  11.280 -0.4549  0.2471 -0.0284
13975TIP3    H163416   5.566   1.898  11.254  1.0569 -0.8281  1.6496
13975TIP3    H263417   5.532   1.757  11.299 -1.9617 -0.1389  1.7522
13976TIP3   OH263418   4.195   1.879  16.082  0.1470 -0.2809 -0.3568
13976TIP3    H163419   4.178   1.971  16.101  0.8891 -0.3748  0.9143
13976TIP3    H263420   4.115   1.848  16.041 -0.1316  0.9140 -0.7585
13977TIP3   OH263421   4.680   1.886   2.100 -0.1528 -0.1009  0.1377
13977TIP3    H163422   4.673   1.960   2.040 -1.5862 -0.7463 -0.5683
13977TIP3    H263423   4.615   1.905   2.168  0.9934  0.3023  1.1399
13978TIP3   OH263424   6.129   5.701   3.924  0.3953 -0.1391 -0.0913
13978TIP3    H163425   6.159   5.774   3.871 -0.6075 -0.1881 -0.7560
13978TIP3    H263426   6.199   5.686   3.987  0.7794  1.1355 -0.1979
13979TIP3   OH263427   1.578   4.350  15.333  0.1337  0.0387  0.0035
13979TIP3    H163428   1.647   4.401  15.377 -0.1739 -1.8708  3.0499
13979TIP3    H263429   1.499   4.403  15.344  0.2726  0.0862  0.8771
13980TIP3   OH263430   3.275   0.281  17.016 -0.2749  0.0988 -0.0262
13980TIP3    H163431   3.295   0.258  17.106 -2.8864 -0.2698  0.5228
13980TIP3    H263432   3.237   0.368  17.020  2.3204  1.4213 -1.2082
13981TIP3   OH263433   2.213   3.966   3.037 -0.2243 -0.2991  0.2621
13981TIP3    H163434   2.207   3.937   3.128 -1.5723 -0.6019  0.0898
13981TIP3    H263435   2.229   4.060   3.044 -0.2224 -0.3341  0.8134
13982TIP3   OH263436   6.241   5.412  11.539 -0.2567 -0.1179  0.2250
13982TIP3    H163437   6.189   5.420  11.619  0.5134 -1.9940  0.9802
13982TIP3    H263438   6.320   5.463  11.557 -0.1749 -0.3684  0.5915
13983TIP3   OH263439   6.341   4.684  10.691  0.2562  0.3659  0.2956
13983TIP3    H163440   6.336   4.610  10.631 -0.0214  1.5124 -1.1709
13983TIP3    H263441   6.348   4.645  10.778  2.2960 -1.4000 -0.5640
13984TIP3   OH263442   6.293   0.393   3.795 -0.0741  0.4075  0.1622
13984TIP3    H163443   6.245   0.314   3.819  1.1973  0.3312  2.8523
13984TIP3    H263444   6.324   0.377   3.706  0.9440 -2.5664  0.9548
13985TIP3   OH263445   0.490   6.129   0.992  0.7933  0.6303 -0.0287
13985TIP3    H163446   0.519   6.154   0.905  0.1457  2.4630  0.2460
13985TIP3    H263447   0.568   6.135   1.047  0.7716  1.5491 -0.0855
13986TIP3   OH263448   0.831   4.143   2.952  0.3616  0.1532 -0.1484
13986TIP3    H163449   0.919   4.108   2.935 -0.0611 -0.1664 -1.8636
13986TIP3    H263450   0.832   4.231   2.915  0.0166  0.2242  0.0081
13987TIP3   OH263451   1.839   4.623   1.908  0.3850 -0.3747 -0.2274
13987TIP3    H163452   1.777   4.676   1.958 -0.0428  0.1613 -1.2981
13987TIP3    H263453   1.879   4.684   1.847  0.9255 -1.0135 -0.5300
13988TIP3   OH263454   6.075   5.554   1.995 -0.0072  0.2135 -0.6370
13988TIP3    H163455   6.115   5.505   2.066  0.9796  0.9488 -0.6553
13988TIP3    H263456   6.010   5.609   2.038  0.5180  0.5860 -0.3010
13989TIP3   OH263457   1.877   3.750   5.694  0.1440  0.7521 -0.5192
13989TIP3    H163458   1.869   3.703   5.610 -0.5873  0.5256 -0.3364
13989TIP3    H263459   1.885   3.680   5.759 -0.5854  0.8767 -0.2826
13990TIP3   OH263460   2.124   6.057   3.304  0.1898 -0.6992  0.0957
13990TIP3    H163461   2.179   6.093   3.373 -1.0826 -0.9999  1.3164
13990TIP3    H263462   2.129   5.962   3.316  0.4491 -0.7811 -0.6239
13991TIP3   OH263463   1.808   0.393   1.882  0.5104 -0.4364  0.2328
13991TIP3    H163464   1.715   0.391   1.859  0.2537  0.3747  1.1466
13991TIP3    H263465   1.850   0.439   1.810  0.1391 -0.4320  0.0194
13992TIP3   OH263466   3.660   3.332   4.924 -0.1917  1.0476 -0.0811
13992TIP3    H163467   3.706   3.275   4.862 -1.6996  0.3930 -0.6452
13992TIP3    H263468   3.730   3.373   4.975  1.0135  0.2134 -0.9960
13993TIP3   OH263469   2.991   5.383  14.738  0.1061  0.0110 -0.0118
13993TIP3    H163470   3.060   5.337  14.787  0.9332  1.8359  0.6315
13993TIP3    H263471   2.911   5.367  14.787  0.5710  0.1073  0.7940
13994TIP3   OH263472   4.529   6.790   5.561  0.3285 -0.0499  0.0147
13994TIP3    H163473   4.501   6.859   5.501  0.1803 -0.3968 -0.3195
13994TIP3    H263474   4.609   6.824   5.601 -0.3593  0.7996  0.7077
13995TIP3   OH263475   0.989   5.418  12.113 -0.0707  0.0586 -0.7570
13995TIP3    H163476   1.021   5.383  12.196 -0.5047 -0.0102 -0.6130
13995TIP3    H263477   1.062   5.470  12.079 -0.2356  0.9539  0.1843
13996TIP3   OH263478   1.465   4.875   3.557 -0.5802 -0.4160  0.2121
13996TIP3    H163479   1.432   4.896   3.470  0.5215 -0.1411 -0.1652
13996TIP3    H263480   1.479   4.960   3.599  0.3609 -0.4803  0.0637
13997TIP3   OH263481   0.657   2.001  11.204  0.1974 -0.4364 -0.2245
13997TIP3    H163482   0.687   1.929  11.149  0.2854 -1.9339  1.6798
13997TIP3    H263483   0.724   2.009  11.272 -0.7430  0.1800  0.6655
13998TIP3   OH263484   1.198   0.047   1.937  0.0073  0.3062 -0.4555
13998TIP3    H163485   1.158   0.098   2.008 -0.0213  1.6298 -1.3754
13998TIP3    H263486   1.262  -0.009   1.980  1.2893  2.3811  0.4789
13999TIP3   OH263487   2.009   6.128  14.672  0.0024 -0.0486  0.7741
13999TIP3    H163488   2.022   6.175  14.755  2.4098 -2.0197  1.6152
13999TIP3    H263489   1.978   6.042  14.698 -1.1273 -0.0847 -0.5573
14000TIP3   OH263490   5.419   6.281   4.012 -0.0543 -0.2626 -0.0194
14000TIP3    H163491   5.511   6.305   4.024 -0.1867 -0.1333  0.7477
14000TIP3    H263492   5.380   6.290   4.099 -0.5152 -1.5026 -0.0832
14001TIP3   OH263493   3.541   1.249   2.604  0.2878  0.0357 -0.4600
14001TIP3    H163494   3.573   1.167   2.641 -0.1426 -0.5332 -1.3129
14001TIP3    H263495   3.451   1.229   2.576 -0.6043  1.3929  1.2460
14002TIP3   OH263496   2.451   5.415   2.396 -0.4602 -0.0373  0.2206
14002TIP3    H163497   2.483   5.326   2.381  0.3322  0.2397  0.2015
14002TIP3    H263498   2.513   5.453   2.459 -0.7808  0.5082  0.2216
14003TIP3   OH263499   1.565   3.594   4.556  0.6413  0.2323 -0.6648
14003TIP3    H163500   1.660   3.591   4.569  0.5732 -1.2950 -0.3018
14003TIP3    H263501   1.533   3.512   4.593 -1.1341  1.7564  1.5034
14004TIP3   OH263502   3.691   4.123  13.140 -0.1312 -0.2903  0.3912
14004TIP3    H163503   3.727   4.195  13.191  1.5107 -0.2989 -0.6636
14004TIP3    H263504   3.767   4.067  13.121 -1.0872 -1.4438 -0.1758
14005TIP3   OH263505   2.798   6.420   2.393 -0.6735  0.0787 -0.0330
14005TIP3    H163506   2.714   6.440   2.434 -1.0871  0.1047 -0.8558
14005TIP3    H263507   2.781   6.430   2.299  0.0124 -0.8100 -0.2652
14006TIP3   OH263508   2.874   5.664   4.501 -0.4656 -0.1981  0.2279
14006TIP3    H163509   2.839   5.730   4.561  0.3316 -0.6338  1.1984
14006TIP3    H263510   2.808   5.594   4.502 -0.3247 -0.3289  0.8293
14007TIP3   OH263511   2.442   0.367   5.273  0.3894  0.3645 -0.4053
14007TIP3    H163512   2.439   0.426   5.197  0.0083  0.7188 -0.1138
14007TIP3    H263513   2.536   0.348   5.284  0.6874  2.1426  0.4338
14008TIP3   OH263514   2.179   0.812  10.878 -0.2134  0.4231 -0.0444
14008TIP3    H163515   2.131   0.831  10.958 -0.2751 -0.2667  0.0807
14008TIP3    H263516   2.211   0.723  10.889  0.4506  0.6045 -0.4520
14009TIP3   OH263517   0.858   2.403   4.036 -0.2141  0.5739 -0.6092
14009TIP3    H163518   0.799   2.339   3.996  0.5646 -0.8524  0.4086
14009TIP3    H263519   0.946   2.368   4.019  0.2633  1.7096 -0.5516
14010TIP3   OH263520   0.556   4.925   5.111  0.3569  0.2030  0.1779
14010TIP3    H163521   0.547   4.836   5.075 -0.0654 -0.3905  1.6679
14010TIP3    H263522   0.515   4.981   5.046 -1.4773 -0.9667  0.2453
14011TIP3   OH263523   4.942   3.800  11.638 -0.1379 -0.2071 -0.2754
14011TIP3    H163524   4.891   3.767  11.564  0.0190 -1.0214 -0.0420
14011TIP3    H263525   4.878   3.843  11.694 -0.4691 -0.6571 -0.2995
14012TIP3   OH263526   3.267   6.674   5.123  0.2418  0.1409  0.0785
14012TIP3    H163527   3.301   6.732   5.190  1.5912 -1.0064  0.4341
14012TIP3    H263528   3.229   6.600   5.172  0.8287 -0.4885 -0.3933
14013TIP3   OH263529   1.040   1.996  14.179  0.2011  0.1264 -0.1168
14013TIP3    H163530   1.060   2.024  14.269 -2.1722  0.6492  0.3199
14013TIP3    H263531   0.962   1.942  14.188  1.3148 -1.8488 -1.6418
14014TIP3   OH263532   2.229   4.912  13.935  0.2659  0.6679  0.6088
14014TIP3    H163533   2.306   4.884  13.885  1.8841  0.3120  3.0916
14014TIP3    H263534   2.250   5.001  13.963 -1.6486  1.7632 -1.1841
14015TIP3   OH263535   6.441   4.044   3.700  0.0509  0.1899 -0.3037
14015TIP3    H163536   6.463   3.951   3.698  0.5883  0.0239  3.9835
14015TIP3    H263537   6.515   4.085   3.745 -1.3490  2.2230  0.2890
14016TIP3   OH263538   6.494   2.628   3.022 -0.3007  0.0440 -0.0071
14016TIP3    H163539   6.475   2.721   3.008 -0.8261 -0.1329 -0.5380
14016TIP3    H263540   6.454   2.584   2.947  0.2221 -0.5845  0.0728
14017TIP3   OH263541   6.067   6.596  12.067  0.0703  0.4265  0.0317
14017TIP3    H163542   6.067   6.503  12.088  0.5751  0.5697  0.6841
14017TIP3    H263543   5.974   6.617  12.056 -0.1096  0.0231  0.6939
14018TIP3   OH263544   6.386   3.073   3.188 -0.0942 -0.2646  0.0199
14018TIP3    H163545   6.438   3.086   3.267 -0.3605  1.1081 -0.0159
14018TIP3    H263546   6.302   3.040   3.219 -0.0267 -0.2020  0.2703
14019TIP3   OH263547   1.286   0.228  14.820  0.1156 -0.3456  0.3476
14019TIP3    H163548   1.191   0.219  14.827  0.0029 -2.2243 -2.2001
14019TIP3    H263549   1.305   0.218  14.727  2.7489  1.1861  0.5997
14020TIP3   OH263550   2.835   2.376  15.673 -0.0349 -0.3062  0.1213
14020TIP3    H163551   2.812   2.460  15.634  0.0339 -0.7266 -0.8381
14020TIP3    H263552   2.892   2.400  15.747  0.0442  0.4833 -0.1791
14021TIP3   OH263553   0.469   4.498   1.945 -0.7837 -0.2604 -0.6006
14021TIP3    H163554   0.446   4.501   1.852 -0.8913  0.6972 -0.5486
14021TIP3    H263555   0.443   4.583   1.979 -1.1609 -0.7693  0.4147
14022TIP3   OH263556   3.976   1.626  14.376 -0.1791  0.3421 -0.2756
14022TIP3    H163557   4.030   1.627  14.456 -1.0387 -1.3918  0.3716
14022TIP3    H263558   4.002   1.706  14.330  0.1567  1.5510  1.8471
14023TIP3   OH263559   6.400   1.734   4.703 -0.3544 -0.1046  0.6393
14023TIP3    H163560   6.391   1.747   4.609 -0.3242 -0.4550  0.5866
14023TIP3    H263561   6.485   1.692   4.714 -0.2355  0.1809  0.8493
14024TIP3   OH263562   5.074   2.927  15.750 -0.5952  1.0478  0.7299
14024TIP3    H163563   5.030   2.884  15.824 -1.2205  0.4516  0.0305
14024TIP3    H263564   5.016   2.999  15.727 -0.6840  0.8909  0.4636
14025TIP3   OH263565   6.321   6.121  13.254 -0.1235 -0.0807 -0.2252
14025TIP3    H163566   6.286   6.128  13.165 -0.3650 -0.6034 -0.1723
14025TIP3    H263567   6.283   6.195  13.300  1.1961  1.1000 -0.9468
14026TIP3   OH263568   5.303   4.899  11.047 -0.0366  0.9226 -0.0167
14026TIP3    H163569   5.214   4.927  11.024 -0.8842 -0.5158  1.2531
14026TIP3    H263570   5.315   4.817  11.000 -1.2568 -1.3091  3.1884
14027TIP3   OH263571   4.680   0.475   2.541  0.6509  0.1182 -0.3877
14027TIP3    H163572   4.768   0.512   2.547  0.7903 -0.1056 -0.9732
14027TIP3    H263573   4.675   0.440   2.452  0.2096 -0.4799 -0.1304
14028TIP3   OH263574   0.901   0.411  14.793 -0.4922  0.2107  0.1232
14028TIP3    H163575   0.815   0.394  14.831 -0.9248  1.4198 -0.2755
14028TIP3    H263576   0.944   0.325  14.790 -0.7344 -0.0640  2.5859
14029TIP3   OH263577   0.348   6.698   0.549  0.4001  0.4388  0.1232
14029TIP3    H163578   0.430   6.737   0.519  0.4646 -0.5289 -1.0335
14029TIP3    H263579   0.329   6.743   0.632  0.4072  2.9878 -1.1552
14030TIP3   OH263580   4.992   6.691  13.886 -0.0152 -0.0589  0.0149
14030TIP3    H163581   5.011   6.783  13.868  1.0287 -0.0565  1.0313
14030TIP3    H263582   4.897   6.687  13.894  0.0443  1.4285  2.4073
14031TIP3   OH263583   5.776   3.149  16.353 -0.2046 -0.5881  0.3577
14031TIP3    H163584   5.820   3.234  16.346 -1.4947  0.1537  0.9849
14031TIP3    H263585   5.848   3.087  16.364  0.8291  0.2694 -1.1842
14032TIP3   OH263586   2.267   1.309  15.683  0.3894 -0.0342 -0.1463
14032TIP3    H163587   2.278   1.228  15.632 -0.1238  0.1260 -0.5237
14032TIP3    H263588   2.341   1.310  15.743  1.7986  0.4650 -1.8200
14033TIP3   OH263589   1.994   5.193   2.730 -0.0025 -0.5349 -0.0747
14033TIP3    H163590   1.950   5.150   2.804  1.7919 -2.9245 -0.2703
14033TIP3    H263591   1.982   5.287   2.746 -2.5596 -1.0290  1.3944
14034TIP3   OH263592   2.808   5.974  13.670 -0.1988 -0.2151 -0.2981
14034TIP3    H163593   2.735   5.926  13.710 -1.2632  1.1315 -0.5469
14034TIP3    H263594   2.766   6.046  13.623  1.3214  0.7843 -0.1907
14035TIP3   OH263595   1.160   6.523  13.638  0.2252 -0.6801 -0.0187
14035TIP3    H163596   1.118   6.606  13.618 -0.5269 -0.8079  0.9449
14035TIP3    H263597   1.093   6.457  13.620 -0.1941 -0.8577  1.9897
14036TIP3   OH263598   6.713   4.254   0.869 -0.3760 -0.2444 -0.1374
14036TIP3    H163599   6.630   4.284   0.906 -0.4899 -1.4922  0.6833
14036TIP3    H263600   6.723   4.303   0.788 -0.9151  1.4004  0.7514
14037TIP3   OH263601   4.412   0.959   3.561 -0.2635 -0.7045  0.6644
14037TIP3    H163602   4.353   0.947   3.486  2.0446 -2.2092 -1.0644
14037TIP3    H263603   4.409   0.875   3.608  0.6726 -0.9102  0.3831
14038TIP3   OH263604   0.664   1.057   0.609 -0.1836  0.2679  0.2225
14038TIP3    H163605   0.716   1.136   0.593  0.2581 -0.3054 -1.3004
14038TIP3    H263606   0.582   1.072   0.562  0.5133 -0.7909 -1.4112
14039TIP3   OH263607   4.253   6.826   4.526 -0.1491  0.7978  0.3878
14039TIP3    H163608   4.327   6.871   4.568 -1.0320  2.2811  0.4025
14039TIP3    H263609   4.195   6.803   4.598 -0.5342  1.2025  0.2057
14040TIP3   OH263610   6.793   5.483  11.732 -0.3082  0.8749  0.1807
14040TIP3    H163611   6.880   5.524  11.725 -0.4949  1.1780 -0.4108
14040TIP3    H263612   6.800   5.427  11.809 -0.2618  2.5243  1.4435
14041TIP3   OH263613   6.687   6.752   5.037 -0.2684  0.2770 -0.5822
14041TIP3    H163614   6.628   6.782   4.968  0.8883  2.0075 -0.9123
14041TIP3    H263615   6.632   6.703   5.097 -1.7434  0.6038 -1.6094
14042TIP3   OH263616   4.553   0.994   2.733 -0.7553  0.4592  0.1904
14042TIP3    H163617   4.494   0.953   2.796  0.2614 -2.4161 -0.5236
14042TIP3    H263618   4.531   0.951   2.650 -0.2896  2.2267 -0.8864
14043TIP3   OH263619   0.099   6.454   2.594 -0.1490  0.3812  0.3921
14043TIP3    H163620   0.117   6.364   2.623 -0.3613  0.4236  0.6637
14043TIP3    H263621   0.178   6.480   2.547 -1.1694 -0.9866 -2.2743
14044TIP3   OH263622   1.814   5.959  11.859 -0.0490 -0.2392  0.3205
14044TIP3    H163623   1.746   5.948  11.925 -1.9154  3.6133 -0.6954
14044TIP3    H263624   1.883   6.007  11.903 -0.6374  1.0080 -0.0718
14045TIP3   OH263625   5.830   1.880  15.013  0.2044  0.1952  0.1597
14045TIP3    H163626   5.861   1.817  14.948  0.4365  0.6076 -0.1310
14045TIP3    H263627   5.741   1.851  15.034  0.4042 -0.3830  0.2262
14046TIP3   OH263628   0.261   1.649   4.964  0.7080  0.5222  0.2736
14046TIP3    H163629   0.292   1.725   5.013  1.2168 -0.5669  1.6951
14046TIP3    H263630   0.167   1.645   4.983  0.8203  0.3668  0.8032
14047TIP3   OH263631   3.770   1.240   1.251  0.9424  0.3205  0.1144
14047TIP3    H163632   3.745   1.180   1.322  1.3974  0.4729  0.4128
14047TIP3    H263633   3.697   1.302   1.245  0.9988  0.4426  0.6095
14048TIP3   OH263634   4.971   2.331  16.540  0.1197 -0.9282 -0.3461
14048TIP3    H163635   4.914   2.314  16.465  0.0872  0.2125 -0.5996
14048TIP3    H263636   5.052   2.365  16.501  0.2270 -0.6458  0.1187
14049TIP3   OH263637   2.612   2.427   0.375 -0.4993  0.3515 -0.1292
14049TIP3    H163638   2.667   2.459   0.304  0.7892 -0.7807  0.3206
14049TIP3    H263639   2.542   2.379   0.331  1.6605 -2.5575 -0.6946
14050TIP3   OH263640   4.010   4.970   0.040 -0.5584  0.6523 -0.1365
14050TIP3    H163641   4.003   5.004  -0.049 -0.4420  2.0995  0.3884
14050TIP3    H263642   4.079   4.903   0.034  0.1159  1.3930 -0.9574
14051TIP3   OH263643   3.215   6.717  16.094  0.1808 -0.1151 -0.6661
14051TIP3    H163644   3.258   6.796  16.062  0.1155 -0.1075 -0.7366
14051TIP3    H263645   3.141   6.749  16.146 -0.0563 -0.1294 -0.9868
14052TIP3   OH263646   3.278   5.720   6.342 -0.3727  0.1835 -0.6682
14052TIP3    H163647   3.202   5.774   6.323  0.4754  2.1290  1.0645
14052TIP3    H263648   3.350   5.761   6.294  0.4379  1.1513  1.2723
14053TIP3   OH263649   4.676   6.721  15.489 -0.4223  0.3226 -0.4317
14053TIP3    H163650   4.584   6.745  15.503 -0.5693 -0.7745  0.7292
14053TIP3    H263651   4.677   6.626  15.499  0.7329  0.2409 -1.1651
14054TIP3   OH263652   2.041   1.461   5.577 -0.2665  0.2208 -0.4185
14054TIP3    H163653   2.061   1.375   5.615 -0.1229 -0.7089 -2.4654
14054TIP3    H263654   1.950   1.477   5.602 -1.1806 -1.7933 -2.0895
14055TIP3   OH263655   3.902   5.470  17.238  0.3757 -0.3012 -0.1231
14055TIP3    H163656   3.844   5.520  17.180  0.6777  3.1063  2.2098
14055TIP3    H263657   3.989   5.480  17.199  0.6671  2.4518  1.0242
14056TIP3   OH263658   5.684   5.304  16.414  0.3102  0.0386  0.2926
14056TIP3    H163659   5.647   5.223  16.380  1.4667  0.0355 -1.0639
14056TIP3    H263660   5.619   5.337  16.476 -1.1129 -0.8452 -0.6954
14057TIP3   OH263661   2.529   1.845  13.128 -0.7981 -0.3459  0.1231
14057TIP3    H163662   2.558   1.867  13.217 -0.3451 -2.8432  0.6609
14057TIP3    H263663   2.437   1.872  13.126 -0.8804 -0.4488  1.4362
14058TIP3   OH263664   3.588   0.693   2.791  0.2941 -0.5468 -0.1626
14058TIP3    H163665   3.682   0.679   2.790  0.6419  1.5687 -0.2087
14058TIP3    H263666   3.551   0.605   2.783  2.2426 -1.4077 -0.2338
14059TIP3   OH263667   4.773   1.856  13.955  0.3196  0.2415 -0.3888
14059TIP3    H163668   4.709   1.886  13.890 -0.0796 -1.3485 -0.7713
14059TIP3    H263669   4.856   1.858  13.908  0.2974  0.7005 -0.4166
14060TIP3   OH263670   2.718   6.317  14.749 -0.3927 -0.2967  0.2584
14060TIP3    H163671   2.704   6.269  14.831  0.9389  0.8370  1.2024
14060TIP3    H263672   2.651   6.386  14.751  0.1157  0.1867  0.7692
14061TIP3   OH263673   2.026   4.170   4.457 -0.3680  0.0853  0.0513
14061TIP3    H163674   2.026   4.171   4.552 -1.8283 -0.7302  0.0901
14061TIP3    H263675   2.030   4.077   4.433 -0.3718  0.2584 -0.6693
14062TIP3   OH263676   4.416   4.531   0.020 -0.6244  0.2845 -0.2402
14062TIP3    H163677   4.506   4.498   0.018 -0.9897 -0.7308 -1.1686
14062TIP3    H263678   4.363   4.454   0.043 -1.2610  0.8657  0.2886
14063TIP3   OH263679   1.487   2.001   1.299  0.1942  0.5854  0.5517
14063TIP3    H163680   1.486   1.960   1.213  2.7795 -0.0041  0.7189
14063TIP3    H263681   1.552   2.072   1.291  0.0568  0.8819  1.8437
14064TIP3   OH263682   1.547   0.384  14.846  0.4704  0.0880 -0.0965
14064TIP3    H163683   1.591   0.312  14.892  0.6675  0.5501  0.4583
14064TIP3    H263684   1.460   0.350  14.825  0.2231 -0.0032  0.9988
14065TIP3   OH263685   5.494   1.526  11.755 -0.5690 -0.2409  0.5463
14065TIP3    H163686   5.399   1.523  11.764 -0.8692 -0.4732 -1.9837
14065TIP3    H263687   5.511   1.487  11.669  1.6984  1.0160  0.3526
14066TIP3   OH263688   1.716   2.828  14.277  0.2021 -0.0823 -0.0811
14066TIP3    H163689   1.695   2.837  14.370 -0.8635  0.4059 -0.3491
14066TIP3    H263690   1.689   2.740  14.254 -1.9839  0.6463 -0.4967
14067TIP3   OH263691   2.644   1.212   3.373 -0.5082 -0.3261 -0.0032
14067TIP3    H163692   2.591   1.153   3.319  0.5121 -1.3942  0.1251
14067TIP3    H263693   2.645   1.294   3.324 -0.9279 -0.7858 -0.8109
14068TIP3   OH263694   5.807   3.189  15.158 -0.1253  0.2581 -0.1699
14068TIP3    H163695   5.755   3.247  15.104  1.2551  2.0297  0.3096
14068TIP3    H263696   5.898   3.209  15.135  0.4512 -0.0738  1.6296
14069TIP3   OH263697   0.842   3.097  15.765 -0.4100  0.3487  0.0249
14069TIP3    H163698   0.798   3.088  15.850 -0.1773  0.6651  0.1821
14069TIP3    H263699   0.770   3.100  15.702 -0.6044  0.5342  0.2512
14070TIP3   OH263700   0.537   4.135  11.760  0.0083  0.0584 -0.3442
14070TIP3    H163701   0.619   4.183  11.756 -0.9284  1.8197  0.3508
14070TIP3    H263702   0.536   4.082  11.681  1.6064  0.3130 -0.5702
14071TIP3   OH263703   2.070   4.403   1.582 -0.2946  0.1739  0.5198
14071TIP3    H163704   1.979   4.394   1.610 -0.4534 -0.6569 -0.2158
14071TIP3    H263705   2.091   4.319   1.541  0.0044  1.1886 -1.5320
14072TIP3   OH263706   4.806   1.325  12.933 -0.0283  0.0501  0.1703
14072TIP3    H163707   4.773   1.250  12.983 -1.9740  0.3371 -0.6156
14072TIP3    H263708   4.808   1.293  12.843 -2.5061  1.3833 -0.4448
14073TIP3   OH263709   4.835   2.337   0.975  0.0751 -0.4278  1.0102
14073TIP3    H163710   4.862   2.287   1.051 -1.4029 -0.5975  1.4477
14073TIP3    H263711   4.740   2.341   0.980  0.0902  2.2003  0.8657
14074TIP3   OH263712   0.783   1.731  12.305 -0.1477  0.0740 -0.0074
14074TIP3    H163713   0.772   1.705  12.396 -3.0086 -1.1014 -0.5902
14074TIP3    H263714   0.846   1.668  12.269  2.2845  1.5297  1.4317
14075TIP3   OH263715   5.175   0.589  13.709 -0.2353 -0.2374  0.4463
14075TIP3    H163716   5.238   0.548  13.650 -1.2175 -0.0931 -0.7503
14075TIP3    H263717   5.229   0.635  13.774  0.9132  0.4032 -0.8990
14076TIP3   OH263718   6.013   1.092   3.348 -0.3720 -0.1251  0.1484
14076TIP3    H163719   6.054   1.006   3.340 -0.6105 -0.1803 -0.5143
14076TIP3    H263720   6.086   1.154   3.340 -0.3674 -0.2316 -0.6623
14077TIP3   OH263721   5.342   3.430   4.197 -0.2888  0.1821  0.1594
14077TIP3    H163722   5.384   3.344   4.191 -1.6984 -0.4863 -0.7393
14077TIP3    H263723   5.253   3.412   4.228  0.1874  1.6193  2.6731
14078TIP3   OH263724   5.857   1.547   0.173 -0.0372 -0.1815  0.1275
14078TIP3    H163725   5.769   1.535   0.210 -0.4057  0.3031 -0.5542
14078TIP3    H263726   5.916   1.513   0.239 -0.7560 -0.7369  0.4976
14079TIP3   OH263727   5.268   0.995   0.522 -0.2455 -0.4911 -0.6835
14079TIP3    H163728   5.328   0.924   0.546 -0.3233 -0.9205 -1.6981
14079TIP3    H263729   5.182   0.954   0.520 -0.4810 -0.0479  0.0303
14080TIP3   OH263730   0.305   4.087  13.486 -0.2178  0.4031  0.6357
14080TIP3    H163731   0.293   3.992  13.493 -1.5543  0.4851 -0.1992
14080TIP3    H263732   0.216   4.123  13.493 -0.1289  1.3656 -2.0562
14081TIP3   OH263733   0.289   5.659  15.665 -0.3522 -0.2825 -0.6684
14081TIP3    H163734   0.197   5.657  15.638  0.0655 -0.4917 -2.1611
14081TIP3    H263735   0.338   5.645  15.584  1.0469  1.7659 -0.2517
14082TIP3   OH263736   4.899   3.274  15.474 -0.2020  0.0182  0.3264
14082TIP3    H163737   4.986   3.279  15.513  0.5391  1.2563 -1.3446
14082TIP3    H263738   4.863   3.191  15.505  1.0709  0.0662  2.0384
14083TIP3   OH263739   5.863   3.285   0.478 -0.4512  1.0212  0.5786
14083TIP3    H163740   5.878   3.202   0.523  0.1894  0.7718 -0.0833
14083TIP3    H263741   5.949   3.311   0.447 -1.0388  0.5744 -1.5687
14084TIP3   OH263742   2.502   1.694   1.636  0.2810 -0.1899 -0.0178
14084TIP3    H163743   2.406   1.694   1.637  0.2281 -0.7198 -1.8847
14084TIP3    H263744   2.526   1.640   1.712 -0.7929  1.9329  1.9628
14085TIP3   OH263745   0.067   5.892   3.324  0.1903 -0.2441 -0.4834
14085TIP3    H163746   0.033   5.980   3.345  1.8285  0.0126  1.3436
14085TIP3    H263747   0.160   5.905   3.309  0.7961 -1.8910  1.5081
14086TIP3   OH263748   1.266   1.290   3.983 -0.0352  0.8915 -0.0978
14086TIP3    H163749   1.307   1.317   4.065  1.8872  1.0340 -1.0251
14086TIP3    H263750   1.293   1.358   3.920 -1.7443  0.9767 -0.7818
14087TIP3   OH263751   5.697   0.082   0.519 -0.3541 -0.1656  0.2845
14087TIP3    H163752   5.645   0.040   0.588  1.5186 -1.3938  1.0052
14087TIP3    H263753   5.669   0.174   0.522 -2.3679 -0.7479  0.7208
14088TIP3   OH263754   4.621   3.759   3.631 -0.6074  0.0779 -1.2387
14088TIP3    H163755   4.610   3.672   3.670  0.4168 -0.0888 -1.2965
14088TIP3    H263756   4.568   3.757   3.551 -1.1831 -0.2276 -0.8582
14089TIP3   OH263757   4.067   6.609   0.186 -0.0338 -1.0056 -0.3144
14089TIP3    H163758   4.019   6.659   0.252 -0.0162 -1.2467 -0.1204
14089TIP3    H263759   4.113   6.541   0.235  0.7274 -0.6132 -0.4635
14090TIP3   OH263760   0.527   0.056  16.309  0.4120  0.5946  0.2371
14090TIP3    H163761   0.482   0.089  16.387  1.4481  0.9855  0.6819
14090TIP3    H263762   0.546   0.134  16.257 -1.8752  0.2014 -1.3371
14091TIP3   OH263763   2.178   2.003  11.652  0.2531  0.1306 -0.7235
14091TIP3    H163764   2.150   2.000  11.743 -0.2942  1.1802 -0.8432
14091TIP3    H263765   2.097   1.997  11.602  0.3139  1.9895 -1.0945
14092TIP3   OH263766   0.636   2.841  13.375 -0.0077 -0.0719 -0.1986
14092TIP3    H163767   0.718   2.851  13.326  1.0252 -1.2638  1.2127
14092TIP3    H263768   0.596   2.928  13.372  1.7265  0.7636 -0.1875
14093TIP3   OH263769   4.431   2.459   0.585  0.0066 -0.2905 -0.8087
14093TIP3    H163770   4.503   2.519   0.604 -0.3160  0.5920 -2.2873
14093TIP3    H263771   4.440   2.390   0.651  0.7563  1.0358  0.5314
14094TIP3   OH263772   4.716   6.409   3.572  0.0079  0.3584 -0.3580
14094TIP3    H163773   4.634   6.377   3.536 -0.3155  1.3242 -0.5082
14094TIP3    H263774   4.708   6.504   3.569  0.7870  0.4619  0.4109
14095TIP3   OH263775   3.977   6.680   1.183  0.2335  0.4318  0.1313
14095TIP3    H163776   3.959   6.588   1.162 -1.2411  0.8061 -0.3311
14095TIP3    H263777   3.976   6.683   1.278 -0.1405  0.0499  0.1445
14096TIP3   OH263778   4.572   3.735  14.588  0.0688 -0.0232 -0.0594
14096TIP3    H163779   4.619   3.817  14.601  0.2269 -0.3738  1.9721
14096TIP3    H263780   4.484   3.753  14.621 -0.2927 -0.3012 -0.8467
14097TIP3   OH263781   3.948   2.226   2.036  0.8457 -0.0999 -0.2967
14097TIP3    H163782   3.877   2.290   2.027  1.3576  0.3252 -1.4310
14097TIP3    H263783   3.986   2.244   2.122  0.0990  0.2036 -0.0247
14098TIP3   OH263784   5.525   3.924  13.727  0.1391  0.4953 -0.1542
14098TIP3    H163785   5.470   4.001  13.714 -1.0027 -0.0572  1.1124
14098TIP3    H263786   5.574   3.943  13.807 -0.0019  0.0149  0.0531
14099TIP3   OH263787   4.348   1.702   4.721 -0.5574 -0.6163  0.2040
14099TIP3    H163788   4.325   1.685   4.812  0.0162 -0.4633  0.3818
14099TIP3    H263789   4.269   1.681   4.672 -0.8811 -0.6644  0.7404
14100TIP3   OH263790   4.427   4.532  14.107  0.4412 -0.0911  0.1119
14100TIP3    H163791   4.395   4.585  14.035 -1.3845 -0.5409  0.5488
14100TIP3    H263792   4.521   4.551  14.111  0.3265  0.9763 -1.4803
14101TIP3   OH263793   0.877   5.308  10.463  0.0676 -0.4923  0.1429
14101TIP3    H163794   0.866   5.357  10.544 -1.3682 -1.7732  0.7838
14101TIP3    H263795   0.898   5.374  10.397 -2.2047  1.0868  0.8772
14102TIP3   OH263796   3.085   3.955  11.399  0.6443 -0.3633  0.2203
14102TIP3    H163797   3.058   4.035  11.354 -0.2748 -1.4704 -1.3242
14102TIP3    H263798   3.172   3.937  11.364  0.2134 -0.8505 -0.6295
14103TIP3   OH263799   0.820   1.858   1.553  0.5326  0.2517  0.2275
14103TIP3    H163800   0.764   1.920   1.507 -0.9678  0.2202  1.8995
14103TIP3    H263801   0.899   1.851   1.499 -0.8495  0.6982 -1.9436
14104TIP3   OH263802   1.160   3.815   0.367  0.1860 -0.5859  0.2836
14104TIP3    H163803   1.251   3.786   0.364  0.5270  0.4890 -2.1246
14104TIP3    H263804   1.165   3.909   0.385 -0.4676 -0.5754  0.4584
14105TIP3   OH263805   1.139   6.501  11.809  0.3518  0.0126 -0.6398
14105TIP3    H163806   1.160   6.539  11.894  0.2549 -1.1420 -0.0861
14105TIP3    H263807   1.045   6.481  11.814  0.2649  0.2643 -1.1530
14106TIP3   OH263808   4.188   0.475   1.929  0.2276 -0.1856  0.2203
14106TIP3    H163809   4.148   0.550   1.887  2.9382 -0.6580 -3.7847
14106TIP3    H263810   4.126   0.403   1.916 -0.4099  0.4053 -0.0099
14107TIP3   OH263811   3.471   0.715   6.328  0.3051  0.7441 -0.4188
14107TIP3    H163812   3.434   0.787   6.277  0.0435  0.3086 -0.8542
14107TIP3    H263813   3.490   0.753   6.413  1.8115  1.7807 -1.1892
14108TIP3   OH263814   2.958   1.026  13.345  0.6157  0.3026  0.2001
14108TIP3    H163815   2.964   1.089  13.417  1.4847  1.3261 -0.7306
14108TIP3    H263816   2.963   1.080  13.265  1.4343 -0.9387 -0.6234
14109TIP3   OH263817   0.070   3.546   4.460  0.2277  0.1606 -0.5045
14109TIP3    H163818  -0.007   3.491   4.447 -0.7802  1.1384  0.9056
14109TIP3    H263819   0.034   3.634   4.476  1.3441  0.1577  3.0832
14110TIP3   OH263820   5.414   0.530  13.616 -0.2295 -0.2925 -0.6020
14110TIP3    H163821   5.493   0.582  13.596  0.0649 -0.7935 -0.7742
14110TIP3    H263822   5.446   0.458  13.671 -0.8528  0.4246  0.7268
14111TIP3   OH263823   4.014   2.013  14.953 -0.4261 -0.2390 -0.0683
14111TIP3    H163824   4.020   2.090  15.010 -0.3364  0.7737 -1.3899
14111TIP3    H263825   4.098   1.969  14.963 -0.2128  0.2182  0.1771
14112TIP3   OH263826   5.100   0.784   0.744  0.0840 -0.2945 -0.4067
14112TIP3    H163827   5.071   0.808   0.656  0.2890 -0.1962 -0.4481
14112TIP3    H263828   5.028   0.809   0.801  0.7759  1.5654 -0.3015
14113TIP3   OH263829   0.348   4.543  16.188  0.1436 -0.5948 -0.2090
14113TIP3    H163830   0.294   4.616  16.156 -1.9212 -1.7030  0.5462
14113TIP3    H263831   0.402   4.582  16.256 -0.0410  0.4726 -0.6509
14114TIP3   OH263832   6.466   0.490  12.635  0.1776 -0.4453  0.3928
14114TIP3    H163833   6.451   0.547  12.711 -0.1774  3.5356 -2.3889
14114TIP3    H263834   6.383   0.445  12.622 -0.4512  0.4574  1.1364
14115TIP3   OH263835   5.289   4.883   4.289  0.2292  0.7238  0.2891
14115TIP3    H163836   5.231   4.933   4.232 -1.3262 -2.3508 -1.0149
14115TIP3    H263837   5.351   4.842   4.230  0.6743  0.0706  1.1851
14116TIP3   OH263838   3.022   1.283  13.078  0.5137  0.4182 -0.0123
14116TIP3    H163839   3.088   1.353  13.084  0.2664  1.0312 -2.8807
14116TIP3    H263840   3.074   1.203  13.067  0.7778  0.3826  1.3491
14117TIP3   OH263841   3.969   6.607  14.019  0.2864  0.0052  0.0956
14117TIP3    H163842   3.904   6.566  13.962  0.1504 -0.4758  0.5852
14117TIP3    H263843   3.945   6.699  14.021  0.4515  0.0738 -0.8345
14118TIP3   OH263844   0.537   2.353   2.461  0.5217  0.1277 -0.3575
14118TIP3    H163845   0.596   2.279   2.453  0.6941  0.2036  0.1460
14118TIP3    H263846   0.531   2.390   2.373  0.4043 -0.4992 -0.6156
14119TIP3   OH263847   4.415   5.486   5.828 -0.1951 -0.0071  0.1649
14119TIP3    H163848   4.321   5.499   5.818  0.1415  2.3847 -0.5127
14119TIP3    H263849   4.437   5.531   5.910  0.6032  1.1410 -0.6465
14120TIP3   OH263850   2.855   1.893   6.058  0.6532  0.3808  0.5335
14120TIP3    H163851   2.823   1.932   5.976  0.6026  0.5596  0.6382
14120TIP3    H263852   2.855   1.798   6.040  3.3033  0.5241 -0.6436
14121TIP3   OH263853   5.724   6.215   5.120  0.2310 -0.1188  0.3998
14121TIP3    H163854   5.672   6.182   5.193  1.5052  1.4077  2.1031
14121TIP3    H263855   5.810   6.235   5.158  1.0936  0.3326 -1.6225
14122TIP3   OH263856   1.209   5.580  13.017 -0.2897 -0.1319  0.2875
14122TIP3    H163857   1.142   5.649  13.023 -0.8360 -0.5634 -0.6496
14122TIP3    H263858   1.234   5.578  12.925  0.1121 -0.8294  0.4038
14123TIP3   OH263859   5.613   1.492   2.080  0.0919 -0.9997 -0.1940
14123TIP3    H163860   5.567   1.410   2.102  0.0289 -0.8581  0.2107
14123TIP3    H263861   5.556   1.535   2.016 -0.2512 -0.9113  0.1694
14124TIP3   OH263862   2.979   4.011   6.299  0.6163 -0.2196  0.5578
14124TIP3    H163863   2.885   4.001   6.287  0.9827 -1.3471 -2.2259
14124TIP3    H263864   2.993   4.104   6.314 -0.7941  0.2950 -1.1117
14125TIP3   OH263865   4.812   1.211   5.871 -0.3050 -0.1842 -0.5081
14125TIP3    H163866   4.881   1.177   5.927  0.5793 -1.6066 -2.3740
14125TIP3    H263867   4.847   1.293   5.836 -0.5574  0.3120  0.3526
14126TIP3   OH263868   5.237   6.349   0.543  0.1803  0.1162  0.2895
14126TIP3    H163869   5.188   6.373   0.464  0.1747  0.0705  0.2790
14126TIP3    H263870   5.234   6.427   0.597  2.1491  0.9461 -0.7173
14127TIP3   OH263871   4.870   5.559  11.718  0.1557  0.2217  0.0202
14127TIP3    H163872   4.874   5.638  11.771 -0.3275 -0.2003  0.6955
14127TIP3    H263873   4.937   5.501  11.756  1.3515  0.7376 -1.2164
14128TIP3   OH263874   6.260   6.407   4.416  0.1326 -0.3152 -0.1073
14128TIP3    H163875   6.183   6.449   4.455  1.1429  0.6692  0.9308
14128TIP3    H263876   6.294   6.472   4.354  0.2112 -0.6878 -0.4594
14129TIP3   OH263877   3.416   4.710   3.756 -0.5316  0.1272  0.6653
14129TIP3    H163878   3.402   4.800   3.727 -2.2547  0.0400  1.1156
14129TIP3    H263879   3.356   4.658   3.702  0.8205 -0.8497  0.0339
14130TIP3   OH263880   0.332   1.607   3.306  0.3554 -0.7395 -0.4023
14130TIP3    H163881   0.421   1.589   3.275  0.2451  1.2580 -2.0650
14130TIP3    H263882   0.285   1.636   3.229 -0.6093  2.2394  1.1469
14131TIP3   OH263883   3.192   6.729   6.709  0.4866  0.6250  0.0435
14131TIP3    H163884   3.244   6.700   6.634  1.4165 -0.0993  0.9520
14131TIP3    H263885   3.239   6.697   6.785 -0.3904  1.4425  0.9582
14132TIP3   OH263886   3.502   2.692  13.589  0.4024 -1.1233 -0.2159
14132TIP3    H163887   3.571   2.653  13.535 -0.2763 -3.4425  0.4570
14132TIP3    H263888   3.511   2.648  13.674  0.7014  1.5879  1.2643
14133TIP3   OH263889   1.279   5.609   1.734  0.3887  0.3173 -0.1689
14133TIP3    H163890   1.265   5.536   1.675 -0.4863  1.3245 -1.2635
14133TIP3    H263891   1.223   5.591   1.810 -0.4589  0.2472 -0.8030
14134TIP3   OH263892   0.940   4.764   2.761  0.2499 -0.2190  0.0153
14134TIP3    H163893   0.849   4.779   2.787 -0.4886  0.0468 -2.4368
14134TIP3    H263894   0.980   4.851   2.765  0.3827 -0.3096  0.9410
14135TIP3   OH263895   0.808   5.702  13.836 -0.3085 -0.3226 -0.0009
14135TIP3    H163896   0.766   5.655  13.764  0.6591 -0.1158 -0.7096
14135TIP3    H263897   0.761   5.672  13.914 -1.1545 -0.7930 -0.6757
14136TIP3   OH263898   1.582   5.652   5.350  0.1927 -0.0381  0.0964
14136TIP3    H163899   1.659   5.616   5.394 -0.6175  0.7802  2.3645
14136TIP3    H263900   1.524   5.577   5.337  0.5772 -0.3517  0.1959
14137TIP3   OH263901   0.422   4.361  13.958 -0.6195  0.4436 -0.1186
14137TIP3    H163902   0.443   4.414  14.035  0.7780 -1.8282  1.1500
14137TIP3    H263903   0.507   4.345  13.916 -1.0353 -0.6273 -0.5835
14138TIP3   OH263904   1.954   3.545  12.560 -0.5621  0.5020 -0.2091
14138TIP3    H163905   1.880   3.600  12.534  1.6738  3.1337 -1.4441
14138TIP3    H263906   2.006   3.534  12.480  0.6718 -0.8347  0.7179
14139TIP3   OH263907   2.746   5.054   5.182 -1.0155 -0.5737 -0.0819
14139TIP3    H163908   2.776   4.966   5.159 -1.1882 -0.4287 -0.9281
14139TIP3    H263909   2.748   5.102   5.099 -0.1789  0.4501  0.5079
14140TIP3   OH263910   5.768   4.914   6.330 -0.0204  0.0174 -0.1680
14140TIP3    H163911   5.805   4.826   6.319 -1.9421 -0.5266 -3.1778
14140TIP3    H263912   5.822   4.970   6.274 -0.4008  0.2652 -0.2882
14141TIP3   OH263913   3.038   5.273   3.754 -0.1845  0.3405  0.0749
14141TIP3    H163914   2.963   5.333   3.748  0.8584  1.6158 -1.0658
14141TIP3    H263915   3.096   5.302   3.683  1.1932 -0.8835  0.6684
14142TIP3   OH263916   6.108   1.484  16.957 -0.2249 -0.2415  0.0376
14142TIP3    H163917   6.159   1.537  17.018  0.6526 -0.1524 -0.7485
14142TIP3    H263918   6.099   1.399  17.001  0.5779 -0.2456  0.2216
14143TIP3   OH263919   6.055   5.139  14.406  0.1834  0.2475 -0.0519
14143TIP3    H163920   6.085   5.162  14.493 -0.3675  1.7332 -0.2291
14143TIP3    H263921   6.128   5.090  14.367  0.5962 -0.0441  1.0678
14144TIP3   OH263922   0.167   1.644  16.197 -0.4783 -0.0442  0.3625
14144TIP3    H163923   0.093   1.648  16.136 -0.0362  1.3027 -0.1236
14144TIP3    H263924   0.127   1.653  16.284 -0.9617 -0.2288  0.1621
14145TIP3   OH263925   5.777   1.512   6.119  0.1409 -0.8209  0.4497
14145TIP3    H163926   5.867   1.527   6.090 -0.5724  1.4861 -0.8621
14145TIP3    H263927   5.729   1.494   6.039 -0.9762  0.3727  0.8262
14146TIP3   OH263928   2.744   1.625   1.041 -0.0348 -0.2646 -0.1611
14146TIP3    H163929   2.650   1.609   1.050 -0.1403  1.1142  1.7016
14146TIP3    H263930   2.777   1.629   1.130  1.8673 -0.9237 -0.7758
14147TIP3   OH263931   4.312   1.962   1.430 -0.4071 -0.0257  0.0193
14147TIP3    H163932   4.251   2.035   1.427  0.5481  0.7702 -0.6674
14147TIP3    H263933   4.343   1.960   1.520 -1.3303 -0.3501  0.3389
14148TIP3   OH263934   4.675   2.671   1.525 -0.2417  0.1383 -0.3223
14148TIP3    H163935   4.711   2.695   1.439 -0.8534 -0.0191 -0.6235
14148TIP3    H263936   4.697   2.579   1.534 -0.8280 -0.0338 -0.6379
14149TIP3   OH263937   5.482   6.027  16.637  0.1904 -0.0423 -0.1921
14149TIP3    H163938   5.527   6.034  16.552 -0.2600 -0.8829 -0.5151
14149TIP3    H263939   5.552   6.021  16.701  0.5367  0.6000 -0.5012
14150TIP3   OH263940   1.738   2.256  11.060  0.4056 -0.3656  0.5261
14150TIP3    H163941   1.782   2.194  11.118  1.3875 -0.4675 -0.2985
14150TIP3    H263942   1.792   2.335  11.064  0.4593 -0.3629 -0.2073
14151TIP3   OH263943   3.446   6.214  12.262 -0.0357  0.3078  0.1906
14151TIP3    H163944   3.405   6.300  12.273 -1.2409 -0.3603  1.3029
14151TIP3    H263945   3.539   6.229  12.280 -0.3537  1.2470  1.1478
14152TIP3   OH263946   4.682   3.178  11.827 -0.1947 -0.0784 -0.0796
14152TIP3    H163947   4.771   3.177  11.793 -0.3035  4.2063 -1.0624
14152TIP3    H263948   4.693   3.172  11.922  0.9785 -1.2996 -0.2654
14153TIP3   OH263949   5.788   5.527   2.823 -0.3380  0.2047  0.2560
14153TIP3    H163950   5.808   5.621   2.824 -0.1856  0.1897 -0.5581
14153TIP3    H263951   5.842   5.490   2.893  0.9794  0.4597 -0.6090
14154TIP3   OH263952   1.418   4.653   2.227 -0.5536 -0.0449 -0.1282
14154TIP3    H163953   1.426   4.747   2.209 -2.1387 -0.1622 -1.7494
14154TIP3    H263954   1.470   4.611   2.159  0.4448 -0.3774  0.8078
14155TIP3   OH263955   4.691   6.708   4.210 -0.2404  0.0571 -0.1110
14155TIP3    H163956   4.775   6.678   4.246 -1.9797  0.6076  5.1436
14155TIP3    H263957   4.629   6.639   4.233 -1.7462  0.8455 -1.5801
14156TIP3   OH263958   6.240   0.227  13.138 -0.0020  0.1193 -0.0413
14156TIP3    H163959   6.217   0.249  13.047  0.8085  0.0116 -0.2807
14156TIP3    H263960   6.336   0.233  13.140  0.1909 -2.3666  0.1657
14157TIP3   OH263961   6.771   5.778   4.091 -0.1241  0.7036  0.2746
14157TIP3    H163962   6.777   5.686   4.066  0.3378  0.5961  0.7569
14157TIP3    H263963   6.804   5.825   4.014  1.7740  0.3508  0.8264
14158TIP3   OH263964   6.063   2.577   4.126 -0.6995 -0.5505 -0.4800
14158TIP3    H163965   6.118   2.594   4.050  0.8063 -2.4557  0.0896
14158TIP3    H263966   6.004   2.652   4.131  2.6011  2.2546 -0.4749
14159TIP3   OH263967   4.288   4.798   2.829 -0.0273 -0.6407  0.0358
14159TIP3    H163968   4.330   4.884   2.836  0.1525 -0.7352  0.1058
14159TIP3    H263969   4.352   4.737   2.865 -1.0027 -0.5596  2.0808
14160TIP3   OH263970   3.369   4.409  13.655 -0.0842 -0.4446  0.1017
14160TIP3    H163971   3.306   4.390  13.585 -0.8098  1.0884  0.3075
14160TIP3    H263972   3.342   4.494  13.690  0.4400 -1.0330  2.0632
14161TIP3   OH263973   6.781   6.600   2.811  0.9049 -0.2244 -0.2753
14161TIP3    H163974   6.850   6.558   2.759  1.4959 -0.0748  0.3760
14161TIP3    H263975   6.784   6.692   2.785  0.4734 -0.3385 -0.7551
14162TIP3   OH263976   2.112   2.966   0.192  0.1429 -0.0758 -0.0727
14162TIP3    H163977   2.029   2.926   0.167 -1.0518  0.8124  2.2342
14162TIP3    H263978   2.119   3.044   0.137 -0.3387 -0.3845 -0.5769
14163TIP3   OH263979   2.897   3.599   0.652 -0.3852  0.3628  0.5975
14163TIP3    H163980   2.948   3.568   0.577  0.2032  1.0901  0.6944
14163TIP3    H263981   2.841   3.524   0.675 -0.0965 -0.0903 -0.1451
14164TIP3   OH263982   5.197   1.310  16.984  0.0361 -0.5592  0.0190
14164TIP3    H163983   5.121   1.258  16.959 -1.4049  0.9660  1.0645
14164TIP3    H263984   5.162   1.382  17.036  2.3164 -0.5232  1.6974
14165TIP3   OH263985   3.307   1.433  14.431 -0.0537  0.0962 -0.2618
14165TIP3    H163986   3.290   1.367  14.498 -0.0496  0.6176  0.2612
14165TIP3    H263987   3.393   1.468  14.453 -1.4859  2.7725  1.6346
14166TIP3   OH263988   0.651   3.943   1.191 -0.7875  0.2154 -0.3661
14166TIP3    H163989   0.602   3.874   1.236  2.1975 -0.0667  2.9377
14166TIP3    H263990   0.735   3.902   1.170 -0.2855  1.8393 -1.7465
14167TIP3   OH263991   6.656   2.337   3.531  0.5402 -0.0281 -0.2991
14167TIP3    H163992   6.653   2.295   3.616  0.9488 -0.7559 -0.6316
14167TIP3    H263993   6.566   2.332   3.498  0.5251 -0.3877 -0.2099
14168TIP3   OH263994   1.642   4.002   1.723 -0.1025 -0.2543  0.2810
14168TIP3    H163995   1.721   4.054   1.733  0.2396 -0.8423  0.6984
14168TIP3    H263996   1.593   4.016   1.804 -0.4588  0.1551 -0.0000
14169TIP3   OH263997   0.181   4.828  16.355  0.1248  0.1001 -0.2599
14169TIP3    H163998   0.103   4.836  16.300  0.4288  1.2147 -0.5489
14169TIP3    H263999   0.152   4.775  16.429 -0.7458 -0.0122 -0.6616
14170TIP3   OH264000   0.024   6.381  16.999  0.2216 -0.3261  0.1211
14170TIP3    H164001   0.077   6.318  17.049  0.3842  0.2613  0.6988
14170TIP3    H264002  -0.037   6.417  17.064  0.2867  0.2804 -0.1495
14171TIP3   OH264003   1.297   5.830   5.576  0.7540 -0.1843 -0.2808
14171TIP3    H164004   1.264   5.774   5.646 -0.1088  3.5051  2.5588
14171TIP3    H264005   1.222   5.844   5.519  0.0578  0.5272  0.7767
14172TIP3   OH264006   4.645   4.284  11.986 -0.1096  0.6543  0.1065
14172TIP3    H164007   4.648   4.297  12.081  0.5885  0.9770  0.0471
14172TIP3    H264008   4.556   4.310  11.961 -0.9985 -1.3581  0.9319
14173TIP3   OH264009   6.690   1.871  15.478 -0.3006  0.0623  0.0753
14173TIP3    H164010   6.733   1.948  15.440  1.3393 -0.1972  1.3120
14173TIP3    H264011   6.608   1.863  15.429  0.2827  1.5772 -1.2350
14174TIP3   OH264012   1.260   6.121   1.716  0.3234 -0.5143 -0.3745
14174TIP3    H164013   1.261   6.109   1.621 -1.8293 -1.4868 -0.3307
14174TIP3    H264014   1.292   6.038   1.751 -0.3068 -0.7129 -0.2532
14175TIP3   OH264015   3.336   1.179   2.880 -0.1054  0.1729  0.4600
14175TIP3    H164016   3.369   1.123   2.951 -0.7069  0.8994  1.3349
14175TIP3    H264017   3.346   1.268   2.914 -2.1834  0.4624  0.4428
14176TIP3   OH264018   2.627   5.013  13.744 -0.7291  0.6177 -0.4574
14176TIP3    H164019   2.606   5.066  13.667  0.0646  0.7480 -0.5897
14176TIP3    H264020   2.661   5.076  13.808 -1.2349  0.4874 -0.0550
14177TIP3   OH264021   4.837   4.931  12.323  0.2026 -0.0941 -0.5492
14177TIP3    H164022   4.788   4.894  12.250 -2.5967  0.8496  0.7088
14177TIP3    H264023   4.790   5.012  12.345  2.2409  0.7780  0.9256
14178TIP3   OH264024   2.892   4.815   2.117 -0.1254 -0.1361 -0.3547
14178TIP3    H164025   2.951   4.862   2.058 -0.3874 -1.7701 -2.0085
14178TIP3    H264026   2.944   4.742   2.150 -0.7944 -0.7669 -0.6872
14179TIP3   OH264027   5.572   1.217   2.917 -0.5918 -0.0588  0.4130
14179TIP3    H164028   5.531   1.195   2.834 -0.6330  0.7339  0.2143
14179TIP3    H264029   5.624   1.295   2.898  0.1212 -0.4006  0.9226
14180TIP3   OH264030   0.104   4.388  11.461  0.1534 -0.3759  0.5476
14180TIP3    H164031   0.120   4.482  11.464  0.0728 -0.3773  1.6203
14180TIP3    H264032   0.009   4.379  11.466  0.0094 -0.4766 -1.6380
14181TIP3   OH264033   5.420   2.812  10.736  0.0716  0.3618  0.2392
14181TIP3    H164034   5.505   2.812  10.692  0.2288  0.3073  0.5382
14181TIP3    H264035   5.391   2.903  10.734  0.0704  0.3555  0.0069
14182TIP3   OH264036   5.483   3.019  11.340  0.2041  0.1191  0.0526
14182TIP3    H164037   5.504   3.105  11.303 -0.6922  0.1069 -0.4938
14182TIP3    H264038   5.412   2.986  11.286 -1.2604  0.1666  1.8715
14183TIP3   OH264039   6.015   5.067  13.959  0.8845 -0.6539 -0.1756
14183TIP3    H164040   6.060   5.126  13.899 -0.8750  0.7022 -0.2305
14183TIP3    H264041   5.924   5.067  13.929  0.2530 -1.0623  1.6393
14184TIP3   OH264042   5.645   2.505  16.156  0.7769 -0.2644 -0.0388
14184TIP3    H164043   5.685   2.505  16.069  0.2870  1.5353 -0.3089
14184TIP3    H264044   5.716   2.533  16.214  0.2315  2.0943 -0.4032
14185TIP3   OH264045   2.877   2.781  13.160 -0.2064 -0.6258  0.4925
14185TIP3    H164046   2.959   2.788  13.210  0.5687 -1.0122 -0.7008
14185TIP3    H264047   2.863   2.870  13.127  0.5309 -0.8712 -0.5175
14186TIP3   OH264048   2.710   6.271   3.917  0.1114 -0.2836  0.2385
14186TIP3    H164049   2.700   6.342   3.853  0.7993  0.2086  0.6685
14186TIP3    H264050   2.631   6.219   3.906  0.5001 -0.5988 -1.4930
14187TIP3   OH264051   3.886   4.863  10.830 -0.0637  0.0646  0.1097
14187TIP3    H164052   3.965   4.811  10.843 -1.4494 -2.7853 -1.8989
14187TIP3    H264053   3.898   4.905  10.746 -1.4282 -2.1748 -1.3236
14188TIP3   OH264054   4.719   5.733   2.625  0.2658  0.3889  0.0996
14188TIP3    H164055   4.713   5.680   2.545  2.3156  1.0246 -0.5422
14188TIP3    H264056   4.673   5.814   2.604  0.9908  0.6451 -0.5510
14189TIP3   OH264057   4.383   5.452   2.747  0.2400  0.1837 -0.6377
14189TIP3    H164058   4.454   5.415   2.800 -0.4031 -2.7600 -1.6401
14189TIP3    H264059   4.402   5.545   2.743  1.6779  0.1588  2.6426
14190TIP3   OH264060   0.461   4.002  14.625 -0.0765  0.2027  0.5383
14190TIP3    H164061   0.371   4.008  14.594 -0.1626 -1.5964  0.3760
14190TIP3    H264062   0.457   3.945  14.702  0.8170  0.7492  1.0153
14191TIP3   OH264063   2.764   0.872   3.929 -0.2020  0.3124 -0.0786
14191TIP3    H164064   2.781   0.803   3.866 -0.9492 -1.3675  1.4673
14191TIP3    H264065   2.711   0.936   3.881 -0.8455 -0.9678 -1.1286
14192TIP3   OH264066   2.570   1.719  13.465  0.0593  0.8553  0.3384
14192TIP3    H164067   2.580   1.810  13.491 -0.3132  0.3637  2.3495
14192TIP3    H264068   2.658   1.691  13.440  0.4202  1.3938  0.9913
14193TIP3   OH264069   6.246   4.120   2.971  0.3669 -0.0050 -0.5457
14193TIP3    H164070   6.194   4.171   2.908  1.3568 -0.2485 -1.5940
14193TIP3    H264071   6.206   4.033   2.969 -1.0503  0.5524  0.9214
14194TIP3   OH264072   5.999   3.345  13.443  0.4643  0.4334  0.7394
14194TIP3    H164073   6.087   3.315  13.420  0.6709  0.8464  0.9849
14194TIP3    H264074   5.953   3.351  13.360  0.2561 -1.0448  0.7063
14195TIP3   OH264075   1.845   3.115   0.634 -0.0281  0.1045  0.0859
14195TIP3    H164076   1.758   3.087   0.604 -0.7273 -0.5933  2.5331
14195TIP3    H264077   1.906   3.071   0.576 -1.2908 -0.1107 -1.1316
14196TIP3   OH264078   6.415   5.102   5.677  0.3831  0.1797 -0.4020
14196TIP3    H164079   6.339   5.159   5.658  0.2910  0.4309  0.6676
14196TIP3    H264080   6.433   5.059   5.593 -1.0395 -0.0046 -0.6506
14197TIP3   OH264081   2.801   6.421   2.930 -0.2702  0.8244  0.0453
14197TIP3    H164082   2.844   6.385   2.853 -0.0230  1.7888 -0.2690
14197TIP3    H264083   2.708   6.423   2.906 -0.0484  2.4331 -0.7779
14198TIP3   OH264084   4.365   3.230  15.320 -0.0859  0.4186 -0.1686
14198TIP3    H164085   4.453   3.194  15.317  0.1826  0.7249  2.3250
14198TIP3    H264086   4.335   3.214  15.409 -3.3284 -1.3692 -1.3730
14199TIP3   OH264087   6.020   0.482  13.816  0.2329  0.2016  0.3259
14199TIP3    H164088   6.114   0.478  13.836  0.6791  1.9032 -1.1451
14199TIP3    H264089   5.985   0.544  13.880  0.2208  0.0283  0.4893
14200TIP3   OH264090   4.553   3.324  14.313  0.3007 -0.2477  0.0190
14200TIP3    H164091   4.576   3.284  14.229 -0.8319 -0.9755  0.0411
14200TIP3    H264092   4.462   3.298  14.329  0.3204  0.3262  1.2130
14201TIP3   OH264093   3.222   1.514   2.568 -0.0121 -0.0486 -0.3154
14201TIP3    H164094   3.178   1.503   2.484 -0.0696 -0.9991 -0.1712
14201TIP3    H264095   3.236   1.424   2.599  1.2485  0.2626  0.0420
14202TIP3   OH264096   5.888   3.118   0.891  0.7927  0.2043  0.2258
14202TIP3    H164097   5.872   3.119   0.985  0.6858 -0.3164  0.2133
14202TIP3    H264098   5.913   3.028   0.871  1.1320  0.3881 -0.1919
14203TIP3   OH264099   1.354   1.914  14.168 -0.1024 -0.0424 -0.0948
14203TIP3    H164100   1.269   1.913  14.125  0.4759 -2.8121 -1.3831
14203TIP3    H264101   1.337   1.883  14.257 -0.6961  1.6318  0.4158
14204TIP3   OH264102   2.483   0.709  13.069 -0.9190  0.0851 -0.2398
14204TIP3    H164103   2.416   0.735  13.006 -0.3649 -0.1209 -0.9276
14204TIP3    H264104   2.549   0.778  13.065 -0.2204 -0.5966 -0.9024
14205TIP3   OH264105   5.698   2.976   2.653 -0.0327 -0.1179  0.3072
14205TIP3    H164106   5.626   2.956   2.594 -1.0942 -0.0001  1.5245
14205TIP3    H264107   5.710   3.071   2.646 -1.4878  0.2178  1.6886
14206TIP3   OH264108   0.335   3.545   6.101  0.6608  0.3401 -0.1988
14206TIP3    H164109   0.341   3.601   6.179  0.2606  0.0253  0.0586
14206TIP3    H264110   0.293   3.465   6.132  1.0640 -0.0323 -0.6101
14207TIP3   OH264111   2.352   3.179  16.143 -0.1080  0.2219  0.2301
14207TIP3    H164112   2.325   3.242  16.076 -0.2316 -1.6025 -1.5653
14207TIP3    H264113   2.292   3.192  16.215 -0.3269  1.9093 -0.2316
14208TIP3   OH264114   2.791   3.634  16.197  0.0625  0.3942  0.4342
14208TIP3    H164115   2.718   3.684  16.233  0.0090  0.0172  0.8583
14208TIP3    H264116   2.829   3.590  16.273 -1.4346 -2.2629 -0.2477
14209TIP3   OH264117   2.893   3.645   1.743  0.0043 -0.7739 -0.5715
14209TIP3    H164118   2.923   3.736   1.738  0.5355 -0.9584 -0.8046
14209TIP3    H264119   2.936   3.601   1.670 -0.5285 -1.1387 -0.6740
14210TIP3   OH264120   5.203   4.840   1.256 -0.1657  0.1604  0.6396
14210TIP3    H164121   5.294   4.867   1.270  0.4040 -1.1838 -0.2687
14210TIP3    H264122   5.197   4.822   1.162 -1.2563 -0.2223  0.7639
14211TIP3   OH264123   3.966   2.083   5.604 -0.0529  0.2537  0.1028
14211TIP3    H164124   3.907   2.060   5.532  0.4954  1.0214 -0.6052
14211TIP3    H264125   3.971   2.178   5.602  0.1954  0.2670  0.9808
14212TIP3   OH264126   2.641   4.653  16.095 -0.0105  0.1320  0.2491
14212TIP3    H164127   2.612   4.646  16.005  1.1682 -0.1994 -0.1279
14212TIP3    H264128   2.591   4.585  16.142 -0.9115  0.5691 -0.0556
14213TIP3   OH264129   5.013   0.970  14.034  0.3864 -0.2375  0.1749
14213TIP3    H164130   4.963   0.894  14.004  0.8951 -0.0085 -1.3667
14213TIP3    H264131   5.034   0.951  14.125  2.2205 -2.9401 -0.6788
14214TIP3   OH264132   6.440   0.423  16.119  0.1450 -0.4297 -0.3176
14214TIP3    H164133   6.407   0.497  16.171 -1.8573 -1.6637  0.2787
14214TIP3    H264134   6.438   0.454  16.029  2.6283  1.3661  0.1307
14215TIP3   OH264135   3.276   5.048  16.703 -0.1026 -0.6914  1.0147
14215TIP3    H164136   3.234   5.072  16.621 -1.3627 -2.9768  0.8979
14215TIP3    H264137   3.239   5.107  16.768  0.7234  0.9754  0.0342
14216TIP3   OH264138   4.403   1.581   1.238  0.1651  0.1682 -0.0973
14216TIP3    H164139   4.325   1.528   1.254 -0.1262  1.1392  2.0259
14216TIP3    H264140   4.418   1.628   1.320  2.6881  0.4235 -0.6206
14217TIP3   OH264141   3.505   3.109  13.459 -0.0631 -0.1295  0.1496
14217TIP3    H164142   3.527   3.132  13.549 -1.6719 -2.5604  1.2639
14217TIP3    H264143   3.488   3.193  13.416  3.0074  1.2865  1.3751
14218TIP3   OH264144   1.983   4.720   2.882 -0.2780 -0.0491  0.1304
14218TIP3    H164145   1.904   4.696   2.931  0.0280  0.9255  1.1345
14218TIP3    H264146   2.003   4.642   2.829 -1.7112 -0.4266  0.1106
14219TIP3   OH264147   5.006   1.887  11.429  0.9000 -0.4716  0.2874
14219TIP3    H164148   5.002   1.916  11.520 -0.7517 -0.1610  0.1564
14219TIP3    H264149   4.935   1.824  11.421  1.3406 -0.8670 -0.6689
14220TIP3   OH264150   0.247   0.263   2.535  0.5303  0.7226  0.5196
14220TIP3    H164151   0.299   0.200   2.584 -0.1160  0.1140  0.4523
14220TIP3    H264152   0.302   0.341   2.528  0.9981  0.4789  1.3723
14221TIP3   OH264153   4.809   2.590  10.796 -0.0449 -0.2073  0.8523
14221TIP3    H164154   4.858   2.670  10.774  0.6203 -0.7064  0.5103
14221TIP3    H264155   4.876   2.522  10.803 -0.6461 -0.8098  0.8070
14222TIP3   OH264156   4.442   6.150   3.973 -0.7794 -0.2879 -0.0527
14222TIP3    H164157   4.418   6.176   3.883 -0.6878 -0.3691 -0.1009
14222TIP3    H264158   4.507   6.215   3.999 -1.6585  0.4346  0.3882
14223TIP3   OH264159   3.816   4.971  10.528 -0.0880 -0.1174  0.1557
14223TIP3    H164160   3.893   5.020  10.500 -1.0207  1.8013  0.7506
14223TIP3    H264161   3.742   5.026  10.502 -1.1975 -1.2172  0.8633
14224TIP3   OH264162   5.388   3.825  15.358 -0.6071 -0.5327 -0.9452
14224TIP3    H164163   5.402   3.899  15.299 -0.7242  1.4833  1.4395
14224TIP3    H264164   5.302   3.791  15.334 -0.6675  0.2335 -1.9009
14225TIP3   OH264165   1.198   3.535   2.309 -0.1077  0.2939  0.0358
14225TIP3    H164166   1.225   3.516   2.219 -1.6314  2.4207 -0.9786
14225TIP3    H264167   1.157   3.454   2.339  0.3820 -0.4546 -1.2215
14226TIP3   OH264168   2.946   4.581   4.791  0.3428 -0.4480  0.2714
14226TIP3    H164169   2.985   4.668   4.779  0.3783 -0.4550  0.3419
14226TIP3    H264170   2.997   4.524   4.733  1.7029 -0.8455  1.7978
14227TIP3   OH264171   2.302   5.010   5.142 -0.3612 -0.4951 -0.4419
14227TIP3    H164172   2.208   5.025   5.147 -0.2718 -0.1740  0.8605
14227TIP3    H264173   2.322   4.955   5.218  0.2956 -1.8496 -1.5463
14228TIP3   OH264174   3.866   4.460  17.016 -0.0132  0.0259 -0.2276
14228TIP3    H164175   3.944   4.485  17.066  0.2407 -0.0216 -0.6009
14228TIP3    H264176   3.899   4.434  16.930 -0.6501  2.0922 -1.1477
14229TIP3   OH264177   2.240   4.784   5.732 -0.7081 -0.3842  0.2013
14229TIP3    H164178   2.219   4.777   5.639  0.0098 -0.2324  0.0190
14229TIP3    H264179   2.255   4.877   5.747 -1.4575 -0.3272  0.6172
14230TIP3   OH264180   5.962   5.306   3.082  0.2577  0.1383  0.0876
14230TIP3    H164181   6.039   5.249   3.082  0.5124  0.4599 -1.1439
14230TIP3    H264182   5.896   5.258   3.032  0.3021  0.6776 -0.5014
14231TIP3   OH264183   0.575   3.291   5.288 -0.3382 -0.0279  0.3865
14231TIP3    H164184   0.493   3.244   5.277 -0.5359 -0.1749  2.2056
14231TIP3    H264185   0.573   3.323   5.378  2.1783 -1.1937  0.9676
14232TIP3   OH264186   0.271   1.656   0.882 -0.2937 -0.4988  0.9791
14232TIP3    H164187   0.290   1.694   0.968  0.4502 -1.2715  1.1733
14232TIP3    H264188   0.338   1.692   0.825  1.3079 -2.5502  1.4714
14233TIP3   OH264189   4.863   0.035  11.958  0.0538 -0.0988 -0.3453
14233TIP3    H164190   4.896  -0.040  12.007  1.2581  1.2787  1.0128
14233TIP3    H264191   4.917   0.038  11.879  0.6966 -0.0540  0.0936
14234TIP3   OH264192   0.353   2.237  11.079  0.1808 -0.0284 -0.6032
14234TIP3    H164193   0.385   2.167  11.022  2.2304  1.3466 -1.2361
14234TIP3    H264194   0.294   2.193  11.141  0.6058 -2.1129 -1.6158
14235TIP3   OH264195   2.507   4.836   5.060 -0.1858 -0.2512  0.2314
14235TIP3    H164196   2.583   4.880   5.021  0.0607  0.7604  1.7563
14235TIP3    H264197   2.445   4.907   5.077 -1.7015 -1.1316 -1.4222
14236TIP3   OH264198   1.040   6.203  11.604  0.2316  0.9235 -0.0920
14236TIP3    H164199   1.120   6.163  11.570  0.3279  0.9427  0.1136
14236TIP3    H264200   1.051   6.203  11.699 -0.0436  0.8594 -0.0589
14237TIP3   OH264201   3.341   6.170   2.341 -0.8544 -0.6174  0.3514
14237TIP3    H164202   3.255   6.205   2.366 -0.0966  2.1353 -0.5682
14237TIP3    H264203   3.392   6.174   2.422 -0.1990  2.4954 -0.1216
14238TIP3   OH264204   1.879   5.525   1.012  0.1636  0.1899  0.1433
14238TIP3    H164205   1.852   5.525   0.920  1.8807 -1.1595 -0.4096
14238TIP3    H264206   1.817   5.466   1.055 -0.7646  0.9680 -0.0671
14239TIP3   OH264207   2.255   3.713  15.533  0.3647 -0.2117  0.3967
14239TIP3    H164208   2.301   3.631  15.546  0.1784 -0.4161 -0.2057
14239TIP3    H264209   2.307   3.778  15.581  0.9629 -0.5354  0.1892
14240TIP3   OH264210   1.344   1.455   1.263 -0.1298  0.2071 -0.4220
14240TIP3    H164211   1.330   1.361   1.250 -0.2210  0.2676 -0.7855
14240TIP3    H264212   1.256   1.493   1.258 -0.2388  0.1858  0.9027
14241TIP3   OH264213   1.490   2.436  10.598  0.2450 -0.2273 -0.2325
14241TIP3    H164214   1.412   2.383  10.612  1.2556 -1.4192  1.3386
14241TIP3    H264215   1.505   2.432  10.503 -2.1726  0.9773 -0.7389
14242TIP3   OH264216   4.585   2.356   1.570 -0.4841 -0.0728  0.1904
14242TIP3    H164217   4.579   2.375   1.664 -1.1050 -1.9272  0.5778
14242TIP3    H264218   4.496   2.366   1.537 -0.2571  0.6328 -0.2365
14243TIP3   OH264219   2.611   4.352  12.354  0.1638  0.2663  0.0610
14243TIP3    H164220   2.694   4.319  12.320  0.2836  0.2826  0.3336
14243TIP3    H264221   2.546   4.321  12.291  0.2287 -0.8036  0.4889
14244TIP3   OH264222   4.594   6.395  11.013 -0.1504  0.0987  0.4726
14244TIP3    H164223   4.631   6.314  10.980 -1.9998 -0.1787 -1.1440
14244TIP3    H264224   4.667   6.441  11.053  1.6260 -0.9920 -1.3327
14245TIP3   OH264225   0.625   4.630  13.846  0.0233 -0.1358 -0.1428
14245TIP3    H164226   0.568   4.703  13.871 -0.1070 -0.0926 -0.5715
14245TIP3    H264227   0.698   4.635  13.909 -0.2313  0.0609  0.1418
14246TIP3   OH264228   2.197   4.459   2.921 -0.2349 -0.1985 -0.1017
14246TIP3    H164229   2.254   4.534   2.904 -0.4212  0.2011  1.0059
14246TIP3    H264230   2.133   4.462   2.850 -0.8675  1.3101  0.4905
14247TIP3   OH264231   6.124   3.111  10.598  0.1240 -0.1475 -0.0899
14247TIP3    H164232   6.178   3.101  10.677  0.0157 -0.5939 -0.0684
14247TIP3    H264233   6.046   3.059  10.616 -0.7306  1.2164  0.2314
14248TIP3   OH264234   2.028   0.539   3.725 -0.1436 -0.4825  0.6308
14248TIP3    H164235   2.015   0.629   3.694 -0.9007 -0.1477  1.8607
14248TIP3    H264236   1.943   0.497   3.715  0.2013 -1.0695  0.0829
14249TIP3   OH264237   1.383   3.118  14.634 -0.4748 -0.4611  0.4344
14249TIP3    H164238   1.431   3.182  14.686 -0.4539 -1.7150  2.0487
14249TIP3    H264239   1.384   3.038  14.687 -1.2055 -1.5750 -1.1273
14250TIP3   OH264240   0.831   1.441   3.052  0.2019  0.4602 -0.2064
14250TIP3    H164241   0.857   1.523   3.093  1.0895 -0.2305  0.6866
14250TIP3    H264242   0.836   1.376   3.123 -2.5427 -0.0287 -0.3574
14251TIP3   OH264243   1.948   0.437  12.736 -1.0294  0.4469 -0.1828
14251TIP3    H164244   1.920   0.496  12.807 -0.6718 -1.0657  1.2535
14251TIP3    H264245   2.030   0.475  12.704 -2.4201  2.5534 -1.5795
14252TIP3   OH264246   4.189   1.755  11.756  0.0329 -0.4399 -0.4408
14252TIP3    H164247   4.205   1.663  11.735  3.0747 -0.1403  0.0571
14252TIP3    H264248   4.155   1.754  11.846  0.2860 -1.0628 -0.3516
14253TIP3   OH264249   1.844   1.095  15.495 -0.2503 -0.3567 -0.2734
14253TIP3    H164250   1.800   1.136  15.570 -0.4142  0.9227 -1.0404
14253TIP3    H264251   1.843   1.001  15.515 -1.4081 -0.1556  0.7440
14254TIP3   OH264252   2.164   5.658   1.508 -0.5826  0.4271  0.4158
14254TIP3    H164253   2.159   5.590   1.574  0.6447 -0.6021 -0.4893
14254TIP3    H264254   2.210   5.730   1.551  0.4569 -0.3373  0.6231
14255TIP3   OH264255   0.781   1.077   1.161 -0.0305 -0.5766 -0.2596
14255TIP3    H164256   0.692   1.043   1.169 -0.0771 -0.8580 -1.6669
14255TIP3    H264257   0.837   1.001   1.176 -0.0822 -0.7790 -1.0330
14256TIP3   OH264258   2.122   3.532  15.108  0.0634  0.2034  0.5251
14256TIP3    H164259   2.056   3.487  15.056 -0.9047  0.5417  1.4318
14256TIP3    H264260   2.188   3.465  15.128 -0.1844 -0.2214 -0.0826
14257TIP3   OH264261   2.336   5.863   3.661  0.1483 -0.2493 -0.4098
14257TIP3    H164262   2.320   5.839   3.569  1.3828  1.4699 -1.1158
14257TIP3    H264263   2.399   5.798   3.692 -0.3849 -0.9265 -0.7122
14258TIP3   OH264264   1.971   2.132  14.925  0.0972  0.5529  0.2046
14258TIP3    H164265   2.049   2.103  14.879 -0.8732 -2.1071  0.0430
14258TIP3    H264266   1.931   2.051  14.958 -2.0000  1.9029  1.2316
14259TIP3   OH264267   3.662   4.050   1.374 -0.4903  0.2559  0.6343
14259TIP3    H164268   3.651   4.031   1.467 -0.7840 -0.7249  0.4184
14259TIP3    H264269   3.654   3.964   1.332  0.0302  0.6387 -0.2589
14260TIP3   OH264270   6.059   5.512  11.286 -1.2782  0.4283  0.5948
14260TIP3    H164271   6.085   5.546  11.371  0.5546  0.1305  0.1892
14260TIP3    H264272   6.022   5.426  11.305 -0.8542  0.3490  1.0759
14261TIP3   OH264273   5.336   0.293  15.684  0.3947 -0.3512  0.3787
14261TIP3    H164274   5.317   0.327  15.597  1.4737 -0.0617  0.2418
14261TIP3    H264275   5.270   0.224  15.699 -0.5629  0.4306 -0.1502
14262TIP3   OH264276   3.656   0.218   5.197 -0.7257  0.4825 -0.2398
14262TIP3    H164277   3.664   0.290   5.259 -1.4897  0.3389  0.0356
14262TIP3    H264278   3.579   0.239   5.144 -0.3017  0.4181 -0.9040
14263TIP3   OH264279   0.414   3.824   4.406 -0.1798  0.1887  0.1873
14263TIP3    H164280   0.425   3.860   4.318 -1.6529  0.1506 -0.0322
14263TIP3    H264281   0.409   3.729   4.393  0.2605  0.1326  0.3960
14264TIP3   OH264282   0.170   0.230  12.032 -0.4977 -0.0497 -0.5088
14264TIP3    H164283   0.125   0.154  12.069  1.9260 -0.8794  0.9910
14264TIP3    H264284   0.191   0.285  12.108 -0.6212  1.2523 -1.3779
14265TIP3   OH264285   0.842   1.241   2.564  0.0453  0.0436  0.4782
14265TIP3    H164286   0.766   1.186   2.582 -0.0789  0.3945  1.0596
14265TIP3    H264287   0.869   1.274   2.650  0.2588  0.6971  0.1697
14266TIP3   OH264288   0.422   1.527  16.530  0.2477  0.5772  0.2648
14266TIP3    H164289   0.421   1.564  16.442  1.1684 -0.8558 -0.3873
14266TIP3    H264290   0.420   1.432  16.517  1.6822  0.2870  1.7163
14267TIP3   OH264291   6.294   0.482   2.900  0.2924 -0.7503 -0.0548
14267TIP3    H164292   6.290   0.386   2.896 -2.9320 -0.7308 -1.2972
14267TIP3    H264293   6.234   0.505   2.971 -2.0688  0.2720 -2.2123
14268TIP3   OH264294   0.540   5.323  16.226 -0.0508 -0.2311  0.3673
14268TIP3    H164295   0.611   5.283  16.175 -0.5395 -0.9935  0.2666
14268TIP3    H264296   0.576   5.331  16.314  0.6106  0.5974  0.0331
14269TIP3   OH264297   4.506   5.560   1.072  0.0776 -0.3489  0.2545
14269TIP3    H164298   4.555   5.502   1.130  1.7921 -2.1224 -2.7372
14269TIP3    H264299   4.553   5.644   1.077  0.2164 -0.4804  1.3339
14270TIP3   OH264300   6.303   5.196  13.385 -0.0683 -0.6331  0.6187
14270TIP3    H164301   6.314   5.279  13.339  1.6000 -1.2470 -0.1795
14270TIP3    H264302   6.208   5.186  13.395 -0.2839  1.5787  1.1818
14271TIP3   OH264303   0.195   3.108  11.193 -0.2407  0.3725  0.2695
14271TIP3    H164304   0.210   3.013  11.194 -1.4438  0.1548 -0.4954
14271TIP3    H264305   0.107   3.118  11.157  0.6385  1.8921 -1.5976
14272TIP3   OH264306   3.799   1.081  13.638 -0.2283 -0.0366 -0.4558
14272TIP3    H164307   3.722   1.059  13.690  0.5563 -0.4664  0.5379
14272TIP3    H264308   3.865   1.106  13.701  0.0369  1.7378 -1.3743
14273TIP3   OH264309   2.725   0.167  16.541 -0.0754  0.4021  0.3394
14273TIP3    H164310   2.741   0.260  16.559 -1.6925  0.8447 -0.2518
14273TIP3    H264311   2.712   0.128  16.628 -0.1324  0.8898  0.5570
14274TIP3   OH264312   6.709   6.511  17.268 -0.0463  0.2000 -0.3407
14274TIP3    H164313   6.640   6.465  17.218 -1.2676  0.3280  1.1604
14274TIP3    H264314   6.672   6.597  17.286  1.2225  0.8955 -0.9648
14275TIP3   OH264315   1.621   1.071  13.649 -0.6376  0.4863 -0.0724
14275TIP3    H164316   1.694   1.092  13.707  0.6914 -0.0185 -1.4954
14275TIP3    H264317   1.569   1.151  13.646 -0.3940  0.7080  1.3195
14276TIP3   OH264318   0.189   1.567  16.689  0.6568  0.6735  0.5797
14276TIP3    H164319   0.282   1.563  16.668  0.4353 -0.4811 -0.2311
14276TIP3    H264320   0.179   1.651  16.735  1.7934  1.6217 -0.8103
14277TIP3   OH264321   4.545   1.615  15.858 -0.4137  0.3675  1.2672
14277TIP3    H164322   4.509   1.670  15.928  0.5047  1.3577  0.9933
14277TIP3    H264323   4.476   1.613  15.791 -1.0699 -0.1130  1.9473
14278TIP3   OH264324   1.249   2.138   6.475  0.2278 -0.4902  0.0695
14278TIP3    H164325   1.220   2.225   6.449  1.4801 -0.3809 -1.0120
14278TIP3    H264326   1.313   2.112   6.409  2.1542 -0.9845  2.0098
14279TIP3   OH264327   1.370   2.674   2.369 -0.3643 -0.2469  0.0638
14279TIP3    H164328   1.426   2.642   2.440 -1.7354 -0.5162  1.0602
14279TIP3    H264329   1.308   2.732   2.411 -3.0168 -2.5722 -0.3515
14280TIP3   OH264330   1.101   2.264  13.526 -0.2862 -0.4603 -0.2957
14280TIP3    H164331   1.151   2.341  13.555 -2.2054  0.5525  0.4904
14280TIP3    H264332   1.014   2.298  13.506 -0.8834 -2.2825 -0.9584
14281TIP3   OH264333   2.307   4.117  14.807  0.0722  0.3513 -0.4757
14281TIP3    H164334   2.360   4.042  14.781  0.9838  0.5004  0.8528
14281TIP3    H264335   2.371   4.180  14.842 -0.9416  0.6491  0.9015
14282TIP3   OH264336   5.775   6.588   5.806 -0.1379  0.3538 -0.1592
14282TIP3    H164337   5.713   6.614   5.875  0.0024 -0.9792  0.5129
14282TIP3    H264338   5.802   6.670   5.765 -0.9797  1.0979  0.7252
14283TIP3   OH264339   6.357   0.105   3.960 -1.2661  0.1725  0.9268
14283TIP3    H164340   6.313   0.019   3.957 -1.2991  0.1646 -2.4641
14283TIP3    H264341   6.360   0.133   3.868  1.3699  2.4966  1.5968
14284TIP3   OH264342   4.182   3.596  16.667  0.4706 -0.9110  0.1245
14284TIP3    H164343   4.128   3.673  16.649  1.9621  0.4336  1.1892
14284TIP3    H264344   4.223   3.614  16.751  2.0612 -2.1819 -0.3340
14285TIP3   OH264345   0.992   5.356   2.912 -0.6019 -0.6334  0.2815
14285TIP3    H164346   1.007   5.383   2.821 -2.5030 -1.1494 -0.2480
14285TIP3    H264347   0.970   5.437   2.957  1.7075 -0.1508  0.6669
14286TIP3   OH264348   0.829   5.040  15.677  0.0075 -0.6877  0.4023
14286TIP3    H164349   0.897   5.100  15.709  0.2210  0.6848 -2.2921
14286TIP3    H264350   0.747   5.076  15.711  0.2187  0.6558 -0.4425
14287TIP3   OH264351   4.638   0.071  16.599  0.0645  0.1132 -0.4109
14287TIP3    H164352   4.612   0.081  16.507  0.8779 -0.0800 -0.6763
14287TIP3    H264353   4.593  -0.008  16.629 -0.8673  0.6503 -0.3910
14288TIP3   OH264354   4.788   6.480   4.503 -0.4048 -0.3999 -0.1112
14288TIP3    H164355   4.736   6.550   4.542  0.7416  0.8432 -0.7340
14288TIP3    H264356   4.858   6.464   4.567  1.6077  1.7922 -1.5641
14289TIP3   OH264357   5.928   2.719  15.902 -0.5473 -0.0916  0.2435
14289TIP3    H164358   5.880   2.720  15.985  0.5820  0.7722  0.9092
14289TIP3    H264359   5.958   2.809  15.890 -3.1329  0.5740 -2.5925
14290TIP3   OH264360   5.943   4.716   6.293 -0.0867 -0.4516  0.0312
14290TIP3    H164361   5.947   4.634   6.244  2.4289 -0.8070  0.6667
14290TIP3    H264362   6.025   4.717   6.343  0.0553  2.5773 -0.1266
14291TIP3   OH264363   5.863   1.674   5.842 -0.0902 -0.0479 -0.3443
14291TIP3    H164364   5.860   1.620   5.763 -0.7562 -0.4125 -0.0860
14291TIP3    H264365   5.929   1.632   5.897 -1.4906 -1.4037  0.3914
14292TIP3   OH264366   3.705   4.468  13.004 -0.7619 -0.5757 -0.6763
14292TIP3    H164367   3.784   4.428  13.042 -0.9462 -0.9822 -0.7156
14292TIP3    H264368   3.714   4.561  13.022 -1.1785 -0.8333  0.9801
14293TIP3   OH264369   4.587   4.972  17.249 -0.5613 -0.1125  0.5641
14293TIP3    H164370   4.556   4.954  17.338 -1.1499  0.2067  0.4272
14293TIP3    H264371   4.526   5.037  17.215 -1.3831 -1.4691 -0.6771
14294TIP3   OH264372   1.410   5.666  15.649 -0.0215 -0.2184 -0.1862
14294TIP3    H164373   1.504   5.679  15.635  0.0287 -0.1938  0.1638
14294TIP3    H264374   1.403   5.578  15.686 -0.4627 -1.8087 -3.7063
14295TIP3   OH264375   0.198   1.019   6.286  0.1873 -0.1539 -0.5469
14295TIP3    H164376   0.217   0.951   6.351  0.5412  2.3027  2.1385
14295TIP3    H264377   0.110   0.998   6.254  0.1283 -1.6493  0.5154
14296TIP3   OH264378   5.543   5.811   4.301  0.3021 -0.4030 -0.0130
14296TIP3    H164379   5.547   5.905   4.317 -0.1881 -0.2049 -0.9625
14296TIP3    H264380   5.622   5.776   4.342  0.5442  0.4365  0.2533
14297TIP3   OH264381   4.754   4.613   1.450  0.4558  0.0912  0.1782
14297TIP3    H164382   4.821   4.545   1.439  0.2921 -0.1224  0.4932
14297TIP3    H264383   4.735   4.614   1.543 -0.7075 -0.5613 -0.0299
14298TIP3   OH264384   0.047   2.859  16.808 -0.1612  0.3077 -0.0854
14298TIP3    H164385   0.113   2.915  16.849 -0.0520  0.1484 -0.0385
14298TIP3    H264386   0.019   2.800  16.879 -0.7856  0.7609  0.0551
14299TIP3   OH264387   1.784   5.299   3.689 -0.5155  0.0449  0.2860
14299TIP3    H164388   1.710   5.329   3.636 -0.1551 -2.1321 -1.6275
14299TIP3    H264389   1.759   5.210   3.716  1.1127 -0.4899  0.1490
14300TIP3   OH264390   3.987   5.179   5.947  0.2781 -0.4752  0.3472
14300TIP3    H164391   4.062   5.231   5.976  0.4596  0.4740 -1.6268
14300TIP3    H264392   4.023   5.119   5.881 -0.4055 -1.2427  0.6522
14301TIP3   OH264393   4.562   1.850  17.032  0.6503  0.0427  0.3815
14301TIP3    H164394   4.538   1.759  17.049  0.5139 -0.2641 -1.3330
14301TIP3    H264395   4.582   1.885  17.119 -0.9190 -1.1354  1.2879
14302TIP3   OH264396   1.391   6.588   3.307  0.1494  0.0945  0.1296
14302TIP3    H164397   1.393   6.519   3.373  3.0713  0.8390  0.9982
14302TIP3    H264398   1.414   6.668   3.356 -0.7030  1.2455 -1.2797
14303TIP3   OH264399   2.419   1.332  14.690 -0.6772  0.3836 -0.1517
14303TIP3    H164400   2.369   1.350  14.770  1.3308 -2.1199  1.8417
14303TIP3    H264401   2.509   1.351  14.713  0.3126 -2.7426 -0.8721
14304TIP3   OH264402   0.015   5.214   1.072 -0.2612  0.0151  0.1957
14304TIP3    H164403   0.041   5.124   1.054 -0.8832  0.0324 -0.8405
14304TIP3    H264404  -0.022   5.211   1.160 -1.5956 -1.0333 -0.3681
14305TIP3   OH264405   3.736   0.226  12.464  0.2012 -0.1243 -0.3402
14305TIP3    H164406   3.831   0.234  12.458  0.0920  1.0201 -0.8882
14305TIP3    H264407   3.708   0.212  12.373 -0.1722 -0.2018 -0.2144
14306TIP3   OH264408   3.526   3.019   2.176 -0.0772 -0.5009  0.0975
14306TIP3    H164409   3.595   2.970   2.132 -0.4056 -1.3519  0.5220
14306TIP3    H264410   3.572   3.082   2.232  0.3481 -0.7470  0.0217
14307TIP3   OH264411   5.991   0.944   3.836 -0.1965  0.1387  0.1529
14307TIP3    H164412   5.966   1.001   3.764 -1.1371 -0.6539 -0.1713
14307TIP3    H264413   6.022   0.864   3.793 -0.4763 -0.2212  0.6144
14308TIP3   OH264414   3.380   0.264  11.947 -0.0008  0.2594  0.4922
14308TIP3    H164415   3.441   0.325  11.906  2.3228 -2.0901  0.2587
14308TIP3    H264416   3.408   0.258  12.038  0.0397 -0.7351  0.4232
14309TIP3   OH264417   4.987   1.783  10.816 -0.0825  0.2729  0.3442
14309TIP3    H164418   4.970   1.757  10.725  0.6130  0.1248  0.2501
14309TIP3    H264419   5.077   1.815  10.815 -0.4352  1.3054  0.7704
14310TIP3   OH264420   0.725   5.032   6.195  0.1234 -0.0617 -0.0911
14310TIP3    H164421   0.786   5.098   6.228  0.6457 -1.2043  1.3135
14310TIP3    H264422   0.781   4.961   6.163 -0.4506 -0.8156  0.5395
14311TIP3   OH264423   2.655   6.190   5.403  0.5462  0.4774  1.0397
14311TIP3    H164424   2.698   6.143   5.332 -0.6073 -1.3466  1.4671
14311TIP3    H264425   2.586   6.241   5.360  0.0570 -0.3730  0.7699
14312TIP3   OH264426   3.827   0.942   3.515  0.0086 -0.3197  0.1284
14312TIP3    H164427   3.758   0.919   3.577 -1.8559  0.7977 -1.3915
14312TIP3    H264428   3.862   0.858   3.485  0.2624 -0.8818  1.9034
14313TIP3   OH264429   4.640   1.155  13.100 -0.4114 -0.2818 -0.4798
14313TIP3    H164430   4.681   1.236  13.131 -1.7753  0.1544  0.2770
14313TIP3    H264431   4.643   1.096  13.175 -2.0793  0.1309 -0.0518
14314TIP3   OH264432   2.795   4.152   3.782  0.2282  0.1728 -0.0115
14314TIP3    H164433   2.812   4.183   3.694 -1.7893 -0.3599 -0.6563
14314TIP3    H264434   2.761   4.228   3.829  1.9311  0.6250  0.5411
14315TIP3   OH264435   3.329   1.592  13.992  0.4727 -0.2023 -0.2161
14315TIP3    H164436   3.264   1.571  14.059  0.4042  0.1643 -0.1617
14315TIP3    H264437   3.411   1.554  14.024  0.2762 -0.6957 -0.3039
14316TIP3   OH264438   5.368   0.659  13.909  0.5663 -0.1094 -0.5752
14316TIP3    H164439   5.341   0.693  13.995  1.6604  2.2931 -1.0757
14316TIP3    H264440   5.359   0.734  13.851 -0.5020 -1.7845 -2.6988
14317TIP3   OH264441   6.056   6.337   2.368 -0.1535  0.5990 -0.1612
14317TIP3    H164442   6.111   6.358   2.293  1.9497 -0.6688  0.9228
14317TIP3    H264443   6.007   6.259   2.341  2.0079 -1.0185  0.3427
14318TIP3   OH264444   1.998   1.928   4.115 -0.1044  0.2415  0.6723
14318TIP3    H164445   1.941   1.914   4.191  0.0995  1.2944  1.0269
14318TIP3    H264446   1.944   1.978   4.053 -0.4514 -1.0502 -0.1294
14319TIP3   OH264447   4.231   5.321  16.970  0.1432 -0.2149  0.1864
14319TIP3    H164448   4.289   5.356  16.902  2.0175 -2.2036  0.6796
14319TIP3    H264449   4.236   5.386  17.040  0.8099  0.2354 -0.2598
14320TIP3   OH264450   3.159   2.721  16.267 -1.1554 -0.0634 -0.2130
14320TIP3    H164451   3.158   2.633  16.232 -1.8251 -0.4176  0.6464
14320TIP3    H264452   3.161   2.778  16.191 -0.7251 -0.8206 -0.7748
14321TIP3   OH264453   3.722   2.547   6.546 -0.1126  0.3855  0.5340
14321TIP3    H164454   3.648   2.486   6.545  0.8758 -0.9643  2.6249
14321TIP3    H264455   3.792   2.500   6.500  0.3543  0.3373  1.2799
14322TIP3   OH264456   2.366   0.756  12.838 -0.5404  0.2710 -0.3324
14322TIP3    H164457   2.321   0.806  12.770  0.1969  0.1607 -0.9076
14322TIP3    H264458   2.456   0.748  12.807 -0.1498  0.3585  0.7314
14323TIP3   OH264459   1.531   0.880   0.216 -0.4657 -0.6974 -0.1119
14323TIP3    H164460   1.491   0.939   0.280 -2.7225  1.0753 -2.9161
14323TIP3    H264461   1.625   0.884   0.235 -0.6213  2.8985  0.6147
14324TIP3   OH264462   2.708   4.020   6.293  0.2665 -0.7056 -0.5854
14324TIP3    H164463   2.680   4.061   6.211  2.2048 -0.1086 -1.0092
14324TIP3    H264464   2.640   4.043   6.355  0.4223  1.8380 -1.2185
14325TIP3   OH264465   2.901   3.739  12.116  0.4337  0.3729  0.2864
14325TIP3    H164466   2.910   3.775  12.204  1.9219  0.1088  0.2709
14325TIP3    H264467   2.934   3.649  12.123 -2.1575 -0.6878  0.0810
14326TIP3   OH264468   2.355   4.103   1.979 -0.2577 -0.1736  0.5251
14326TIP3    H164469   2.293   4.030   1.986  0.9753 -1.5675 -1.7487
14326TIP3    H264470   2.336   4.158   2.055 -1.5586 -2.6129  2.1147
14327TIP3   OH264471   2.006   3.755  16.038 -0.1953 -0.2767 -0.2667
14327TIP3    H164472   1.996   3.831  15.979 -0.0088  0.9928  1.2737
14327TIP3    H264473   1.918   3.740  16.072 -0.2783 -0.9337 -0.7527
14328TIP3   OH264474   5.291   5.280   2.842  0.1047  0.1821  0.3973
14328TIP3    H164475   5.260   5.347   2.780  0.9568  1.2818  1.1173
14328TIP3    H264476   5.386   5.279   2.830  0.0556 -1.4268 -0.0855
14329TIP3   OH264477   2.748   5.542  16.495 -0.1072 -0.5673  0.1399
14329TIP3    H164478   2.797   5.461  16.487 -0.2399 -0.5900 -0.5139
14329TIP3    H264479   2.711   5.540  16.583  2.5810  0.3158  1.3646
14330TIP3   OH264480   6.824   1.944   1.318  0.0132 -0.2561  0.0503
14330TIP3    H164481   6.871   1.869   1.281  2.4493  0.7071  0.9563
14330TIP3    H264482   6.779   1.908   1.395 -0.2563 -1.1094 -0.4939
14331TIP3   OH264483   1.673   2.127   6.041  0.5094 -0.1644  0.3827
14331TIP3    H164484   1.735   2.193   6.074  1.6776 -1.1383  0.2303
14331TIP3    H264485   1.646   2.160   5.956 -0.6635  1.1968  1.2511
14332TIP3   OH264486   1.936   1.812  15.680 -0.6341  0.1546 -0.3155
14332TIP3    H164487   1.985   1.755  15.621 -1.6800 -1.3351  0.2049
14332TIP3    H264488   2.002   1.852  15.736  0.0619 -1.2974 -0.0621
14333TIP3   OH264489   5.038   2.563   0.986  0.2281 -0.2988 -0.1086
14333TIP3    H164490   4.980   2.489   0.967  0.6253 -0.1774 -2.0293
14333TIP3    H264491   4.990   2.640   0.955  0.6548  0.0094 -0.0186
14334TIP3   OH264492   5.996   1.798   3.680  0.1185  0.1584 -0.0368
14334TIP3    H164493   5.947   1.798   3.762  1.6309  0.0660  0.9005
14334TIP3    H264494   5.971   1.716   3.637 -0.3252 -0.0186  0.5424
14335TIP3   OH264495   3.138   5.336   5.394 -0.2020  0.0615 -0.0126
14335TIP3    H164496   3.065   5.384   5.433  0.7702 -0.0806  2.1746
14335TIP3    H264497   3.186   5.401   5.344 -1.8536  0.1245 -1.6276
14336TIP3   OH264498   5.668   0.465   6.036  0.4874 -0.5285 -0.2852
14336TIP3    H164499   5.645   0.373   6.034  0.6248 -0.5662 -0.1076
14336TIP3    H264500   5.762   0.468   6.016  1.2390 -0.6853  2.6526
14337TIP3   OH264501   2.395   1.979   2.915 -0.2008 -0.0286 -0.1245
14337TIP3    H164502   2.459   1.981   2.987 -0.4825  1.3764  0.1137
14337TIP3    H264503   2.322   1.927   2.950  0.3410 -0.7161  0.0038
14338TIP3   OH264504   0.767   3.649  15.041 -0.0933  0.2003 -0.7445
14338TIP3    H164505   0.787   3.738  15.069 -0.0050 -0.2768  0.7784
14338TIP3    H264506   0.851   3.603  15.047 -0.5716 -0.5416  0.7435
14339TIP3   OH264507   5.949   0.425  14.991 -0.1333 -0.0774  0.0117
14339TIP3    H164508   5.985   0.364  14.926 -0.7458  0.0027 -0.4178
14339TIP3    H264509   5.896   0.370  15.049  0.4062 -0.1474  0.4446
14340TIP3   OH264510   1.264   5.411  17.105 -0.3435 -0.2124  0.4317
14340TIP3    H164511   1.236   5.492  17.147 -0.4465 -0.4265  0.7802
14340TIP3    H264512   1.245   5.425  17.012 -2.7007 -0.7650  0.7618
14341TIP3   OH264513   4.465   3.993  15.625  0.0088  0.1162 -0.1928
14341TIP3    H164514   4.448   4.087  15.616 -1.0404  0.2183  2.2724
14341TIP3    H264515   4.395   3.951  15.575 -1.5363  0.6672  1.4019
14342TIP3   OH264516   2.766   3.852  12.366  0.0077 -0.2955 -1.0883
14342TIP3    H164517   2.720   3.780  12.408  0.1150  0.4596  0.3991
14342TIP3    H264518   2.806   3.900  12.439  0.6524  0.7649 -2.1114
14343TIP3   OH264519   2.653   6.712  17.144 -0.8050 -0.5537  0.1013
14343TIP3    H164520   2.610   6.788  17.104  0.6837 -0.4908 -1.5083
14343TIP3    H264521   2.672   6.654  17.070  0.3193 -1.3510  0.9840
14344TIP3   OH264522   4.642   4.250  13.241 -0.5285  0.7468 -0.3279
14344TIP3    H164523   4.666   4.278  13.152  1.4010 -0.3619 -0.2110
14344TIP3    H264524   4.723   4.256  13.291 -1.3922  0.5361  1.1695
14345TIP3   OH264525   4.794   5.891  12.424 -0.2759 -0.0561  0.3296
14345TIP3    H164526   4.765   5.960  12.364 -0.2597 -0.0046  0.3812
14345TIP3    H264527   4.889   5.892  12.418 -0.3078 -1.0129 -0.7321
14346TIP3   OH264528   2.008   4.692   5.122 -0.0713  0.0942  0.2045
14346TIP3    H164529   2.031   4.666   5.033 -0.1468  0.4533  0.0778
14346TIP3    H264530   2.012   4.611   5.173 -0.5430 -0.2087 -0.2326
14347TIP3   OH264531   3.681   2.396  17.194  0.0251  0.5894 -0.3097
14347TIP3    H164532   3.636   2.355  17.268 -0.3542  0.7177 -0.4662
14347TIP3    H264533   3.762   2.345  17.184 -1.3155 -1.4295 -1.7546
14348TIP3   OH264534   6.663   4.561   1.055 -0.0112 -0.1812 -0.3510
14348TIP3    H164535   6.749   4.602   1.048  0.1540 -0.5432 -0.4485
14348TIP3    H264536   6.601   4.633   1.039  0.2353  0.3491  0.8988
14349TIP3   OH264537   5.776   1.698  10.969 -0.1313 -0.2582  0.4037
14349TIP3    H164538   5.819   1.732  10.890 -0.1253  0.4565  0.6994
14349TIP3    H264539   5.690   1.669  10.940 -0.2666  0.3433  0.1940
14350TIP3   OH264540   3.999   5.671  16.837 -0.1768 -0.4361 -0.1443
14350TIP3    H164541   3.991   5.763  16.811  0.3662 -0.0360  1.0191
14350TIP3    H264542   3.920   5.630  16.802 -1.1331  0.7766  0.4863
14351TIP3   OH264543   3.906   2.673   0.725 -0.0394  0.1208  0.1537
14351TIP3    H164544   3.957   2.696   0.802  0.9334 -0.8345 -0.1796
14351TIP3    H264545   3.901   2.753   0.673  1.3553  0.1678  0.0722
14352TIP3   OH264546   3.608   1.006   1.354 -0.3957  0.2187 -0.3102
14352TIP3    H164547   3.591   0.920   1.392 -2.3360  0.9406  0.5832
14352TIP3    H264548   3.522   1.048   1.350  0.5292  2.2215 -0.4615
14353TIP3   OH264549   1.765   2.745   5.338 -0.1522 -1.1198 -0.3733
14353TIP3    H164550   1.848   2.698   5.321 -0.2211 -1.8425  1.1259
14353TIP3    H264551   1.718   2.688   5.399 -0.8916  0.2343  0.3547
14354TIP3   OH264552   3.672   5.367  12.956 -0.1467 -0.0555  0.3865
14354TIP3    H164553   3.615   5.411  12.893  0.1630  0.6228  0.5721
14354TIP3    H264554   3.638   5.277  12.960  1.6907 -1.0915 -3.0960
14355TIP3   OH264555   3.325   0.188  13.777  0.5005  0.3020 -0.2342
14355TIP3    H164556   3.276   0.160  13.700 -0.0704  1.2207 -0.2304
14355TIP3    H264557   3.417   0.185  13.750  0.2801  1.1695 -1.1543
14356TIP3   OH264558   1.869   4.762  11.160  0.1229 -0.3649 -0.4273
14356TIP3    H164559   1.833   4.674  11.155 -1.7956  0.3356  0.2501
14356TIP3    H264560   1.883   4.788  11.069  2.0552 -1.8311 -0.6197
14357TIP3   OH264561   6.191   1.295  10.745  0.3065  0.3461  0.4166
14357TIP3    H164562   6.115   1.342  10.711  0.3929  0.2368  0.0697
14357TIP3    H264563   6.164   1.203  10.745  0.8058  0.1828 -0.7191
14358TIP3   OH264564   6.343   2.376  15.596  0.4194  0.4936  0.1519
14358TIP3    H164565   6.429   2.336  15.583 -0.1972 -0.8102 -0.0673
14358TIP3    H264566   6.318   2.352  15.685 -0.3541 -0.4467 -0.2921
14359TIP3   OH264567   4.593   2.708   3.901 -0.2336 -0.8809  0.6334
14359TIP3    H164568   4.585   2.799   3.931 -1.3528 -0.5368 -0.5918
14359TIP3    H264569   4.522   2.662   3.945 -1.0360 -0.6639 -0.3929
14360TIP3   OH264570   1.108   5.513  16.607  0.1018  0.3417  0.3258
14360TIP3    H164571   1.090   5.600  16.571  0.1442 -0.3964 -1.5961
14360TIP3    H264572   1.130   5.459  16.531  0.3018 -1.3065  1.4865
14361TIP3   OH264573   5.290   3.562  11.910  0.1796  0.1550 -0.5635
14361TIP3    H164574   5.254   3.603  11.831 -1.0368  0.4190  0.1057
14361TIP3    H264575   5.384   3.581  11.906 -0.0456  1.2129 -1.3302
14362TIP3   OH264576   2.309   2.688   0.602  0.1498 -0.7201  0.3477
14362TIP3    H164577   2.312   2.783   0.591  1.3082 -0.9332 -1.7081
14362TIP3    H264578   2.400   2.663   0.617  0.1819 -1.6595 -1.1726
14363TIP3   OH264579   1.041   4.328  13.859 -0.1929 -0.2694 -0.1411
14363TIP3    H164580   0.957   4.291  13.884 -1.5103  2.7435  0.3530
14363TIP3    H264581   1.036   4.338  13.764 -0.3624 -0.1877 -0.1246
14364TIP3   OH264582   3.970   4.368  13.027 -0.3135 -0.1750  0.1943
14364TIP3    H164583   3.966   4.332  13.116 -0.5907  1.6377  0.9603
14364TIP3    H264584   3.963   4.292  12.970  3.0235 -1.7794  1.6503
14365TIP3   OH264585   5.675   2.192  14.301 -0.1883  0.9029 -0.3935
14365TIP3    H164586   5.752   2.136  14.301  0.3433  1.6185 -0.8406
14365TIP3    H264587   5.708   2.278  14.328 -1.3498  0.5689  2.5290
14366TIP3   OH264588   3.666   5.682   5.872 -0.4455 -0.5184  0.3078
14366TIP3    H164589   3.586   5.696   5.922 -0.5277 -0.1765  0.0832
14366TIP3    H264590   3.653   5.597   5.830  0.0933 -1.3536  1.7488
14367TIP3   OH264591   0.495   3.015   0.660  0.0040 -0.3626 -0.1028
14367TIP3    H164592   0.544   3.094   0.637  0.7735 -1.2185 -1.5226
14367TIP3    H264593   0.559   2.957   0.701 -0.6578 -0.0987  1.3469
14368TIP3   OH264594   6.590   0.417   0.973 -0.4591 -0.6705 -0.2586
14368TIP3    H164595   6.683   0.440   0.979 -0.5426 -0.0769 -0.9585
14368TIP3    H264596   6.563   0.399   1.063  0.3295 -0.8183 -0.0472
14369TIP3   OH264597   1.576   3.426  15.176 -0.1589  0.0170 -0.3393
14369TIP3    H164598   1.580   3.503  15.120  0.6417  0.6316  0.5417
14369TIP3    H264599   1.569   3.461  15.265  1.0852 -0.9027  0.1397
14370TIP3   OH264600   6.386   2.338   2.276  0.2366 -0.0679 -0.5344
14370TIP3    H164601   6.310   2.395   2.280 -0.1112 -0.6213  2.6096
14370TIP3    H264602   6.361   2.258   2.322  2.5707 -0.4209  0.2975
14371TIP3   OH264603   5.942   4.689   3.854 -0.4772 -0.4043 -0.0245
14371TIP3    H164604   6.011   4.735   3.808 -0.9704  0.5113  0.1299
14371TIP3    H264605   5.972   4.685   3.945 -0.8032  0.3550  0.1214
14372TIP3   OH264606   5.984   5.062   5.572 -0.5938 -0.1369  0.9854
14372TIP3    H164607   5.991   5.151   5.606  1.0235 -0.6859  2.1858
14372TIP3    H264608   5.906   5.026   5.615 -2.3264  1.1874 -0.8345
14373TIP3   OH264609   4.138   2.107   1.858  0.4302  0.2771 -0.1158
14373TIP3    H164610   4.191   2.064   1.925  0.3739 -2.1474 -1.4901
14373TIP3    H264611   4.052   2.119   1.899  0.9197  0.6002  0.8408
14374TIP3   OH264612   6.427   4.275   4.136  0.2871  0.0614 -0.0830
14374TIP3    H164613   6.350   4.255   4.082 -0.9148  2.1941  0.7072
14374TIP3    H264614   6.421   4.370   4.151  3.4887  0.4368 -0.5571
14375TIP3   OH264615   0.823   3.375  15.591  0.1520 -0.4606 -0.0567
14375TIP3    H164616   0.911   3.336  15.598  0.4597  0.3842  1.0424
14375TIP3    H264617   0.813   3.391  15.497  0.3333 -2.4007 -0.4542
14376TIP3   OH264618   2.519   1.828   3.383  0.3975 -0.3818 -0.3085
14376TIP3    H164619   2.465   1.826   3.304  1.5305  0.4350 -1.1356
14376TIP3    H264620   2.527   1.736   3.409  0.0004 -0.6545 -1.1309
14377TIP3   OH264621   5.094   0.758   1.842  0.3161  0.6572  0.1857
14377TIP3    H164622   5.135   0.782   1.926  0.8318 -0.9556  0.4387
14377TIP3    H264623   5.167   0.743   1.783  0.0349 -0.0738  0.0055
14378TIP3   OH264624   6.310   4.000   4.027 -0.2684  0.2643  0.5565
14378TIP3    H164625   6.276   4.060   4.094 -1.0177 -1.2040  1.5652
14378TIP3    H264626   6.249   3.926   4.029  0.8208 -0.6851 -0.3791
14379TIP3   OH264627   6.740   4.370   0.620  1.0401  0.0662  0.1282
14379TIP3    H164628   6.812   4.340   0.564  0.3181  1.0143 -1.3839
14379TIP3    H264629   6.661   4.356   0.567  0.1742 -0.2890  1.4705
14380TIP3   OH264630   0.941   1.555  12.181  0.2082 -0.3221 -0.3787
14380TIP3    H164631   1.006   1.547  12.110  0.6657  0.4211 -0.0588
14380TIP3    H264632   0.982   1.512  12.256 -0.7360 -2.0988 -0.8312
14381TIP3   OH264633   6.283   4.982  10.614  0.6804 -0.5927  0.0189
14381TIP3    H164634   6.286   4.924  10.538  0.4518 -0.3653 -0.1604
14381TIP3    H264635   6.232   5.057  10.586 -0.1240 -0.8886  0.6660
14382TIP3   OH264636   3.759   4.133   3.221  0.1006 -0.0510  0.1317
14382TIP3    H164637   3.664   4.133   3.208 -0.0700  0.4096  1.2493
14382TIP3    H264638   3.796   4.124   3.133 -0.9639  1.3824 -0.4834
14383TIP3   OH264639   0.598   5.158   4.870  0.2290 -0.7109  0.1023
14383TIP3    H164640   0.511   5.189   4.845  1.4405  0.5573 -2.9644
14383TIP3    H264641   0.642   5.137   4.788  3.0386 -0.7064  1.4595
14384TIP3   OH264642   6.176   2.582  14.757 -0.3743  0.6156  0.4198
14384TIP3    H164643   6.081   2.583  14.770 -0.4852 -1.6481  0.1906
14384TIP3    H264644   6.212   2.588  14.846 -0.8832 -2.2417  0.9321
14385TIP3   OH264645   5.757   1.412   2.615  0.2268  0.3122 -0.3352
14385TIP3    H164646   5.826   1.423   2.681  2.1834  0.9966 -2.3603
14385TIP3    H264647   5.688   1.472   2.642  0.8118  0.3496  1.2204
14386TIP3   OH264648   2.378   1.064  13.601 -0.1006  0.0295 -0.1555
14386TIP3    H164649   2.440   1.110  13.544 -0.3689 -1.2651 -1.5524
14386TIP3    H264650   2.300   1.119  13.602  0.4515  0.8361  0.2699
14387TIP3   OH264651   3.586   5.243  16.736 -0.4040  0.2811  0.1145
14387TIP3    H164652   3.574   5.200  16.651  2.6648 -0.7117  0.0680
14387TIP3    H264653   3.631   5.325  16.715  1.4708 -0.5278  0.8095
14388TIP3   OH264654   3.429   2.511   5.515 -0.2924  0.1387 -0.1457
14388TIP3    H164655   3.482   2.591   5.521  1.4955 -1.1243  2.6974
14388TIP3    H264656   3.340   2.540   5.534  0.6733  1.2555  3.4149
14389TIP3   OH264657   0.253   2.731  15.143  0.3668  0.4973 -0.2284
14389TIP3    H164658   0.165   2.695  15.155  1.1185 -1.4098 -0.0863
14389TIP3    H264659   0.247   2.821  15.176 -0.7114 -0.6181  3.0074
14390TIP3   OH264660   3.636   0.509  13.632 -1.2869  0.2649  0.2932
14390TIP3    H164661   3.708   0.569  13.654  0.1727 -1.3520  0.1078
14390TIP3    H264662   3.601   0.543  13.549  1.4300 -0.6827 -1.3766
14391TIP3   OH264663   2.259   6.718   1.972 -0.3460 -0.2412 -0.6906
14391TIP3    H164664   2.297   6.804   1.952  0.3856 -0.2822  0.4789
14391TIP3    H264665   2.318   6.655   1.929 -1.0367 -0.1812 -1.7886
14392TIP3   OH264666   0.294   6.243  16.644 -0.1603  0.2165 -0.3846
14392TIP3    H164667   0.380   6.255  16.684 -0.1474  0.2911 -0.4318
14392TIP3    H264668   0.251   6.328  16.655 -1.1676 -0.5273  1.8372
14393TIP3   OH264669   0.219   4.275  13.749  0.5409 -0.1938 -0.0053
14393TIP3    H164670   0.293   4.284  13.809  0.8277 -0.9671 -0.2239
14393TIP3    H264671   0.184   4.188  13.768  1.2868 -0.8985 -1.6403
14394TIP3   OH264672   3.699   5.593  11.110 -0.4849  0.2222 -0.1683
14394TIP3    H164673   3.697   5.689  11.119 -2.2203  0.3317 -1.1994
14394TIP3    H264674   3.670   5.561  11.195 -0.3035  0.6177  0.0499
14395TIP3   OH264675   0.638   6.281   1.651 -0.7960 -0.1583 -0.1567
14395TIP3    H164676   0.626   6.369   1.687 -1.5988  0.2951 -1.4368
14395TIP3    H264677   0.573   6.276   1.581  0.1279 -1.3039 -0.9527
14396TIP3   OH264678   1.447   5.306   0.845  0.0197  0.4478 -0.3610
14396TIP3    H164679   1.446   5.211   0.858 -1.9054  0.0984 -2.3696
14396TIP3    H264680   1.368   5.337   0.888 -0.9559  0.6487 -2.1777
14397TIP3   OH264681   6.101   2.626   4.868 -0.0121  0.1245 -0.2439
14397TIP3    H164682   6.165   2.578   4.919 -0.2589  0.2990  0.2409
14397TIP3    H264683   6.022   2.625   4.922 -1.2544 -2.3090 -1.9183
14398TIP3   OH264684   6.306   3.064   4.490  0.4200  0.0594  0.1312
14398TIP3    H164685   6.375   3.111   4.443  0.8039 -0.0618  0.5636
14398TIP3    H264686   6.331   2.972   4.486 -0.2346 -0.0955 -0.5516
14399TIP3   OH264687   3.619   3.250  12.411  0.0038 -0.7007 -0.5865
14399TIP3    H164688   3.682   3.316  12.382 -1.1435  1.0392  0.7134
14399TIP3    H264689   3.673   3.179  12.446  1.2733 -0.5520 -2.1158
14400TIP3   OH264690   5.604   4.664  12.217 -0.1530  0.4049 -0.0652
14400TIP3    H164691   5.653   4.677  12.135  0.6353  0.5463  0.4198
14400TIP3    H264692   5.643   4.585  12.255  0.2553  0.9838  0.7275
14401TIP3   OH264693   1.947   3.377  14.352  0.0329  0.0636 -0.0935
14401TIP3    H164694   1.872   3.326  14.320  0.9990  0.2850 -2.9875
14401TIP3    H264695   1.918   3.468  14.348 -0.1173  0.0466  0.5144
14402TIP3   OH264696   3.310   3.730  14.894 -0.1775  0.2126  0.4252
14402TIP3    H164697   3.317   3.813  14.847  0.2418 -0.1842 -0.2301
14402TIP3    H264698   3.345   3.749  14.981 -0.8142  0.9151  0.5455
14403TIP3   OH264699   0.778   3.906  11.587  0.6531 -0.6684  0.5345
14403TIP3    H164700   0.689   3.895  11.619  0.3644  0.8196  0.3106
14403TIP3    H264701   0.769   3.903  11.492  0.7885 -0.1709  0.5056
14404TIP3   OH264702   6.752   0.482   3.424 -0.0955  0.7577  0.2675
14404TIP3    H164703   6.700   0.413   3.464  0.5493  1.1720  1.8819
14404TIP3    H264704   6.801   0.438   3.354  0.2830 -0.4122  1.2424
14405TIP3   OH264705   5.270   5.295  13.257  0.2085 -0.0742  0.2461
14405TIP3    H164706   5.218   5.374  13.274  0.1188 -0.3273  1.1677
14405TIP3    H264707   5.357   5.315  13.290  0.1700 -0.3830  0.5375
14406TIP3   OH264708   2.260   4.212   2.573  0.3832  0.4525 -0.4774
14406TIP3    H164709   2.317   4.251   2.506  0.0568  0.6273 -0.6582
14406TIP3    H264710   2.317   4.155   2.623  0.8676  1.1406 -0.2252
14407TIP3   OH264711   0.123   3.503  12.230 -0.0931  0.0141 -0.5732
14407TIP3    H164712   0.138   3.414  12.263 -1.3760  0.3824  1.1054
14407TIP3    H264713   0.029   3.518  12.240 -0.0652  1.2238 -1.7661
14408TIP3   OH264714   3.041   5.916   5.425 -0.2641 -0.1446 -0.0691
14408TIP3    H164715   2.950   5.920   5.454 -0.2122  0.9290  0.0024
14408TIP3    H264716   3.049   5.987   5.361  0.5123 -0.2423 -0.0873
14409TIP3   OH264717   2.114   1.609   0.312 -0.1966  0.5856  0.2280
14409TIP3    H164718   2.105   1.701   0.337 -0.0573  0.2143  1.7173
14409TIP3    H264719   2.028   1.587   0.275 -0.7902  0.8838  1.3773
14410TIP3   OH264720   4.212   2.379  14.955 -0.1522 -0.4069 -0.0698
14410TIP3    H164721   4.249   2.316  14.893 -1.8213  0.1319 -1.6849
14410TIP3    H264722   4.143   2.330  15.000  0.0837 -0.3790  0.3253
14411TIP3   OH264723   2.474   0.483  10.453 -0.0765  0.2531  0.5239
14411TIP3    H164724   2.408   0.546  10.423 -0.2634  0.1044  0.6272
14411TIP3    H264725   2.451   0.465  10.544  1.0587  1.4447  1.0802
14412TIP3   OH264726   1.565   3.838   3.412  0.5252  0.7022 -0.0611
14412TIP3    H164727   1.654   3.862   3.386 -0.1846  3.0013 -0.6449
14412TIP3    H264728   1.570   3.745   3.430  3.0400  0.7392 -0.1188
14413TIP3   OH264729   0.426   3.202   3.342  0.0017 -0.2390 -0.2162
14413TIP3    H164730   0.435   3.263   3.269  0.0018  1.2297  0.9691
14413TIP3    H264731   0.400   3.119   3.301 -1.2588  0.8582 -1.7716
14414TIP3   OH264732   2.139   6.660  14.657  0.3805  0.5334 -0.2230
14414TIP3    H164733   2.186   6.678  14.738  1.7075  0.2432 -0.9087
14414TIP3    H264734   2.111   6.746  14.625 -1.7628  0.5373  1.4340
14415TIP3   OH264735   6.289   5.728  11.306 -0.2274  0.2262  0.1395
14415TIP3    H164736   6.264   5.782  11.381 -0.9484 -0.2790  0.2678
14415TIP3    H264737   6.210   5.723  11.252 -0.0076 -0.2390 -0.1459
14416TIP3   OH264738   6.024   6.218   1.541  0.4797 -0.6350  0.4606
14416TIP3    H164739   6.089   6.265   1.592 -0.1321  1.1263 -0.3282
14416TIP3    H264740   5.957   6.193   1.604  0.5862 -0.0253  0.8172
14417TIP3   OH264741   2.316   0.625   6.055 -0.4671  0.7504 -0.2975
14417TIP3    H164742   2.260   0.683   6.107  2.2038  1.5059  1.9387
14417TIP3    H264743   2.346   0.559   6.117 -2.0935 -2.2545 -2.4004
14418TIP3   OH264744   2.948   5.624  11.750 -0.3714  0.9659 -0.2568
14418TIP3    H164745   2.878   5.607  11.814 -1.1878 -0.0587 -1.3767
14418TIP3    H264746   2.963   5.719  11.756 -1.2804  1.0741  0.5848
14419TIP3   OH264747   1.278   3.044   6.121 -0.0781  0.0799  0.1048
14419TIP3    H164748   1.203   3.085   6.163  0.3273  1.3117 -0.3294
14419TIP3    H264749   1.298   3.100   6.047  2.0348  0.4920  0.9169
14420TIP3   OH264750   1.694   4.652   1.638  0.0261  0.0085 -0.4350
14420TIP3    H164751   1.638   4.701   1.698 -0.0090  1.6268 -1.7091
14420TIP3    H264752   1.721   4.717   1.572  2.6561 -0.9221 -0.3869
14421TIP3   OH264753   4.446   3.423   0.586 -0.2945 -0.2448  0.4985
14421TIP3    H164754   4.389   3.347   0.594  0.6283 -0.8043  2.2413
14421TIP3    H264755   4.390   3.498   0.608 -0.7877 -0.5957  0.4535
14422TIP3   OH264756   2.358   0.166  11.848 -0.2245  0.2823  0.4907
14422TIP3    H164757   2.345   0.093  11.909 -1.7494  0.3743  0.3173
14422TIP3    H264758   2.326   0.134  11.764 -1.6731  1.3827  0.5842
14423TIP3   OH264759   1.178   0.601  14.673 -0.5721  0.7468  0.5673
14423TIP3    H164760   1.191   0.685  14.630  0.9161  0.5492  0.5602
14423TIP3    H264761   1.221   0.538  14.615 -0.2102  0.2257  1.3774
14424TIP3   OH264762   5.559   4.516   5.320 -0.1576 -0.2399 -0.0850
14424TIP3    H164763   5.638   4.471   5.289 -1.0387 -0.4669 -2.1978
14424TIP3    H264764   5.551   4.593   5.263 -2.3136 -1.0985 -1.0419
14425TIP3   OH264765   6.661   6.473   5.394  0.3545  0.2706 -0.3275
14425TIP3    H164766   6.664   6.377   5.391 -0.2399  0.2272  0.2500
14425TIP3    H264767   6.645   6.494   5.486  1.1934  0.9539 -0.3275
14426TIP3   OH264768   6.501   0.129  14.650 -0.1654  0.5160  0.4761
14426TIP3    H164769   6.436   0.060  14.655 -1.1416  1.3808  0.1581
14426TIP3    H264770   6.562   0.100  14.581 -1.9858  1.0816 -1.4931
14427TIP3   OH264771   1.768   0.391   4.434  0.0954 -0.0129 -0.4537
14427TIP3    H164772   1.839   0.413   4.374  2.0199 -0.1273  1.6389
14427TIP3    H264773   1.788   0.301   4.463 -1.6858 -0.5775 -0.8294
14428TIP3   OH264774   2.831   0.549  11.825 -0.3490  0.2195  0.6468
14428TIP3    H164775   2.858   0.609  11.755  4.1958 -1.9291  0.2382
14428TIP3    H264776   2.764   0.494  11.785  1.3079 -0.2079 -1.7301
14429TIP3   OH264777   6.702   1.644   4.841  0.0566  0.0480  0.0029
14429TIP3    H164778   6.676   1.654   4.932  0.9201 -2.2171  0.5528
14429TIP3    H264779   6.702   1.734   4.806 -1.2087  0.8587  1.9344
14430TIP3   OH264780   3.549   2.078   2.084 -0.3090  0.5734  0.2219
14430TIP3    H164781   3.472   2.081   2.028  0.4842 -0.2366 -0.9775
14430TIP3    H264782   3.622   2.093   2.024  0.5536 -0.0087  1.0908
14431TIP3   OH264783   4.776   4.534  15.493 -0.4380 -0.5150 -0.0405
14431TIP3    H164784   4.791   4.622  15.527 -0.1987 -0.3505 -0.5620
14431TIP3    H264785   4.860   4.509  15.454 -0.8545 -0.4771 -1.0003
14432TIP3   OH264786   4.918   4.951  11.747 -0.4815  0.3964 -0.2550
14432TIP3    H164787   4.965   4.870  11.766 -1.9883 -0.3065  0.6151
14432TIP3    H264788   4.986   5.012  11.718  0.5696 -1.4669 -1.9453
14433TIP3   OH264789   4.725   3.278  11.431 -0.0037 -0.1142  0.0466
14433TIP3    H164790   4.778   3.345  11.474  0.9048  0.9612 -2.5221
14433TIP3    H264791   4.780   3.249  11.358 -2.1408 -0.4807 -1.4884
14434TIP3   OH264792   3.131   0.606   2.848  0.2468 -0.6467  0.8200
14434TIP3    H164793   3.072   0.546   2.802  0.8854 -0.8330  0.2052
14434TIP3    H264794   3.189   0.549   2.899  1.1639 -0.6160 -0.1364
14435TIP3   OH264795   0.143   0.865   3.937  0.1156  0.3357  0.5424
14435TIP3    H164796   0.159   0.925   3.865 -3.3698  0.1440 -0.5666
14435TIP3    H264797   0.048   0.870   3.952  0.0586 -2.9276  2.1471
14436TIP3   OH264798   6.449   3.278   3.793  0.0043 -0.5492 -0.2626
14436TIP3    H164799   6.437   3.347   3.728 -1.5166 -1.0722 -0.5792
14436TIP3    H264800   6.479   3.324   3.872 -1.9761  0.6595 -0.1438
14437TIP3   OH264801   2.537   1.724   0.599  0.1035  0.9099  0.5744
14437TIP3    H164802   2.575   1.781   0.666  1.3665  0.8585 -0.0797
14437TIP3    H264803   2.536   1.637   0.639  0.7344  0.9039  0.5885
14438TIP3   OH264804   0.766   0.751   1.699  0.4306  0.1271  0.1379
14438TIP3    H164805   0.856   0.765   1.671  1.0426 -2.1496  0.7856
14438TIP3    H264806   0.719   0.729   1.618  0.6726  0.2687 -0.0431
14439TIP3   OH264807   5.564   0.172   6.654  0.1773 -0.6734 -0.2403
14439TIP3    H164808   5.556   0.268   6.654 -0.7872 -0.6584 -2.6979
14439TIP3    H264809   5.478   0.141   6.682 -0.7838 -0.7099 -2.9264
14440TIP3   OH264810   3.130   2.128   5.180 -0.3673  0.2957  0.0720
14440TIP3    H164811   3.150   2.188   5.252  1.5544  0.9421 -0.9118
14440TIP3    H264812   3.180   2.163   5.106  0.8878 -2.4965 -0.5434
14441TIP3   OH264813   4.754   1.891  12.727 -0.3496  0.6493  0.1832
14441TIP3    H164814   4.680   1.876  12.668  0.2007 -0.6272 -0.2353
14441TIP3    H264815   4.817   1.940  12.674 -0.8024  1.5864  0.4854
14442TIP3   OH264816   4.866   3.713   1.571  0.1979 -0.0790 -0.6968
14442TIP3    H164817   4.784   3.686   1.531 -0.2135 -1.8285  1.1092
14442TIP3    H264818   4.841   3.746   1.657  1.3962 -1.9221  0.4518
14443TIP3   OH264819   1.666   3.800   2.372 -0.0399 -0.1811 -0.6314
14443TIP3    H164820   1.742   3.819   2.426  0.0658  0.7340 -1.0735
14443TIP3    H264821   1.592   3.838   2.420 -0.5316 -2.6619  0.7081
14444TIP3   OH264822   5.815   6.569   2.478  0.3204 -0.0559  0.3199
14444TIP3    H164823   5.907   6.563   2.451  0.9333 -0.0614  2.2789
14444TIP3    H264824   5.800   6.492   2.532 -0.5161  0.4946  0.9009
14445TIP3   OH264825   5.961   1.689  11.620  0.2871  0.2496 -0.6113
14445TIP3    H164826   5.918   1.657  11.700  1.4213  0.7781  0.2350
14445TIP3    H264827   6.039   1.735  11.651  1.9174 -1.3433 -2.1351
14446TIP3   OH264828   5.980   5.107  15.647  0.5321  0.4073 -0.5302
14446TIP3    H164829   5.885   5.107  15.658  0.5106  1.9957 -0.4813
14446TIP3    H264830   5.994   5.138  15.558  1.0044 -0.5226 -0.7940
14447TIP3   OH264831   6.397   4.799   6.501 -0.0307 -0.7373  0.0200
14447TIP3    H164832   6.482   4.764   6.477  0.1321 -0.1211 -0.3299
14447TIP3    H264833   6.416   4.880   6.547 -0.4326 -0.4300 -0.3421
14448TIP3   OH264834   0.524   0.137   0.528  0.4202 -0.6981  0.1196
14448TIP3    H164835   0.599   0.176   0.484 -0.7970  1.8045  0.0987
14448TIP3    H264836   0.562   0.088   0.601  2.1515 -1.0342 -0.9395
14449TIP3   OH264837   1.505   4.964   0.145  0.3156  0.3969 -0.2476
14449TIP3    H164838   1.428   4.997   0.191 -0.2549 -2.0361  0.7123
14449TIP3    H264839   1.478   4.879   0.110  1.8611  0.5528 -1.9990
14450TIP3   OH264840   6.222   5.316  12.475 -0.3628  0.4467  0.1791
14450TIP3    H164841   6.191   5.231  12.504 -0.7050  0.9857  1.4844
14450TIP3    H264842   6.200   5.375  12.547 -0.8980  1.8026 -1.0477
14451TIP3   OH264843   5.055   5.594   0.449 -0.1720 -0.7669  0.0152
14451TIP3    H164844   4.983   5.622   0.392  0.4128 -2.1409 -1.5023
14451TIP3    H264845   5.014   5.532   0.510 -1.0771  1.7088  2.1160
14452TIP3   OH264846   0.725   5.754  11.952  0.3209 -0.2709 -0.2988
14452TIP3    H164847   0.764   5.742  12.038 -2.5275 -0.0721  1.1372
14452TIP3    H264848   0.687   5.668  11.930  1.2691 -0.4063 -1.5378
14453TIP3   OH264849   1.169   0.766   2.256 -0.5193 -0.1024  0.3128
14453TIP3    H164850   1.099   0.787   2.317  1.3302  0.6072  2.3430
14453TIP3    H264851   1.168   0.838   2.193  0.1561  1.4965  2.0293
14454TIP3   OH264852   1.631   6.761   4.675  0.7748 -0.6722 -0.4138
14454TIP3    H164853   1.667   6.727   4.593  0.8069  0.1726 -0.7523
14454TIP3    H264854   1.551   6.710   4.688  0.0660  0.0607 -1.6578
14455TIP3   OH264855   4.551   4.855   4.431 -0.5983  0.2742 -0.4806
14455TIP3    H164856   4.493   4.928   4.451  1.0639  1.2348  1.0541
14455TIP3    H264857   4.598   4.883   4.352 -1.7844 -0.2886 -1.4215
14456TIP3   OH264858   5.299   6.299  11.574  0.4915 -0.5163 -1.1405
14456TIP3    H164859   5.240   6.224  11.579  0.3900 -0.3859 -0.2242
14456TIP3    H264860   5.281   6.338  11.488 -0.9360 -0.3299 -0.7738
14457TIP3   OH264861   6.272   0.577   4.058  1.0335 -0.1210 -0.2908
14457TIP3    H164862   6.284   0.532   3.975 -1.4482  0.0987 -0.8448
14457TIP3    H264863   6.182   0.558   4.083  0.8749  1.9923  1.0286
14458TIP3   OH264864   5.161   6.100   4.516 -0.1641 -0.5799 -0.4053
14458TIP3    H164865   5.186   6.158   4.445 -0.1066  0.5993  0.5543
14458TIP3    H264866   5.066   6.112   4.525 -0.0084  0.0716  0.4002
14459TIP3   OH264867   4.456   2.460   4.290 -0.4346  0.2417 -0.0851
14459TIP3    H164868   4.489   2.542   4.327  0.7225 -0.3257  0.1877
14459TIP3    H264869   4.392   2.428   4.353  1.1580 -0.4693  1.2521
14460TIP3   OH264870   4.876   6.294   1.773  0.0800  0.6569 -0.0821
14460TIP3    H164871   4.878   6.331   1.861  1.4213 -0.9084  0.5946
14460TIP3    H264872   4.791   6.321   1.738  0.0205  2.3331  1.2079
14461TIP3   OH264873   4.700   5.768  16.185  0.1750  0.4857 -0.0327
14461TIP3    H164874   4.762   5.838  16.167  0.8685 -0.3702 -1.0739
14461TIP3    H264875   4.743   5.714  16.251  1.2812 -0.9683 -1.8486
14462TIP3   OH264876   4.776   2.505   0.615 -0.5875 -0.1425  0.3730
14462TIP3    H164877   4.780   2.415   0.584 -0.1928 -0.4797  1.3630
14462TIP3    H264878   4.754   2.498   0.708 -0.1982  0.7690  0.5484
14463TIP3   OH264879   1.581   4.917   4.538  0.3134  0.5547 -0.1177
14463TIP3    H164880   1.561   4.926   4.445 -0.6009 -0.6571 -0.0620
14463TIP3    H264881   1.611   4.826   4.547 -0.9626  0.2157  0.9889
14464TIP3   OH264882   5.639   0.054   5.805  0.1304 -0.8922  0.5144
14464TIP3    H164883   5.545   0.069   5.817 -0.3174 -0.4560 -2.5027
14464TIP3    H264884   5.673   0.039   5.893 -2.6960 -0.7418  1.7484
14465TIP3   OH264885   4.954   6.164   6.266 -0.2356  0.0612  0.0124
14465TIP3    H164886   5.032   6.209   6.298  0.0151 -0.8620  0.7317
14465TIP3    H264887   4.921   6.115   6.342  0.2224 -1.9725 -1.0240
14466TIP3   OH264888   3.949   1.129  13.114  0.0496 -0.3741  0.2084
14466TIP3    H164889   4.009   1.057  13.133  1.0015  0.1415 -0.7071
14466TIP3    H264890   3.893   1.096  13.044  1.2582  0.1265 -1.0517
14467TIP3   OH264891   0.929   1.812   2.103  0.0225  0.2143  0.0100
14467TIP3    H164892   0.899   1.845   2.018 -0.3918  1.0882  0.4876
14467TIP3    H264893   0.916   1.717   2.097 -0.5728  0.3312 -0.6744
14468TIP3   OH264894   0.493   4.464   3.855  0.5408  0.7254 -0.0505
14468TIP3    H164895   0.564   4.432   3.910  0.7273 -2.8076 -2.0506
14468TIP3    H264896   0.428   4.499   3.917  1.5200 -1.3045  2.2747
14469TIP3   OH264897   2.107   5.183  12.593 -0.5971  0.4465 -0.0262
14469TIP3    H164898   2.148   5.127  12.659 -0.7146  0.5783  0.1630
14469TIP3    H264899   2.019   5.198  12.627 -0.6234  0.6007 -0.1620
14470TIP3   OH264900   3.096   4.611   2.037 -0.2740  0.6572  0.0692
14470TIP3    H164901   3.132   4.522   2.030  0.1491  0.7459  0.9979
14470TIP3    H264902   3.163   4.661   2.083 -0.9149  1.2219  0.4190
14471TIP3   OH264903   0.749   4.265  15.014  0.2655  0.3267 -0.2890
14471TIP3    H164904   0.811   4.333  15.040 -0.1463  0.2277  1.0102
14471TIP3    H264905   0.730   4.283  14.922  0.4561  1.7371 -0.0623
14472TIP3   OH264906   0.480   5.500   1.159 -0.7046 -0.2157  0.2596
14472TIP3    H164907   0.480   5.490   1.255 -0.3096 -0.9713  0.1884
14472TIP3    H264908   0.448   5.415   1.127 -1.8011  0.3656 -0.2561
14473TIP3   OH264909   0.928   1.355   4.587 -0.2359  0.1012  0.1275
14473TIP3    H164910   0.977   1.302   4.650  0.3236  0.4034 -0.0496
14473TIP3    H264911   0.983   1.432   4.572 -1.5983  1.3730  1.3230
14474TIP3   OH264912   4.075   2.193   3.474 -0.2574 -0.2271  0.4118
14474TIP3    H164913   4.097   2.274   3.520  1.9146 -0.1977 -0.5380
14474TIP3    H264914   4.126   2.126   3.519  0.9555 -0.3886 -1.1070
14475TIP3   OH264915   3.321   2.257   5.038 -0.4741  0.4085  0.3685
14475TIP3    H164916   3.299   2.345   5.008  0.7139  0.3516 -0.7667
14475TIP3    H264917   3.386   2.271   5.108  0.3664  0.4293 -0.4021
14476TIP3   OH264918   0.112   2.019  17.049 -0.1612 -0.3113 -0.5205
14476TIP3    H164919   0.169   2.069  16.990 -0.7844 -2.0175 -2.6998
14476TIP3    H264920   0.023   2.046  17.026 -0.4008 -0.5653  0.0851
14477TIP3   OH264921   0.366   4.396  15.631 -0.2773 -0.6446  0.3218
14477TIP3    H164922   0.312   4.461  15.586 -1.7677 -2.9380 -1.4938
14477TIP3    H264923   0.394   4.439  15.712  0.2533  2.7513 -1.5037
14478TIP3   OH264924   3.855   6.333   2.900 -0.4045  0.6511  0.0134
14478TIP3    H164925   3.902   6.263   2.856 -2.2769 -0.4418 -0.3506
14478TIP3    H264926   3.857   6.406   2.839  1.2985  0.8647  0.2660
14479TIP3   OH264927   0.869   5.028  16.990 -0.0617  0.3686 -0.2587
14479TIP3    H164928   0.953   5.037  17.034  0.3143 -2.8145 -0.0980
14479TIP3    H264929   0.891   5.023  16.897  0.0158 -0.9064 -0.1862
14480TIP3   OH264930   1.321   2.391  16.264  0.1490  0.1097  0.1090
14480TIP3    H164931   1.318   2.485  16.249  1.3498  0.0550 -0.6434
14480TIP3    H264932   1.385   2.380  16.335  0.6811 -0.1784 -0.4011
14481TIP3   OH264933   2.884   2.227  16.642  0.3388 -0.4622 -0.1214
14481TIP3    H164934   2.971   2.251  16.672  0.4162  0.5325 -1.0709
14481TIP3    H264935   2.886   2.243  16.547 -0.9439 -0.1942 -0.1223
14482TIP3   OH264936   3.286   1.274   4.620 -0.0529 -0.3887  0.4035
14482TIP3    H164937   3.283   1.261   4.526 -1.8071  1.0976  0.2012
14482TIP3    H264938   3.291   1.369   4.631 -0.3697 -0.5090  1.7956
14483TIP3   OH264939   3.323   3.471   5.701 -0.2698 -0.1531 -0.1091
14483TIP3    H164940   3.280   3.424   5.772 -0.5216 -1.5388 -1.1248
14483TIP3    H264941   3.252   3.492   5.640  0.2954 -1.5822 -1.3257
14484TIP3   OH264942   5.189   1.919  16.018  0.0875  0.6496  0.1065
14484TIP3    H164943   5.258   1.877  16.069 -0.8583 -1.2734 -0.1176
14484TIP3    H264944   5.172   2.002  16.064  2.1288  0.9228  0.4569
14485TIP3   OH264945   6.523   3.765   6.440  0.6176  0.0992  0.2923
14485TIP3    H164946   6.506   3.672   6.424  0.1443  0.5662 -2.4363
14485TIP3    H264947   6.460   3.789   6.508  1.1822 -1.6714  1.5153
14486TIP3   OH264948   5.394   4.373   2.546 -0.3844  0.1391 -0.5025
14486TIP3    H164949   5.450   4.388   2.622 -1.5109 -0.3107  0.4360
14486TIP3    H264950   5.396   4.456   2.498 -0.4215  0.7463  0.5221
14487TIP3   OH264951   5.676   4.404  14.217 -0.0938  0.0456  0.0456
14487TIP3    H164952   5.751   4.453  14.184 -0.9988  0.0974 -2.1701
14487TIP3    H264953   5.702   4.312  14.211 -0.0310  0.0836 -0.3079
14488TIP3   OH264954   4.696   5.777   6.286  0.0021 -0.3270  0.1372
14488TIP3    H164955   4.636   5.706   6.307  0.0251  0.3193  2.6843
14488TIP3    H264956   4.639   5.851   6.266 -0.2634  0.7651  4.1884
14489TIP3   OH264957   0.889   4.656   1.585 -0.1322 -0.6184 -0.6384
14489TIP3    H164958   0.931   4.737   1.555  2.1560 -1.9009 -1.1008
14489TIP3    H264959   0.822   4.639   1.519  0.6519 -0.0941 -1.5980
14490TIP3   OH264960   0.209   1.709  11.910 -0.1498 -0.6930 -0.0924
14490TIP3    H164961   0.201   1.683  12.001  1.1090  2.7501  1.1641
14490TIP3    H264962   0.284   1.768  11.908 -1.3028  0.9119 -2.9245
14491TIP3   OH264963   1.816   6.162  16.730 -0.4346 -0.4237 -0.3324
14491TIP3    H164964   1.830   6.077  16.688 -0.6604 -1.2067  1.1093
14491TIP3    H264965   1.725   6.158  16.762  0.1443 -0.4566  1.4489
14492TIP3   OH264966   4.485   2.972  14.517 -0.4334  0.1462 -0.2117
14492TIP3    H164967   4.433   2.944  14.592 -1.8143  0.8058 -0.8629
14492TIP3    H264968   4.426   3.032  14.469  1.4874  2.1908 -0.1597
14493TIP3   OH264969   6.270   4.557  13.663 -0.2971 -0.0787 -0.2214
14493TIP3    H164970   6.236   4.571  13.751 -0.3406  1.7162 -0.4747
14493TIP3    H264971   6.350   4.507  13.675  0.0514  0.7104  0.9052
14494TIP3   OH264972   4.018   5.652  11.077 -0.4493  0.3089 -0.2081
14494TIP3    H164973   3.960   5.720  11.110  1.8558  1.3440  2.0258
14494TIP3    H264974   4.071   5.696  11.010 -0.8425 -0.0645 -0.7690
14495TIP3   OH264975   3.149   1.900   4.718 -0.1027 -0.6702  0.3372
14495TIP3    H164976   3.070   1.853   4.693 -1.1453  1.4921 -0.7788
14495TIP3    H264977   3.190   1.925   4.635  1.2731 -0.9729  0.8917
14496TIP3   OH264978   1.814   6.335  15.188 -0.1792 -0.1730  0.0300
14496TIP3    H164979   1.909   6.347  15.189  0.3303 -3.2069 -1.1297
14496TIP3    H264980   1.785   6.385  15.111  1.0229 -1.8857 -1.6242
14497TIP3   OH264981   5.719   2.279  15.103  0.6541  0.0897  0.3178
14497TIP3    H164982   5.636   2.232  15.110  0.8007 -0.2554 -0.1900
14497TIP3    H264983   5.718   2.341  15.176 -0.7614  1.2169 -0.6083
14498TIP3   OH264984   3.370   5.468   0.967  0.0863 -0.2165  0.3711
14498TIP3    H164985   3.371   5.527   0.891 -1.4624  0.0187  0.4912
14498TIP3    H264986   3.462   5.456   0.990  0.5027  1.0049 -0.5554
14499TIP3   OH264987   6.418   5.938  14.780 -0.1523 -0.3779  0.2353
14499TIP3    H164988   6.402   5.855  14.825 -1.1764 -0.6264 -0.5395
14499TIP3    H264989   6.480   5.917  14.710  0.0302 -0.3731  0.3967
14500TIP3   OH264990   1.150   2.879   5.854 -0.1905 -0.1556  0.4173
14500TIP3    H164991   1.205   2.957   5.863 -0.4407 -0.2093  3.0101
14500TIP3    H264992   1.082   2.890   5.921 -0.9575 -2.0151 -0.0132
14501TIP3   OH264993   6.489   5.814   3.251 -0.1485 -0.5826  0.0897
14501TIP3    H164994   6.443   5.731   3.267 -2.2666  0.7322  1.3235
14501TIP3    H264995   6.530   5.835   3.334 -0.4695  0.0650  0.0952
14502TIP3   OH264996   2.417   0.855   2.961  0.4754  0.8085 -0.5115
14502TIP3    H164997   2.478   0.791   2.925  0.0961  0.3395 -0.3218
14502TIP3    H264998   2.436   0.856   3.055 -0.1945  0.2329 -0.3597
14503TIP3   OH264999   5.936   5.356   6.186 -0.0892 -0.4097  0.2497
14503TIP3    H165000   6.006   5.303   6.225  0.6537  0.0921 -0.3836
14503TIP3    H265001   5.981   5.426   6.140 -0.9914 -0.3656 -0.5981
14504TIP3   OH265002   3.389   2.257   6.384  0.8477 -0.1742  0.3609
14504TIP3    H165003   3.383   2.314   6.307  1.5925 -0.5213  0.0400
14504TIP3    H265004   3.394   2.169   6.348  1.8348 -0.2990  0.7792
14505TIP3   OH265005   1.253   4.010   1.095  0.1832  0.4375 -0.0048
14505TIP3    H165006   1.344   3.986   1.109  0.1398  0.2983  0.0485
14505TIP3    H265007   1.256   4.088   1.039  0.3998  1.7380  1.7347
14506TIP3   OH265008   2.126   6.782   0.437  0.4017 -0.0125 -0.4245
14506TIP3    H165009   2.184   6.739   0.500  1.4117  2.3300  0.3526
14506TIP3    H265010   2.137   6.732   0.356  2.1995 -0.6546  0.1725
14507TIP3   OH265011   5.828   0.528   0.392  0.0101 -0.0380  0.1893
14507TIP3    H165012   5.884   0.485   0.457 -0.4916  1.0580  1.4017
14507TIP3    H265013   5.884   0.538   0.315 -0.0985 -3.5213 -0.4794
14508TIP3   OH265014   2.318   5.578  12.877  0.3174  0.1811 -0.2806
14508TIP3    H165015   2.234   5.578  12.923  0.3011 -1.3587 -0.2571
14508TIP3    H265016   2.296   5.563  12.785  0.4986  0.9961 -0.4665
14509TIP3   OH265017   5.662   6.336   0.578 -0.0969  0.0258 -0.9241
14509TIP3    H165018   5.645   6.262   0.520 -0.5792  0.3173 -1.1588
14509TIP3    H265019   5.698   6.296   0.657  1.3111 -0.2964 -1.7082
14510TIP3   OH265020   2.477   5.170   1.743  0.4980  0.0018  0.3216
14510TIP3    H165021   2.568   5.183   1.716  0.3017  2.7062  0.7405
14510TIP3    H265022   2.425   5.204   1.670 -0.2382 -1.5966  0.0443
14511TIP3   OH265023   5.264   4.014  16.641  0.5543  0.5678  0.0499
14511TIP3    H165024   5.278   4.061  16.723 -0.6238  0.7017  0.2021
14511TIP3    H265025   5.241   4.082  16.577 -2.0596  0.2134  0.4827
14512TIP3   OH265026   6.382   3.039   3.503  0.1147 -0.6201  0.5954
14512TIP3    H165027   6.349   2.952   3.482 -0.1209 -0.2831 -0.4563
14512TIP3    H265028   6.407   3.033   3.596 -2.2743 -1.0661  1.2580
14513TIP3   OH265029   3.449   5.298   6.004 -0.4513 -0.3304 -0.0355
14513TIP3    H165030   3.537   5.260   6.004  0.2178  1.1399 -0.3411
14513TIP3    H265031   3.451   5.362   5.933 -1.5797  0.1707  0.3625
14514TIP3   OH265032   6.662   0.492  12.886 -0.6978 -0.2904  0.0065
14514TIP3    H165033   6.677   0.484  12.980 -1.4479  2.2197  0.4300
14514TIP3    H265034   6.743   0.532  12.853 -1.3325  1.1129  0.0614
14515TIP3   OH265035   5.002   1.893   1.244 -0.1738  0.5088  0.3670
14515TIP3    H165036   5.046   1.817   1.282 -1.0891 -0.7284 -0.9457
14515TIP3    H265037   4.921   1.902   1.294 -1.3936 -1.1395 -1.1557
14516TIP3   OH265038   6.620   2.218   3.068 -0.0365 -0.0406  0.2669
14516TIP3    H165039   6.590   2.128   3.064  1.8071 -0.7394  0.9215
14516TIP3    H265040   6.714   2.213   3.050  0.5485  1.4513  2.4716
14517TIP3   OH265041   2.490   1.102   5.937  0.1107  0.2215 -0.4959
14517TIP3    H165042   2.559   1.039   5.914  0.6134  0.2680  0.8249
14517TIP3    H265043   2.409   1.056   5.915  0.5304  0.5382 -2.9974
14518TIP3   OH265044   1.621   4.290  11.673 -0.3354  0.1193  0.4023
14518TIP3    H165045   1.581   4.203  11.677 -1.6018  0.5818 -1.2733
14518TIP3    H265046   1.580   4.339  11.744 -2.9365  0.6044 -1.3095
14519TIP3   OH265047   4.831   0.352   0.944  0.5339  0.5150  0.0515
14519TIP3    H165048   4.765   0.421   0.936 -0.5512 -0.1865  1.9914
14519TIP3    H265049   4.783   0.278   0.982  2.2060 -0.4085  0.4728
14520TIP3   OH265050   2.428   4.817  13.755 -0.1746 -0.0510  0.0714
14520TIP3    H165051   2.515   4.849  13.735 -0.5428  0.6187 -0.5098
14520TIP3    H265052   2.442   4.739  13.809  0.7449  1.7306  2.5863
14521TIP3   OH265053   2.112   0.857   3.804  0.3198  0.1372  0.0908
14521TIP3    H165054   2.050   0.896   3.742  0.2856  1.2826  0.8279
14521TIP3    H265055   2.060   0.791   3.850 -0.4127  1.1540  0.7718
14522TIP3   OH265056   6.651   4.029  12.341  0.2873 -0.0112  0.1710
14522TIP3    H165057   6.700   3.978  12.406  0.9591 -1.8947 -1.7224
14522TIP3    H265058   6.704   4.024  12.262 -0.3023  2.5930 -0.4673
14523TIP3   OH265059   5.940   5.433  12.312 -0.2122  0.2200  0.2815
14523TIP3    H165060   6.034   5.452  12.308  0.2489 -1.9225 -0.4914
14523TIP3    H265061   5.933   5.362  12.376 -1.1877 -0.2156 -0.2860
14524TIP3   OH265062   5.362   6.252  14.038  0.2861 -0.3224  0.4008
14524TIP3    H165063   5.364   6.173  14.091  0.1853  0.2611  1.2969
14524TIP3    H265064   5.404   6.319  14.092  0.7613  0.1395 -0.5151
14525TIP3   OH265065   0.100   5.830   1.069  0.1863 -0.6922  0.1277
14525TIP3    H165066   0.192   5.856   1.068  0.5607 -1.9203 -1.1365
14525TIP3    H265067   0.053   5.905   1.032  0.7191 -0.2244  0.3883
14526TIP3   OH265068   4.824   0.435   2.279 -0.5489  0.7381  0.4294
14526TIP3    H165069   4.781   0.351   2.298 -0.4542  0.8199  1.0418
14526TIP3    H265070   4.907   0.410   2.237  0.5592  0.3830  2.6629
14527TIP3   OH265071   0.977   5.832   3.293  0.0331 -0.3116 -0.6019
14527TIP3    H165072   0.922   5.774   3.347  0.6599  0.0474  0.4593
14527TIP3    H265073   0.923   5.910   3.279 -0.4259 -0.7164 -1.1752
14528TIP3   OH265074   0.308   0.648  14.114  0.3809  0.0625  0.1426
14528TIP3    H165075   0.272   0.626  14.200 -1.5515  2.2576 -0.0174
14528TIP3    H265076   0.345   0.735  14.124  2.3873 -0.6285 -0.6924
14529TIP3   OH265077   4.438   2.982  16.512  0.0234 -0.3112  0.4692
14529TIP3    H165078   4.400   3.067  16.488 -0.1816  0.0066  1.8324
14529TIP3    H265079   4.411   2.923  16.442  1.3540  1.0280 -1.2667
14530TIP3   OH265080   4.105   0.045   4.771 -0.1615 -0.0050  0.0479
14530TIP3    H165081   4.078  -0.027   4.827  1.1118 -1.5099 -1.1864
14530TIP3    H265082   4.183   0.080   4.813  0.3431 -0.6300 -0.3507
14531TIP3   OH265083   1.024   6.617   3.221 -0.0797  0.4297 -0.1655
14531TIP3    H165084   1.076   6.692   3.249 -1.1478  0.9910  0.3641
14531TIP3    H265085   1.033   6.554   3.292 -1.8818  1.4119  1.0093
14532TIP3   OH265086   5.362   5.164   5.944  0.0098  0.2640 -0.5662
14532TIP3    H165087   5.270   5.188   5.948  0.2732  1.3564 -0.7068
14532TIP3    H265088   5.364   5.073   5.971 -0.8207  0.9821  2.2740
14533TIP3   OH265089   4.199   3.788   6.447 -1.0313 -0.2512 -0.2252
14533TIP3    H165090   4.233   3.869   6.486 -1.1850 -0.3500  0.1170
14533TIP3    H265091   4.274   3.728   6.447 -0.7205  0.1173 -1.1360
14534TIP3   OH265092   1.467   1.760   4.910 -0.0727  0.1662 -0.4246
14534TIP3    H165093   1.532   1.806   4.963 -1.5196  2.2330 -0.3026
14534TIP3    H265094   1.449   1.820   4.838  0.8476 -1.9926 -2.5946
14535TIP3   OH265095   3.185   3.248   1.289 -0.6907  0.3020  0.8060
14535TIP3    H165096   3.244   3.184   1.249  0.6978  1.0761  1.5258
14535TIP3    H265097   3.097   3.216   1.269 -0.0354 -1.3060  0.3452
14536TIP3   OH265098   3.193   4.447   2.716  0.1124 -0.2972 -0.4067
14536TIP3    H165099   3.207   4.531   2.758 -1.5381  0.2098 -0.8049
14536TIP3    H265100   3.185   4.468   2.623 -0.5882 -0.8378 -0.4807
14537TIP3   OH265101   6.024   2.837   5.786 -0.0652  0.2171 -0.0157
14537TIP3    H165102   5.997   2.915   5.738  0.6411  0.9900  0.8141
14537TIP3    H265103   6.117   2.826   5.766 -0.5194 -1.4839 -1.5498
14538TIP3   OH265104   3.585   6.242   5.429  0.3077 -0.6372 -0.2404
14538TIP3    H165105   3.551   6.326   5.459  0.9776  0.0864 -1.4040
14538TIP3    H265106   3.561   6.180   5.497  0.8104  0.7109  1.2193
14539TIP3   OH265107   1.028   0.599  12.815  0.0695  0.0670 -0.0941
14539TIP3    H165108   1.027   0.643  12.900  0.9768  0.5714 -0.3341
14539TIP3    H265109   0.939   0.608  12.782  0.3269  2.1715 -0.3488
14540TIP3   OH265110   2.486   3.216   3.809  0.3115 -0.0561 -0.0767
14540TIP3    H165111   2.393   3.215   3.832  0.2750  0.0569 -0.2179
14540TIP3    H265112   2.509   3.123   3.798  0.1930 -0.0790 -0.1327
14541TIP3   OH265113   1.681   5.565  15.007  0.1394 -0.3728  0.4972
14541TIP3    H165114   1.754   5.607  15.052  1.3106 -0.6037 -1.0963
14541TIP3    H265115   1.605   5.619  15.028  1.3695  1.8881 -0.5363
14542TIP3   OH265116   5.093   0.200  16.407  0.5132 -0.2218  0.4159
14542TIP3    H165117   5.077   0.244  16.491  0.1026  0.0221  0.2112
14542TIP3    H265118   5.021   0.229  16.351  0.5223 -0.7574  0.1230
14543TIP3   OH265119   6.801   3.668  15.347  0.3060  0.2980  0.4358
14543TIP3    H165120   6.856   3.606  15.301  0.9315  0.9252  0.3261
14543TIP3    H265121   6.712   3.635  15.335  0.5926 -0.3334  0.0199
14544TIP3   OH265122   1.390   6.788   5.858 -0.1852 -0.6158  0.9305
14544TIP3    H165123   1.482   6.762   5.871  0.9799  1.0163 -2.6832
14544TIP3    H265124   1.362   6.741   5.779 -0.8741  2.1201 -0.6133
14545TIP3   OH265125   2.409   2.798   2.362 -0.2817  0.0110  0.0082
14545TIP3    H165126   2.378   2.728   2.305  0.4950  0.8024 -1.4263
14545TIP3    H265127   2.415   2.875   2.306  1.0360  0.6893  1.0127
14546TIP3   OH265128   4.608   1.394  14.387  0.2842  0.4224  0.5488
14546TIP3    H165129   4.623   1.375  14.479 -0.1902 -2.0845  0.1750
14546TIP3    H265130   4.585   1.310  14.348 -1.4889  1.7160 -1.4809
14547TIP3   OH265131   3.103   4.738  10.933 -0.4655 -0.0185 -0.2830
14547TIP3    H165132   3.065   4.718  11.018 -1.5102 -0.1998 -0.7863
14547TIP3    H265133   3.190   4.773  10.954 -0.6997 -0.0741  0.8496
14548TIP3   OH265134   6.569   5.039   6.071 -0.6554  0.4820 -0.0450
14548TIP3    H165135   6.610   5.114   6.027  0.2893 -0.4000 -0.7398
14548TIP3    H265136   6.502   5.077   6.128 -1.1558  1.7446 -1.4243
14549TIP3   OH265137   0.996   6.393  11.436  0.1282 -0.5530 -0.1361
14549TIP3    H165138   1.002   6.320  11.497 -0.3150 -0.7942 -0.3697
14549TIP3    H265139   0.997   6.352  11.349 -2.5739 -0.5361 -0.2775
14550TIP3   OH265140   2.376   4.556  12.560 -0.1284 -0.1659  0.1407
14550TIP3    H165141   2.460   4.511  12.573 -0.1730 -0.6671 -1.2096
14550TIP3    H265142   2.391   4.614  12.485 -1.0510 -0.4414 -0.2718
14551TIP3   OH265143   6.312   3.760  12.788 -0.4453 -0.3939 -0.0659
14551TIP3    H165144   6.397   3.782  12.825 -1.5260 -0.7090  2.8518
14551TIP3    H265145   6.265   3.843  12.784 -2.0147 -0.8624  4.1608
14552TIP3   OH265146   6.797   2.527  12.629 -0.5181  0.1701  0.3844
14552TIP3    H165147   6.779   2.518  12.722  1.8442  2.4489  1.1857
14552TIP3    H265148   6.809   2.621  12.616 -0.9684 -0.0643 -2.2877
14553TIP3   OH265149   4.625   2.774   0.145 -0.1388  0.1494  0.4534
14553TIP3    H165150   4.534   2.748   0.160  0.0299 -1.1243 -0.5116
14553TIP3    H265151   4.676   2.709   0.193  0.2718  1.0176  1.2109
14554TIP3   OH265152   1.492   2.185  13.017 -0.4491  0.4910  0.0939
14554TIP3    H165153   1.471   2.137  12.937 -1.2355  0.8874  0.0535
14554TIP3    H265154   1.473   2.277  12.995 -0.5253  0.6176  0.6856
14555TIP3   OH265155   6.373   6.816   2.438 -0.0631  0.3905 -0.3852
14555TIP3    H165156   6.388   6.746   2.502 -0.2894  0.7261  0.0381
14555TIP3    H265157   6.315   6.877   2.482  3.3151  2.9954  0.8723
14556TIP3   OH265158   0.292   5.082   1.602 -0.2876  0.6894  0.1708
14556TIP3    H165159   0.245   5.165   1.593 -0.4732  0.4864 -0.8893
14556TIP3    H265160   0.239   5.019   1.553  0.6624  0.2834 -0.3578
14557TIP3   OH265161   6.541   3.229   4.852 -0.6063 -0.2560  0.8938
14557TIP3    H165162   6.577   3.258   4.935 -1.8273 -0.6996  1.6130
14557TIP3    H265163   6.578   3.289   4.787  0.5874 -0.0812  1.7031
14558TIP3   OH265164   0.509   1.054  11.970  0.1097  0.0181  0.1909
14558TIP3    H165165   0.587   1.079  12.019 -1.3490  0.4810  2.4339
14558TIP3    H265166   0.510   1.108  11.891  2.0019  0.0270  0.1927
14559TIP3   OH265167   1.973   0.075  14.901 -0.1819  0.3876 -0.7082
14559TIP3    H165168   1.930   0.037  14.977 -2.3663 -0.4644 -2.2684
14559TIP3    H265169   1.944   0.166  14.900  0.7031  0.6924  0.0265
14560TIP3   OH265170   2.088   3.787  16.562  0.2519  0.3865  0.3979
14560TIP3    H165171   1.995   3.777  16.582  0.3791 -0.7153  0.4990
14560TIP3    H265172   2.133   3.751  16.639  0.7498  0.0993 -0.0213
14561TIP3   OH265173   2.543   5.001   1.440  0.6123 -0.3322 -0.6409
14561TIP3    H165174   2.530   4.910   1.467 -2.2680 -0.1947 -1.2959
14561TIP3    H265175   2.596   5.039   1.510 -0.6763 -1.7680  1.2254
14562TIP3   OH265176   0.472   1.982   0.324 -0.3397 -0.1483  0.2955
14562TIP3    H165177   0.415   1.975   0.401  1.0864 -0.3528  1.3769
14562TIP3    H265178   0.548   1.927   0.346  0.4896  0.4871 -0.8950
14563TIP3   OH265179   6.292   4.924  12.046  0.1039 -0.1097  0.1264
14563TIP3    H165180   6.315   4.987  12.113 -0.0936  0.6695 -0.5262
14563TIP3    H265181   6.266   4.977  11.971 -0.3068 -0.9652 -0.3493
14564TIP3   OH265182   1.307   5.128  12.847 -0.5704 -0.3572 -0.1222
14564TIP3    H165183   1.228   5.169  12.811 -1.6989 -0.2564  2.2572
14564TIP3    H265184   1.375   5.195  12.838 -1.5124  0.7196  0.4734
14565TIP3   OH265185   6.115   4.448  13.180 -0.4338  0.1313 -0.3017
14565TIP3    H165186   6.183   4.485  13.236  0.5507 -1.2768 -0.5265
14565TIP3    H265187   6.145   4.359  13.160 -1.6539 -0.0380 -1.5636
14566TIP3   OH265188   4.356   0.931  13.796  0.2572 -0.1667  0.0109
14566TIP3    H165189   4.444   0.965  13.776  0.4146 -0.6797 -0.1906
14566TIP3    H265190   4.332   0.973  13.878  0.3230  0.6523 -0.3801
14567TIP3   OH265191   2.251   4.835   0.165 -0.2248  0.5871 -0.1340
14567TIP3    H165192   2.186   4.766   0.152  1.1133 -0.9081  0.7240
14567TIP3    H265193   2.322   4.811   0.105  0.3810  1.0639  0.3924
14568TIP3   OH265194   5.217   4.325  14.862 -0.8293  0.5107 -0.1829
14568TIP3    H165195   5.298   4.341  14.910 -0.4499  0.3113 -0.7462
14568TIP3    H265196   5.210   4.398  14.801  0.0032 -0.5106 -1.5551
14569TIP3   OH265197   5.631   6.570  17.027  0.6246 -0.9350 -0.5739
14569TIP3    H165198   5.680   6.589  17.106  2.1584 -0.5496 -1.5667
14569TIP3    H265199   5.672   6.491  16.991 -1.3675 -2.3226  0.0237
14570TIP3   OH265200   5.680   1.699   6.660  0.1145 -0.0663  0.0924
14570TIP3    H165201   5.769   1.731   6.648  0.4897 -0.8004  0.7892
14570TIP3    H265202   5.638   1.763   6.717  0.9419 -0.9085  1.7095
14571TIP3   OH265203   5.271   4.682  12.862 -0.1517  0.3782 -0.2944
14571TIP3    H165204   5.313   4.743  12.801  1.8642  0.4215  1.0439
14571TIP3    H265205   5.315   4.698  12.946 -0.7028 -1.7971  0.4669
14572TIP3   OH265206   6.529   1.005   4.168 -0.2085  0.5173  0.0506
14572TIP3    H165207   6.588   0.933   4.147 -0.1624  0.4146  0.5253
14572TIP3    H265208   6.486   1.025   4.084 -1.2182 -0.9597  0.1692
14573TIP3   OH265209   4.535   1.542  15.241  0.2702 -0.5814  0.1240
14573TIP3    H165210   4.446   1.547  15.206 -0.2594 -0.4512  1.4199
14573TIP3    H265211   4.526   1.567  15.333  1.4433 -1.9023  0.6288
14574TIP3   OH265212   3.980   0.560   1.193 -1.0188  0.0936 -0.5351
14574TIP3    H165213   3.974   0.558   1.288  1.4859  2.0429 -0.2285
14574TIP3    H265214   3.950   0.648   1.169  0.6830  0.5209 -1.2488
14575TIP3   OH265215   4.245   0.632  11.660 -0.7173  0.1137 -0.1041
14575TIP3    H165216   4.341   0.632  11.663 -0.6664 -1.8540 -0.2661
14575TIP3    H265217   4.220   0.555  11.711 -2.0754 -1.0114 -2.2955
14576TIP3   OH265218   3.066   4.796  12.390 -0.4153 -0.4382 -0.8106
14576TIP3    H165219   3.010   4.751  12.453  0.0645  0.2905  0.1665
14576TIP3    H265220   3.097   4.727  12.331 -1.1009 -1.0846 -0.4223
14577TIP3   OH265221   4.438   0.172  15.538 -0.3382 -0.1939 -0.6594
14577TIP3    H165222   4.404   0.164  15.449 -1.7543  0.9919 -0.2626
14577TIP3    H265223   4.512   0.232  15.529 -0.5412  0.0072 -1.0368
14578TIP3   OH265224   3.111   5.688  12.488 -0.1411 -0.0355  0.2373
14578TIP3    H165225   3.123   5.677  12.583  2.3041 -0.1505 -0.0227
14578TIP3    H265226   3.135   5.780  12.472  0.5654 -0.3184 -0.3874
14579TIP3   OH265227   0.771   2.111  13.175 -0.1281  0.2234  0.1304
14579TIP3    H165228   0.786   2.161  13.094 -0.9201  0.8610  0.3561
14579TIP3    H265229   0.856   2.109  13.219 -0.1243  1.6026  0.2241
14580TIP3   OH265230   1.986   3.372  16.326  0.1742 -0.0417  0.4077
14580TIP3    H165231   1.914   3.365  16.264 -0.0141  1.0460  0.4800
14580TIP3    H265232   2.011   3.465  16.323  1.1224 -0.2721  0.8772
14581TIP3   OH265233   6.021   5.099   0.659 -0.1025 -0.7026  1.7102
14581TIP3    H165234   6.036   5.154   0.735  0.3099 -0.7473  1.6663
14581TIP3    H265235   5.981   5.019   0.694 -0.8329 -0.3171  1.7537
14582TIP3   OH265236   4.199   5.082  12.938  0.6690  0.4634  0.1104
14582TIP3    H165237   4.119   5.076  12.886  2.0965  0.7791 -2.3167
14582TIP3    H265238   4.188   5.019  13.009 -1.2428 -0.3239 -0.8312
14583TIP3   OH265239   0.224   3.029  16.958 -0.3464  0.6486 -0.1024
14583TIP3    H165240   0.241   3.123  16.969  1.7470  0.3110 -0.0052
14583TIP3    H265241   0.280   2.987  17.024 -0.2480 -0.7165 -1.0245
14584TIP3   OH265242   2.267   4.350  17.194  0.2165  0.0009  0.0990
14584TIP3    H165243   2.195   4.404  17.162 -0.1897  0.0488  1.0726
14584TIP3    H265244   2.238   4.318  17.279  1.2344 -0.1882  0.3943
14585TIP3   OH265245   3.804   2.277   2.967  0.1294 -0.3101  0.3444
14585TIP3    H165246   3.845   2.197   3.000 -0.7883 -1.1501 -0.4874
14585TIP3    H265247   3.751   2.308   3.040  1.0713 -0.0258  0.9262
14586TIP3   OH265248   6.759   3.095  11.166  0.3017 -0.2260 -0.3642
14586TIP3    H165249   6.704   3.046  11.227 -1.9587  0.0955 -1.9727
14586TIP3    H265250   6.759   3.041  11.086  0.0185  1.0772 -1.2826
14587TIP3   OH265251   2.473   6.217   2.670  0.6340  0.9840 -0.1035
14587TIP3    H165252   2.478   6.168   2.752 -1.0777 -1.2978 -1.2662
14587TIP3    H265253   2.438   6.155   2.606 -1.1644  3.5578 -1.8416
14588TIP3   OH265254   0.431   1.318   3.619  0.0781  0.6905 -0.0341
14588TIP3    H165255   0.384   1.296   3.699  0.2018  1.4689  0.2586
14588TIP3    H265256   0.387   1.396   3.586  0.3764  0.6966 -0.4331
14589TIP3   OH265257   5.585   5.864   1.248 -0.2070 -0.0484 -0.1679
14589TIP3    H165258   5.578   5.943   1.302 -2.1251  0.4959 -1.1357
14589TIP3    H265259   5.638   5.804   1.301  2.1947  2.1672  0.1945
14590TIP3   OH265260   5.451   5.544  15.630 -0.1462  0.0199 -0.3426
14590TIP3    H165261   5.489   5.580  15.709  0.3734 -2.6472  0.7451
14590TIP3    H265262   5.445   5.618  15.570  1.4591  1.6899  1.4175
14591TIP3   OH265263   4.398   4.323   2.427  0.1761 -0.4063 -0.7465
14591TIP3    H165264   4.476   4.378   2.430  0.3182 -0.6261 -0.2923
14591TIP3    H265265   4.412   4.258   2.495 -0.5614 -0.2324 -0.4183
14592TIP3   OH265266   1.834   6.089   3.566 -0.0523 -0.4804 -0.1389
14592TIP3    H165267   1.826   6.000   3.533  0.1678 -1.7306  2.9127
14592TIP3    H265268   1.745   6.125   3.558 -0.5887 -1.6584  0.3979
14593TIP3   OH265269   0.269   3.147   4.482 -0.0974 -0.8900 -0.7481
14593TIP3    H165270   0.250   3.148   4.389 -3.2269  1.4744 -0.2290
14593TIP3    H265271   0.234   3.063   4.513 -2.0116 -0.3134 -1.2447
14594TIP3   OH265272   0.690   4.840   0.525 -0.1368 -0.7931 -0.0365
14594TIP3    H165273   0.627   4.904   0.490  2.1794 -0.4128 -4.1801
14594TIP3    H265274   0.757   4.893   0.568 -0.2734 -0.7910  0.1740
14595TIP3   OH265275   0.277   1.617  15.239  0.9699 -0.1174  0.2735
14595TIP3    H165276   0.347   1.674  15.272  1.5540  0.2901 -1.5491
14595TIP3    H265277   0.278   1.630  15.144 -1.4868 -0.2178  0.1576
14596TIP3   OH265278   3.249   1.384  12.771  0.1399  0.0614 -0.2463
14596TIP3    H165279   3.212   1.450  12.830  0.0259  0.7783 -1.0976
14596TIP3    H265280   3.184   1.376  12.701  0.7080 -0.0820 -0.7591
14597TIP3   OH265281   3.759   0.312  16.771  0.4996  0.2696 -0.7122
14597TIP3    H165282   3.757   0.295  16.677  3.1035  1.1944 -1.0238
14597TIP3    H265283   3.740   0.228  16.812  0.0545 -0.3080 -2.0648
14598TIP3   OH265284   4.686   2.021   5.961 -0.4991  0.0844  1.1340
14598TIP3    H165285   4.593   2.017   5.940 -0.1816 -3.5251 -0.5004
14598TIP3    H265286   4.691   2.000   6.054 -1.3128 -0.2079  1.1183
14599TIP3   OH265287   1.968   3.713  15.235 -0.0377  0.7293 -0.0456
14599TIP3    H165288   2.020   3.639  15.205 -0.1474  0.6235  0.0266
14599TIP3    H265289   2.028   3.788  15.230 -0.2761  0.8643 -1.2531
14600TIP3   OH265290   6.636   4.776   0.790  0.9116 -0.1452  0.6808
14600TIP3    H165291   6.657   4.830   0.866  0.2875  0.4279  0.4584
14600TIP3    H265292   6.544   4.750   0.803  0.2412  1.3566 -0.6727
14601TIP3   OH265293   2.572   5.546   2.584 -0.1100 -0.7860  0.1549
14601TIP3    H165294   2.575   5.530   2.679  0.6727  1.4468  0.5699
14601TIP3    H265295   2.660   5.525   2.553 -0.3083 -1.3277 -0.0378
14602TIP3   OH265296   4.848   5.391  16.231 -0.2718  0.7994  0.2465
14602TIP3    H165297   4.859   5.317  16.291 -2.1740  0.4279  0.1733
14602TIP3    H265298   4.885   5.465  16.280  1.0178 -0.0242  0.5997
14603TIP3   OH265299   0.927   3.937  16.887  0.3815 -0.6721 -0.5079
14603TIP3    H165300   0.953   3.894  16.968 -1.5481  0.0305  0.5608
14603TIP3    H265301   1.006   3.936  16.832  1.9426 -0.5926  1.6190
14604TIP3   OH265302   3.088   5.662   2.912 -0.1580  0.6875  0.0696
14604TIP3    H165303   3.010   5.607   2.919  0.5674 -0.2008  1.8225
14604TIP3    H265304   3.160   5.600   2.900  0.6572  1.2270  1.8842
14605TIP3   OH265305   0.098   3.591  13.240  0.7151  0.2695  0.3511
14605TIP3    H165306   0.079   3.644  13.163  0.8241  0.1453  0.2372
14605TIP3    H265307   0.176   3.630  13.278  0.0102  1.0403  1.0583
14606TIP3   OH265308   0.680   2.488  13.997  0.6279 -0.5119 -0.1375
14606TIP3    H165309   0.754   2.481  14.057  0.1136  1.1093  0.7494
14606TIP3    H265310   0.619   2.548  14.040 -1.1562 -1.6869 -0.9202
14607TIP3   OH265311   0.248   4.957   2.637  0.3219  0.2223  0.4416
14607TIP3    H165312   0.338   4.948   2.606  0.3822 -0.8512  0.8990
14607TIP3    H265313   0.195   4.954   2.557  0.5594 -1.2676  0.3168
14608TIP3   OH265314   3.188   4.479   0.039  0.1598  0.4676 -0.8453
14608TIP3    H165315   3.200   4.494  -0.054  0.2970  2.2138 -0.5863
14608TIP3    H265316   3.096   4.454   0.048  0.9398 -3.3294 -1.7750
14609TIP3   OH265317   2.314   0.298   3.414 -0.0244  0.0736 -0.6027
14609TIP3    H165318   2.400   0.258   3.420 -0.1290  0.0038  0.5519
14609TIP3    H265319   2.262   0.254   3.481  0.0909  2.6758  1.3126
14610TIP3   OH265320   1.972   2.793  10.537 -0.4672 -0.1058  0.1891
14610TIP3    H165321   1.918   2.755  10.468  0.2598  0.7282 -0.8681
14610TIP3    H265322   2.006   2.874  10.499 -0.1912  0.4665  1.5941
14611TIP3   OH265323   0.506   5.475  13.896  0.2982  0.1011  0.4604
14611TIP3    H165324   0.547   5.498  13.980  0.1631 -0.4743  0.6878
14611TIP3    H265325   0.559   5.403  13.862 -0.8382 -1.0605  1.0401
14612TIP3   OH265326   3.524   2.107  11.835 -0.0265  0.4935  0.6064
14612TIP3    H165327   3.500   2.032  11.780  0.7153  0.0322  0.8889
14612TIP3    H265328   3.504   2.079  11.924 -0.9146  1.1145  0.6037
14613TIP3   OH265329   5.884   1.789  13.387 -0.7532  0.3919  0.0572
14613TIP3    H165330   5.835   1.816  13.464  0.0405  4.0681 -0.5182
14613TIP3    H265331   5.920   1.871  13.352  2.3968 -1.5907 -1.8356
14614TIP3   OH265332   0.301   2.260  11.572  0.3620  0.2751 -0.4500
14614TIP3    H165333   0.334   2.187  11.625 -0.4361 -0.5341 -1.0500
14614TIP3    H265334   0.360   2.263  11.496  0.0481 -0.1196 -0.7113
14615TIP3   OH265335   2.228   5.936  15.601 -0.2888 -0.1285 -0.1047
14615TIP3    H165336   2.213   5.875  15.528 -1.3765 -0.2402  0.1951
14615TIP3    H265337   2.161   6.004  15.590  1.3977  1.4870 -0.8926
14616TIP3   OH265338   5.711   5.411  16.847 -0.1409 -0.0937  0.0929
14616TIP3    H165339   5.672   5.470  16.911 -2.6388  1.5247 -2.6445
14616TIP3    H265340   5.669   5.327  16.863 -1.8643  0.6628 -0.2708
14617TIP3   OH265341   2.168   3.000  12.763 -0.0862  0.1573 -0.2197
14617TIP3    H165342   2.096   2.945  12.796 -1.2618  0.2721 -2.4162
14617TIP3    H265343   2.246   2.946  12.775 -0.1077  0.7359  3.9533
14618TIP3   OH265344   5.155   6.359  14.847 -0.1641  0.4151  0.4884
14618TIP3    H165345   5.239   6.318  14.831 -0.1755 -1.1622  3.6672
14618TIP3    H265346   5.107   6.351  14.764  2.2090 -0.0497 -0.9073
14619TIP3   OH265347   4.015   1.597  15.742  0.3150 -0.1398  0.3152
14619TIP3    H165348   3.986   1.511  15.773  0.3323 -0.0266  0.6509
14619TIP3    H265349   3.992   1.597  15.649 -1.2972  0.1566  0.6820
14620TIP3   OH265350   4.383   1.184  12.378 -0.6904 -0.0903 -0.3143
14620TIP3    H165351   4.350   1.097  12.355 -0.8650  0.0538 -0.6034
14620TIP3    H265352   4.391   1.181  12.474 -1.4925 -0.1437 -0.2426
14621TIP3   OH265353   4.326   5.132   4.899 -1.0921  0.1845  0.4367
14621TIP3    H165354   4.294   5.205   4.953 -0.2997  0.3597  0.6783
14621TIP3    H265355   4.355   5.066   4.962  1.9290  1.2752  0.3307
14622TIP3   OH265356   2.620   1.292  13.675  0.2264 -0.0192 -0.2168
14622TIP3    H165357   2.608   1.339  13.758 -0.6685 -1.9529  0.7995
14622TIP3    H265358   2.533   1.291  13.634 -0.0530 -1.7373  0.3414
14623TIP3   OH265359   3.532   1.802  13.981  0.0841 -0.1725 -0.2792
14623TIP3    H165360   3.530   1.719  13.934  1.0165 -0.4330  0.1102
14623TIP3    H265361   3.482   1.786  14.061  0.3278 -0.3871 -0.1683
14624TIP3   OH265362   0.551   1.164   6.044 -0.2669 -0.2422  0.3769
14624TIP3    H165363   0.644   1.162   6.023 -0.7659 -1.5891 -2.0021
14624TIP3    H265364   0.540   1.100   6.115  0.2928 -1.8947 -0.9889
14625TIP3   OH265365   3.240   1.452  17.093 -0.6766 -0.3146 -0.0654
14625TIP3    H165366   3.221   1.458  16.999  0.3076  2.2597 -0.1632
14625TIP3    H265367   3.314   1.511  17.107 -0.4008 -1.1013  2.2510
14626TIP3   OH265368   3.349   5.032  12.957 -0.1182 -0.0737 -0.1339
14626TIP3    H165369   3.271   5.080  12.928 -1.6116 -1.2693  1.6730
14626TIP3    H265370   3.319   4.942  12.969  2.4678 -1.4676 -2.8389
14627TIP3   OH265371   3.625   6.264   6.230 -0.2617  0.0497 -0.5389
14627TIP3    H165372   3.550   6.239   6.283  0.1380 -0.0220 -0.0054
14627TIP3    H265373   3.678   6.185   6.224  0.1569  0.3069 -0.2686
14628TIP3   OH265374   0.726   5.145   3.019 -0.1198 -0.3035  0.0544
14628TIP3    H165375   0.758   5.234   3.038 -1.8805  0.2488  0.6856
14628TIP3    H265376   0.753   5.129   2.929 -0.4518  1.2161 -0.3527
14629TIP3   OH265377   1.500   4.074  12.574 -0.1055  0.1269 -0.0278
14629TIP3    H165378   1.485   4.127  12.496 -1.7511  0.2613  0.3562
14629TIP3    H265379   1.464   3.988  12.553 -1.1169  0.3309  0.7653
14630TIP3   OH265380   4.014   1.647   1.820  0.2853 -0.8087 -0.3104
14630TIP3    H165381   4.042   1.564   1.782  0.6513 -2.0257  2.3959
14630TIP3    H265382   4.030   1.638   1.914 -1.4267  1.6176  0.3384
14631TIP3   OH265383   3.209   5.008  13.906  0.3940 -0.7895 -0.5054
14631TIP3    H165384   3.223   5.076  13.971  1.1103 -0.9779 -0.4550
14631TIP3    H265385   3.290   5.006  13.854  0.7469 -2.1653  0.0355
14632TIP3   OH265386   2.285   1.481   6.897  0.5170  0.3345  0.5359
14632TIP3    H165387   2.345   1.493   6.823 -0.0532 -0.8867 -0.1649
14632TIP3    H265388   2.235   1.562   6.901  0.3283  0.2962 -0.6503
14633TIP3   OH265389   3.912   0.190  12.217 -0.2346  0.2859  0.0806
14633TIP3    H165390   3.950   0.202  12.129 -0.2880  0.8044  0.1267
14633TIP3    H265391   3.819   0.210  12.207 -0.7497 -2.0064 -0.2573
14634TIP3   OH265392   1.939   1.531   2.961  0.8217 -0.0051 -0.5217
14634TIP3    H165393   1.903   1.450   2.923  1.4002  0.4976 -2.2002
14634TIP3    H265394   1.879   1.599   2.933  0.7707  0.2665  0.2332
14635TIP3   OH265395   1.339   0.384  10.756 -0.0543 -0.1493 -0.3048
14635TIP3    H165396   1.401   0.310  10.761 -0.5386 -0.6356 -1.2777
14635TIP3    H265397   1.292   0.381  10.839  1.8469  0.8166  0.8855
14636TIP3   OH265398   3.990   4.375  10.966  0.0511  0.0758 -0.1295
14636TIP3    H165399   3.919   4.318  10.995 -1.2627  1.8388  0.3036
14636TIP3    H265400   3.956   4.416  10.887  1.8439 -1.3235 -1.7181
14637TIP3   OH265401   1.893   1.972   2.984 -0.1459  0.2016  0.2275
14637TIP3    H165402   1.868   2.033   3.054 -0.9047 -0.5542  0.6377
14637TIP3    H265403   1.845   2.002   2.907  1.4100  1.6044 -0.2637
14638TIP3   OH265404   0.187   2.068  15.635 -0.7939 -0.6067 -0.9106
14638TIP3    H165405   0.270   2.072  15.684  0.3057  2.3923 -2.7151
14638TIP3    H265406   0.120   2.062  15.702  0.7797 -0.0279  0.8131
14639TIP3   OH265407   4.128   5.847   0.488  0.0165  0.1721 -0.3441
14639TIP3    H165408   4.222   5.835   0.483  0.3262  1.4884  1.5097
14639TIP3    H265409   4.115   5.918   0.551 -2.2097  0.0441 -0.5559
14640TIP3   OH265410   1.126   1.065   3.092  0.2632  0.7500 -0.2500
14640TIP3    H165411   1.060   1.111   3.040  0.3934  1.4910  0.2282
14640TIP3    H265412   1.207   1.076   3.043 -0.1533 -1.1872 -1.4626
14641TIP3   OH265413   0.642   6.646  15.587  0.3008  0.0773  0.2440
14641TIP3    H165414   0.622   6.736  15.615  0.9783  0.6766 -1.1128
14641TIP3    H265415   0.557   6.603  15.583 -0.6897  1.9651 -3.3796
14642TIP3   OH265416   5.301   1.405   2.228  0.1474 -0.3231 -0.0211
14642TIP3    H165417   5.281   1.386   2.136 -0.0003 -0.1970 -0.0160
14642TIP3    H265418   5.281   1.498   2.238  0.5665 -0.2407  0.0330
14643TIP3   OH265419   2.677   1.779  13.743  0.0951  0.1367  0.5370
14643TIP3    H165420   2.659   1.685  13.733  0.5740  0.1569 -0.7044
14643TIP3    H265421   2.762   1.791  13.701  0.2430  1.0628  1.0845
14644TIP3   OH265422   1.428   3.604  16.422 -0.1007  0.1119  0.0597
14644TIP3    H165423   1.332   3.612  16.421 -0.1881  0.9811 -4.2549
14644TIP3    H265424   1.457   3.660  16.350  3.7559  0.1636  1.4568
14645TIP3   OH265425   5.985   4.262  14.883 -0.6291  0.1329  0.6216
14645TIP3    H165426   6.053   4.238  14.819  0.3284  1.4978  1.0987
14645TIP3    H265427   5.920   4.310  14.832  0.6470  2.1460  0.8029
14646TIP3   OH265428   5.631   1.051  12.778 -0.2466  0.3271  0.6485
14646TIP3    H165429   5.540   1.034  12.755 -0.2859  1.3686 -0.0356
14646TIP3    H265430   5.680   0.978  12.739 -0.8044 -0.4368  1.3344
14647TIP3   OH265431   0.659   1.053   6.409 -0.1689  0.3695  0.1182
14647TIP3    H165432   0.621   1.131   6.450  2.0148  0.1164  2.8966
14647TIP3    H265433   0.661   0.988   6.479  2.4380 -0.5997 -0.7491
14648TIP3   OH265434   1.912   6.648   2.576 -0.0236  0.2544  0.3462
14648TIP3    H165435   1.945   6.598   2.651  1.3003 -0.0107 -0.3977
14648TIP3    H265436   1.962   6.616   2.501 -2.6680 -0.9387 -1.0824
14649TIP3   OH265437   2.999   1.740   2.498  0.0937 -0.3762 -0.0608
14649TIP3    H165438   2.914   1.743   2.543  0.3942  0.6381  0.4604
14649TIP3    H265439   3.060   1.706   2.564  0.2953 -0.0697 -0.0878
14650TIP3   OH265440   4.644   3.728   0.618  0.0443 -0.3587  0.2788
14650TIP3    H165441   4.558   3.689   0.632  0.1394 -0.6124  0.1577
14650TIP3    H265442   4.675   3.751   0.706 -1.6136  2.9236  0.1625
14651TIP3   OH265443   6.399   5.219  12.983 -0.2772 -0.4748  0.3911
14651TIP3    H165444   6.399   5.131  12.944 -0.2061 -0.5239  0.5012
14651TIP3    H265445   6.317   5.223  13.032 -1.3113  0.2701 -1.2962
14652TIP3   OH265446   6.012   3.461  16.725 -0.1241 -0.4704 -0.2028
14652TIP3    H165447   6.022   3.518  16.648  0.8305 -0.6524 -0.2306
14652TIP3    H265448   6.072   3.499  16.790 -0.4810 -0.6688  0.2426
14653TIP3   OH265449   6.011   2.151   2.643  0.8391 -0.1248  0.0115
14653TIP3    H165450   5.979   2.061   2.648  1.0470 -0.2867 -1.2171
14653TIP3    H265451   6.019   2.179   2.734 -0.1422 -1.0194  0.3989
14654TIP3   OH265452   1.996   1.955  12.216 -0.5219  0.3892 -0.1602
14654TIP3    H165453   2.018   1.867  12.248 -3.3776 -0.6637 -0.8246
14654TIP3    H265454   2.013   1.950  12.122 -0.1779  0.7372 -0.1172
14655TIP3   OH265455   5.981   5.351   2.245  0.3689  0.5261  0.6479
14655TIP3    H165456   6.029   5.268   2.250 -0.1589  0.0228 -1.5563
14655TIP3    H265457   5.898   5.334   2.290 -0.0338 -0.3961 -0.4075
14656TIP3   OH265458   4.563   5.949   2.785 -0.3644  0.2758 -0.1713
14656TIP3    H165459   4.650   5.954   2.825 -1.1392 -1.4912  1.9903
14656TIP3    H265460   4.514   6.022   2.824 -0.0826  0.8041 -0.7951
14657TIP3   OH265461   6.212   5.060   4.189  0.4918 -0.0008 -0.0132
14657TIP3    H165462   6.119   5.043   4.170  0.3564  1.6462 -1.0079
14657TIP3    H265463   6.259   5.019   4.117  0.4266  0.3579 -0.2652
14658TIP3   OH265464   4.168   6.503   2.642  0.2579  0.5105 -0.1735
14658TIP3    H165465   4.226   6.439   2.601  0.7330  0.1148  1.0643
14658TIP3    H265466   4.209   6.521   2.727 -2.3195 -1.1522  1.5790
14659TIP3   OH265467   5.236   5.847   2.038  1.0976 -0.2293 -0.2766
14659TIP3    H165468   5.197   5.775   2.086  0.8712  0.0184 -0.0858
14659TIP3    H265469   5.229   5.922   2.097 -0.2990  0.3714 -1.1486
14660TIP3   OH265470   5.059   5.637   3.289  0.5522  1.1250  0.3818
14660TIP3    H165471   5.093   5.656   3.202 -1.0059 -0.8550 -0.7454
14660TIP3    H265472   4.982   5.694   3.298  1.1855  1.9364  0.8565
14661TIP3   OH265473   2.511   6.684   3.273 -0.0775  0.2750  0.5842
14661TIP3    H165474   2.488   6.646   3.189  0.5665  0.5746  0.2602
14661TIP3    H265475   2.456   6.638   3.337 -0.6754  0.1462 -0.0116
14662TIP3   OH265476   3.240   2.949   6.463  0.0337 -0.3710  0.0279
14662TIP3    H165477   3.213   2.880   6.402 -0.6076  0.4321 -0.6330
14662TIP3    H265478   3.162   3.005   6.471  0.3344 -0.0932  1.0676
14663TIP3   OH265479   3.084   1.039   5.006  0.1283 -0.2010  0.4838
14663TIP3    H165480   3.128   1.091   5.074  0.3059 -1.0643  1.0454
14663TIP3    H265481   3.039   1.104   4.952  0.9578  0.5928  0.7208
14664TIP3   OH265482   4.374   1.391  13.880  0.2147 -0.6509 -1.0306
14664TIP3    H165483   4.335   1.419  13.963 -2.1725 -2.9060 -1.2702
14664TIP3    H265484   4.468   1.398  13.894 -0.0852 -1.3747  2.0468
14665TIP3   OH265485   6.162   3.385   1.634  0.5177  0.2610  0.1606
14665TIP3    H165486   6.089   3.399   1.575 -0.5524  0.1164  1.4102
14665TIP3    H265487   6.189   3.294   1.617  0.4421  0.3227 -0.3147
14666TIP3   OH265488   5.506   3.548  13.229  1.0657  0.0953  0.6120
14666TIP3    H165489   5.532   3.459  13.254 -0.0807 -0.4279  0.0113
14666TIP3    H265490   5.434   3.570  13.288  1.0160  0.4312  0.4271
14667TIP3   OH265491   4.997   5.287  16.822 -0.3848  0.5515  0.0324
14667TIP3    H165492   5.019   5.208  16.772 -0.2872  1.4585 -1.4274
14667TIP3    H265493   5.041   5.275  16.906 -0.2725 -0.8864 -0.2040
14668TIP3   OH265494   5.506   6.804  14.913  0.6679  0.1796  0.1687
14668TIP3    H165495   5.416   6.776  14.895  0.3501  0.9735  0.4862
14668TIP3    H265496   5.556   6.770  14.838  0.0384  0.0713 -0.2145
14669TIP3   OH265497   0.492   0.499   5.447 -0.1325 -0.0868  0.1620
14669TIP3    H165498   0.448   0.516   5.530 -1.1779  0.3503 -0.4632
14669TIP3    H265499   0.431   0.445   5.398 -0.1872  0.9129 -0.9092
14670TIP3   OH265500   3.617   3.370   3.633  0.1449 -0.3022 -0.4490
14670TIP3    H165501   3.695   3.359   3.688  0.2640 -0.5480 -0.6695
14670TIP3    H265502   3.544   3.370   3.695  0.2075 -1.4630 -0.3632
14671TIP3   OH265503   1.471   5.549   3.788  0.0864 -0.4223 -0.2249
14671TIP3    H165504   1.408   5.530   3.719 -1.9417 -0.9481  1.6603
14671TIP3    H265505   1.438   5.628   3.830  1.3643 -0.0215  0.0624
14672TIP3   OH265506   5.017   6.094   5.065 -0.2651 -0.0574  0.0536
14672TIP3    H165507   5.007   6.186   5.042 -2.7717 -0.0184  1.0065
14672TIP3    H265508   5.096   6.091   5.118  0.4398  1.3322 -0.8480
14673TIP3   OH265509   6.535   0.756  13.098 -0.1020 -0.3907 -0.1539
14673TIP3    H165510   6.446   0.786  13.119  0.7437  2.2211  0.0591
14673TIP3    H265511   6.543   0.771  13.003  0.4572  0.5500  0.0216
14674TIP3   OH265512   0.716   0.978  16.282  0.0756 -0.6636  0.3569
14674TIP3    H165513   0.688   0.924  16.356 -1.9860  1.1903  1.0307
14674TIP3    H265514   0.658   0.953  16.211 -0.4035  0.1424  0.4610
14675TIP3   OH265515   4.590   1.271   0.250 -0.1722 -0.0784 -0.6301
14675TIP3    H165516   4.647   1.219   0.195 -0.7152  0.3516 -1.6285
14675TIP3    H265517   4.503   1.261   0.211 -0.7601 -0.5663  0.7420
14676TIP3   OH265518   5.082   3.563  15.577 -0.1080 -0.1161  0.7854
14676TIP3    H165519   5.129   3.645  15.593  1.3429 -0.3396 -1.8060
14676TIP3    H265520   4.994   3.590  15.553  0.0252  0.6204  1.0935
14677TIP3   OH265521   4.894   3.511  11.223  0.1812  0.0181  0.3835
14677TIP3    H165522   4.867   3.507  11.131 -0.1654 -0.5562  0.5078
14677TIP3    H265523   4.812   3.511  11.272  0.3808 -0.4921  0.7192
14678TIP3   OH265524   4.861   4.839   5.481  0.2241 -0.2844 -0.0417
14678TIP3    H165525   4.938   4.792   5.449  0.6724 -0.2853  1.0049
14678TIP3    H265526   4.787   4.782   5.459  0.6537 -0.9273  0.1675
14679TIP3   OH265527   6.413   1.413  13.611 -0.6353 -0.2963  0.1469
14679TIP3    H165528   6.484   1.391  13.551 -0.4113 -0.7972  0.5849
14679TIP3    H265529   6.444   1.491  13.658 -0.5000 -0.3418  0.1322
14680TIP3   OH265530   2.966   1.434  14.639  0.2268 -0.3293 -0.4505
14680TIP3    H165531   3.037   1.498  14.647 -0.8628  1.0984 -1.7373
14680TIP3    H265532   2.987   1.386  14.559 -0.5034  0.4224 -1.0972
14681TIP3   OH265533   0.612   6.346  15.733 -0.6888 -0.0239  0.1796
14681TIP3    H165534   0.634   6.318  15.822  2.8420 -0.5298 -0.6876
14681TIP3    H265535   0.638   6.273  15.678 -1.3464  0.8823 -1.3791
14682TIP3   OH265536   6.179   0.285  11.538 -0.0708  0.4952 -0.6554
14682TIP3    H165537   6.233   0.283  11.617  0.1119 -1.1688 -0.7844
14682TIP3    H265538   6.240   0.269  11.466 -0.5984 -0.7432 -0.8624
14683TIP3   OH265539   3.233   5.065  15.712 -0.0982  0.2242 -0.1649
14683TIP3    H165540   3.152   5.039  15.757  0.8079 -1.7549  0.4422
14683TIP3    H265541   3.221   5.034  15.623  0.5354 -1.4310  0.2882
14684TIP3   OH265542   5.612   0.763   1.535  0.5460  0.1048 -0.4088
14684TIP3    H165543   5.577   0.790   1.620  1.2327  0.0884 -0.1155
14684TIP3    H265544   5.539   0.716   1.493  0.6174 -1.1289  0.7538
14685TIP3   OH265545   4.863   6.459  16.989 -0.3246  0.4035  0.2749
14685TIP3    H165546   4.799   6.400  17.026 -0.2469  0.6806  0.8687
14685TIP3    H265547   4.918   6.404  16.934  1.1251 -0.5465  2.5192
14686TIP3   OH265548   1.556   0.586   2.820 -0.4032 -0.0521  0.0456
14686TIP3    H165549   1.643   0.551   2.836 -0.8105 -1.5727 -0.9208
14686TIP3    H265550   1.565   0.680   2.834  1.3059 -0.2240  0.2540
14687TIP3   OH265551   1.758   0.890  14.329 -0.6691  0.2107 -0.1299
14687TIP3    H165552   1.770   0.979  14.295 -1.5725 -0.2566 -1.8239
14687TIP3    H265553   1.762   0.835  14.251 -0.5617 -1.2029  0.8446
14688TIP3   OH265554   1.718   1.654  14.191  0.3491 -0.6852 -0.1320
14688TIP3    H165555   1.706   1.562  14.215 -1.2281 -0.3071  0.6307
14688TIP3    H265556   1.639   1.677  14.142  0.1368  0.5898  0.7661
14689TIP3   OH265557   3.547   1.926  13.631  0.4733  0.0547  0.1086
14689TIP3    H165558   3.605   1.909  13.706  0.0543  0.2663  0.4845
14689TIP3    H265559   3.603   1.972  13.568  0.3194  1.7621  1.1379
14690TIP3   OH265560   0.589   1.604  12.446  0.0601 -0.3703  0.5767
14690TIP3    H165561   0.520   1.650  12.399  0.1370  2.0618  2.6287
14690TIP3    H265562   0.544   1.532  12.490 -0.1683 -2.0845 -2.1974
14691TIP3   OH265563   0.003   5.139   4.735  0.1450 -0.4706  0.8842
14691TIP3    H165564   0.077   5.133   4.675 -0.2168 -0.4357  0.4274
14691TIP3    H265565  -0.042   5.055   4.725  0.4229 -0.7060  1.5616
14692TIP3   OH265566   3.022   5.308   5.147 -0.1204 -0.2933  0.1752
14692TIP3    H165567   2.940   5.299   5.194  0.3473  1.4819  1.4273
14692TIP3    H265568   3.084   5.339   5.213  1.0775  0.2484 -1.1636
14693TIP3   OH265569   1.078   6.333   4.894  0.4641  0.4266 -0.4081
14693TIP3    H165570   0.989   6.313   4.865  0.3774 -2.0386  1.2161
14693TIP3    H265571   1.133   6.269   4.848  1.1143  0.5354  0.1934
14694TIP3   OH265572   4.636   1.885   1.622 -0.0884 -0.3278 -0.9010
14694TIP3    H165573   4.672   1.865   1.709  0.3344  0.2465 -0.9405
14694TIP3    H265574   4.555   1.932   1.640 -0.2480 -0.6304 -0.8184
14695TIP3   OH265575   6.102   3.908   5.690 -0.3052 -0.5865 -0.0797
14695TIP3    H165576   6.095   3.990   5.641  1.4593 -0.7799 -0.7383
14695TIP3    H265577   6.035   3.851   5.652 -0.2551 -0.0794 -0.9502
14696TIP3   OH265578   3.720   0.419   4.959  0.3950 -0.6309  0.4093
14696TIP3    H165579   3.787   0.352   4.964 -0.7070 -1.9362 -1.3150
14696TIP3    H265580   3.640   0.373   4.932 -0.5056  1.2815 -0.4375
14697TIP3   OH265581   5.031   2.907   0.352  0.2318 -0.1356  0.1229
14697TIP3    H165582   5.007   2.938   0.439  1.0720  2.0354 -0.3476
14697TIP3    H265583   5.021   2.812   0.357 -0.5605 -0.0031  2.3081
14698TIP3   OH265584   5.770   6.025   4.468 -0.1553 -0.7465  0.0093
14698TIP3    H165585   5.681   6.041   4.498  0.3728  0.7630  0.8793
14698TIP3    H265586   5.766   6.036   4.373 -0.7354  0.2221  0.1304
14699TIP3   OH265587   3.662   6.679  14.166  0.3339  0.0325  0.0898
14699TIP3    H165588   3.656   6.672  14.261  1.6597 -1.5189  0.0845
14699TIP3    H265589   3.663   6.589  14.134 -2.1403  0.4725 -1.5984
14700TIP3   OH265590   2.180   6.128   0.729  0.2728 -0.2110 -0.4070
14700TIP3    H165591   2.124   6.205   0.718 -0.1771 -0.5627 -0.5763
14700TIP3    H265592   2.120   6.057   0.752  0.5580 -0.7704 -1.3633
14701TIP3   OH265593   6.177   4.472   3.643 -0.6568  0.1845  0.0710
14701TIP3    H165594   6.134   4.417   3.577  1.5707  0.1994 -1.5013
14701TIP3    H265595   6.187   4.416   3.719 -0.8283 -0.7153 -0.5575
14702TIP3   OH265596   6.730   3.738   0.800 -0.0643  0.2752 -0.3644
14702TIP3    H165597   6.713   3.831   0.790  0.0401  0.2124 -1.2155
14702TIP3    H265598   6.763   3.710   0.714  2.0712 -0.0970  0.5201
14703TIP3   OH265599   5.902   6.548  13.805  0.8142 -0.2667  0.2948
14703TIP3    H165600   5.922   6.510  13.890 -2.1733 -1.2284  0.6687
14703TIP3    H265601   5.951   6.494  13.742  2.0134 -0.3487  1.2536
14704TIP3   OH265602   0.748   2.728   4.661 -0.3280 -0.4743  0.4500
14704TIP3    H165603   0.767   2.659   4.598 -1.5668 -1.2336  0.8521
14704TIP3    H265604   0.766   2.809   4.615 -0.4699 -1.0342 -0.6245
14705TIP3   OH265605   0.776   5.077   5.631  0.3919 -0.0919 -0.4659
14705TIP3    H165606   0.716   5.056   5.703 -0.5482  1.1260 -0.8416
14705TIP3    H265607   0.732   5.043   5.553  0.4234  0.3552 -0.6838
14706TIP3   OH265608   6.351   1.198   6.368 -0.0273 -0.5005  0.7322
14706TIP3    H165609   6.353   1.274   6.425 -1.6412 -1.0853  1.6615
14706TIP3    H265610   6.339   1.124   6.427  1.7342 -1.5251 -0.1261
14707TIP3   OH265611   5.986   2.847   2.543  0.2063 -0.1347  0.1517
14707TIP3    H165612   5.995   2.781   2.475 -1.1259 -0.4859  0.3028
14707TIP3    H265613   5.896   2.877   2.537  0.3064  0.4521  1.1997
14708TIP3   OH265614   4.527   0.689   6.069 -0.4641  0.0096  0.7885
14708TIP3    H165615   4.606   0.635   6.069 -0.9925 -0.8049 -0.3489
14708TIP3    H265616   4.559   0.779   6.058  0.2934 -0.3432  0.0361
14709TIP3   OH265617   2.366   2.867  11.850 -0.0967 -0.3036  0.0284
14709TIP3    H165618   2.364   2.781  11.893  1.1529  0.0685  0.8682
14709TIP3    H265619   2.274   2.892  11.844 -0.5318 -1.9680 -0.7963
14710TIP3   OH265620   0.052   1.844  13.344 -0.0581 -0.4477 -0.0143
14710TIP3    H165621   0.022   1.824  13.255 -0.0157  0.0887 -0.1496
14710TIP3    H265622   0.120   1.910  13.332  0.3309 -0.7718  0.3798
14711TIP3   OH265623   3.925   6.093  13.034  0.8728 -0.7246  0.1215
14711TIP3    H165624   3.861   6.151  13.075  1.2201 -0.0975 -0.1918
14711TIP3    H265625   4.009   6.124  13.068  1.0156 -1.5319  0.5202
14712TIP3   OH265626   1.807   0.656   2.064  0.1293 -0.0160  0.3160
14712TIP3    H165627   1.761   0.640   1.982 -1.4808  0.4939  1.0815
14712TIP3    H265628   1.840   0.570   2.091 -0.9714 -0.5230  0.0759
14713TIP3   OH265629   3.509   6.186   4.543  0.0521  0.5973  0.1251
14713TIP3    H165630   3.432   6.242   4.553 -0.4144 -0.3836  3.0429
14713TIP3    H265631   3.567   6.212   4.615  1.2977 -0.4313 -0.4694
14714TIP3   OH265632   6.808   4.111   2.954  0.3549 -1.0338 -0.6985
14714TIP3    H165633   6.857   4.193   2.939  2.1138 -2.0920 -1.0570
14714TIP3    H265634   6.719   4.140   2.976  0.7765  0.9535 -1.3735
14715TIP3   OH265635   6.135   5.938   0.600  0.2787 -0.3650  0.4537
14715TIP3    H165636   6.165   5.962   0.512  1.9878 -3.2679  0.0893
14715TIP3    H265637   6.208   5.888   0.637 -1.4614 -1.6101  2.4389
14716TIP3   OH265638   6.308   1.550   5.227 -0.0336 -0.3201  0.5441
14716TIP3    H165639   6.348   1.589   5.149 -1.8859 -0.2400 -0.4274
14716TIP3    H265640   6.251   1.481   5.193  0.8386 -1.8516  2.0187
14717TIP3   OH265641   5.139   2.783  12.649  0.0056 -0.3455 -0.3536
14717TIP3    H165642   5.207   2.841  12.614 -0.1874  0.5862  0.7397
14717TIP3    H265643   5.079   2.769  12.576 -0.1831  1.2360 -0.5409
14718TIP3   OH265644   3.039   5.815   1.794 -0.4882  0.1260  0.0253
14718TIP3    H165645   3.054   5.906   1.770  0.9661 -0.2898 -0.7116
14718TIP3    H265646   3.046   5.814   1.890 -1.6832  0.9704  0.1410
14719TIP3   OH265647   5.582   3.549   5.282  0.5028 -0.2456 -0.1107
14719TIP3    H165648   5.544   3.462   5.289  0.3718 -0.2521 -0.8442
14719TIP3    H265649   5.574   3.586   5.370 -0.4513 -0.5528 -0.0643
14720TIP3   OH265650   5.385   3.717   0.448  0.2035  0.0152  0.4629
14720TIP3    H165651   5.373   3.647   0.513  0.2822  3.1372  4.1677
14720TIP3    H265652   5.300   3.762   0.445 -0.1508 -0.5869 -2.5721
14721TIP3   OH265653   4.509   3.564  11.879  0.3797 -0.4457 -0.3863
14721TIP3    H165654   4.537   3.517  11.800  1.4367 -1.6624  0.6721
14721TIP3    H265655   4.587   3.613  11.907 -0.3326  0.9581 -0.7270
14722TIP3   OH265656   6.118   4.136  14.170 -0.0257  0.0611 -0.3770
14722TIP3    H165657   6.114   4.232  14.171  2.9973  0.2987  1.1949
14722TIP3    H265658   6.068   4.109  14.247 -1.6608  0.2352 -1.3213
14723TIP3   OH265659   2.584   0.873   4.296  0.7603  0.3861 -0.5845
14723TIP3    H165660   2.492   0.885   4.322  1.0774  1.2596  0.2046
14723TIP3    H265661   2.603   0.781   4.314  0.5802  0.6571  1.0634
14724TIP3   OH265662   1.761   0.782   4.102  0.7169 -0.4484 -0.6383
14724TIP3    H165663   1.713   0.703   4.126  1.2609 -1.1690 -1.8475
14724TIP3    H265664   1.841   0.750   4.061  1.7862  0.7324  0.4191
14725TIP3   OH265665   4.274   4.680   2.580  0.5665  1.0882 -0.4616
14725TIP3    H165666   4.348   4.624   2.602  1.4058  1.5733 -1.9270
14725TIP3    H265667   4.259   4.732   2.659  1.3140  0.4698  0.1018
14726TIP3   OH265668   5.304   6.604  14.485 -0.5240  0.0872 -0.5544
14726TIP3    H165669   5.316   6.694  14.457 -2.3491  0.3599 -0.5647
14726TIP3    H265670   5.210   6.588  14.475 -0.3321 -1.6087  0.0575
14727TIP3   OH265671   6.789   0.472  13.897  0.0377 -0.2174 -0.4806
14727TIP3    H165672   6.816   0.387  13.861 -1.7072 -0.1569 -2.1174
14727TIP3    H265673   6.857   0.532  13.868  0.7703 -0.8665 -0.1637
14728TIP3   OH265674   4.000   1.521  14.048 -0.1323  0.4085  0.1507
14728TIP3    H165675   3.961   1.549  14.130  1.3886  0.3465  0.9420
14728TIP3    H265676   3.999   1.425  14.052 -1.0033  0.3856 -0.3934
14729TIP3   OH265677   1.838   3.360   1.708 -0.0835  0.9906  0.3991
14729TIP3    H165678   1.811   3.393   1.623 -1.2048  1.0604  0.7688
14729TIP3    H265679   1.757   3.351   1.758  0.5282  0.7373  1.3879
14730TIP3   OH265680   4.655   3.436   2.215  0.3434 -0.5581  0.1851
14730TIP3    H165681   4.723   3.496   2.248 -1.3077  1.1234  0.7110
14730TIP3    H265682   4.667   3.356   2.266  0.7721  0.3572  1.5853
14731TIP3   OH265683   4.594   3.188   2.352 -0.1898  0.2901  0.0464
14731TIP3    H165684   4.633   3.102   2.342 -0.4139  0.3321 -1.5717
14731TIP3    H265685   4.500   3.173   2.341 -0.1428  0.8448 -1.3621
14732TIP3   OH265686   4.135   6.404   4.070 -0.0234  0.2130  0.3741
14732TIP3    H165687   4.115   6.475   4.009 -0.2904 -0.2635 -0.1086
14732TIP3    H265688   4.074   6.416   4.143 -0.5859  0.0381 -0.0643
14733TIP3   OH265689   0.449   2.639  14.089 -0.0060 -0.3453 -0.3048
14733TIP3    H165690   0.469   2.727  14.058  1.3189 -0.7092 -0.5694
14733TIP3    H265691   0.364   2.618  14.049 -0.8716  1.1950  0.6482
14734TIP3   OH265692   6.133   4.676  14.250  0.2911 -0.7793  0.2605
14734TIP3    H165693   6.056   4.731  14.236  0.1295 -1.2448 -0.8105
14734TIP3    H265694   6.112   4.623  14.327  0.1159  0.0614  0.8049
14735TIP3   OH265695   6.481   2.828   0.926 -0.2869  0.1978  0.2354
14735TIP3    H165696   6.519   2.896   0.982  1.3185 -1.0853  0.7693
14735TIP3    H265697   6.459   2.874   0.844  0.1844  1.4778  0.8015
14736TIP3   OH265698   5.186   1.034  11.425  1.0268 -0.3100 -0.5895
14736TIP3    H165699   5.193   0.984  11.343 -0.2936 -1.2744 -0.1388
14736TIP3    H265700   5.131   1.109  11.403  0.6179 -0.6035 -0.5813
14737TIP3   OH265701   6.633   4.649  15.791 -0.0526 -0.1070  0.3616
14737TIP3    H165702   6.692   4.664  15.717 -1.5211 -0.3856 -0.9186
14737TIP3    H265703   6.662   4.711  15.858  0.6882  0.8795 -0.8296
14738TIP3   OH265704   2.645   3.544   4.971 -0.1324 -0.2060 -0.2447
14738TIP3    H165705   2.702   3.532   5.047 -0.5915 -0.8268  0.0149
14738TIP3    H265706   2.593   3.621   4.992 -1.6530 -1.4990  0.9968
14739TIP3   OH265707   2.542   1.065   1.224  0.0752  0.3461  0.8473
14739TIP3    H165708   2.482   1.095   1.156  0.9568 -3.2698 -1.7935
14739TIP3    H265709   2.492   1.001   1.274  0.7381 -0.2080  0.8075
14740TIP3   OH265710   2.475   0.484   5.030 -0.2536 -1.4742 -0.3254
14740TIP3    H165711   2.457   0.407   4.976 -0.3746 -0.4035 -1.8859
14740TIP3    H265712   2.413   0.550   4.998  0.3487 -0.5024  0.4691
14741TIP3   OH265713   3.280   0.712  11.890 -0.8327 -0.3764  0.7686
14741TIP3    H165714   3.203   0.656  11.894 -1.7170  0.7661  0.3710
14741TIP3    H265715   3.292   0.744  11.980 -1.0939 -0.2094  0.7451
14742TIP3   OH265716   0.289   4.323   1.221 -0.4555 -0.6481 -0.2540
14742TIP3    H165717   0.341   4.253   1.182  0.0736 -0.2431 -0.2905
14742TIP3    H265718   0.208   4.324   1.170  0.5567  0.4349 -1.9657
14743TIP3   OH265719   1.481   3.521  11.472  0.0739 -0.7204 -0.0347
14743TIP3    H165720   1.437   3.509  11.388  0.6641  0.1631 -0.4896
14743TIP3    H265721   1.570   3.549  11.448  0.3699 -0.8516  0.8794
14744TIP3   OH265722   3.758   1.532  16.240 -0.2466 -0.0718 -0.2342
14744TIP3    H165723   3.794   1.445  16.254  0.8485  0.2559 -0.8864
14744TIP3    H265724   3.814   1.590  16.292 -0.8486  0.2761  0.0494
14745TIP3   OH265725   4.033   5.120   0.852  0.5845  0.8728 -0.3027
14745TIP3    H165726   4.027   5.187   0.783  0.2300  0.7840 -0.3578
14745TIP3    H265727   4.126   5.118   0.874  0.5670  1.5585 -0.1320
14746TIP3   OH265728   4.279   2.240  14.105  0.3744 -0.0433 -0.5547
14746TIP3    H165729   4.371   2.224  14.085  0.0199 -3.7892  0.1082
14746TIP3    H265730   4.263   2.193  14.187 -2.1594  0.3875 -0.7095
14747TIP3   OH265731   6.497   4.182   1.290 -0.1601 -0.5330  0.4021
14747TIP3    H165732   6.562   4.219   1.230  0.4136 -2.0048  0.0690
14747TIP3    H265733   6.439   4.131   1.234 -0.2210 -1.0965  0.9580
14748TIP3   OH265734   3.535   5.553  11.628 -0.2894 -0.1026  0.4522
14748TIP3    H165735   3.614   5.552  11.682  1.1356  3.2867 -1.2398
14748TIP3    H265736   3.488   5.631  11.655 -0.1806  0.9760 -2.1361
14749TIP3   OH265737   2.551   1.794  15.088  0.0324 -0.0128  0.2998
14749TIP3    H165738   2.644   1.787  15.106  0.1257 -3.9775 -0.8451
14749TIP3    H265739   2.544   1.861  15.019  2.1112 -0.2106 -0.1586
14750TIP3   OH265740   6.666   6.496  11.215 -0.3039  0.2811 -0.3529
14750TIP3    H165741   6.636   6.442  11.142  0.2514  0.0618 -0.4235
14750TIP3    H265742   6.586   6.517  11.263 -0.6072 -0.0488 -0.7008
14751TIP3   OH265743   4.877   3.297  15.142 -0.5283 -0.2459 -0.3420
14751TIP3    H165744   4.920   3.253  15.216  1.5624  0.1094 -1.2794
14751TIP3    H265745   4.783   3.288  15.160 -0.0953 -1.3523  1.6449
14752TIP3   OH265746   2.297   1.279  12.926  0.4751  0.4110 -0.5355
14752TIP3    H165747   2.243   1.312  12.854 -1.4252  0.4392  0.8364
14752TIP3    H265748   2.292   1.347  12.993  0.3687 -0.5800  0.4967
14753TIP3   OH265749   6.005   1.448   1.654 -0.5371  0.3842 -0.4163
14753TIP3    H165750   5.913   1.433   1.631 -0.9650 -0.7994  1.7375
14753TIP3    H265751   6.001   1.489   1.741  0.9685  1.1359 -0.6749
14754TIP3   OH265752   4.733   2.474  16.559  0.6083  0.4489 -0.1189
14754TIP3    H165753   4.753   2.506  16.471  0.9737  0.3442 -0.0760
14754TIP3    H265754   4.819   2.454  16.597  0.4829  0.8967  0.4147
14755TIP3   OH265755   3.275   4.459  14.232  0.0450 -0.4176  0.3307
14755TIP3    H165756   3.300   4.545  14.198  0.0422 -0.9829 -1.2041
14755TIP3    H265757   3.187   4.444  14.198 -0.1679 -0.7994  1.0317
14756TIP3   OH265758   3.593   2.000   1.146  0.4914 -0.0333  0.9623
14756TIP3    H165759   3.538   2.078   1.158 -1.5391 -1.4558  1.5208
14756TIP3    H265760   3.671   2.032   1.101 -0.8261  2.1002  0.0380
14757TIP3   OH265761   5.033   5.245  14.121 -0.5369 -0.0721  0.2375
14757TIP3    H165762   5.102   5.273  14.061  1.2197  1.2050  2.6864
14757TIP3    H265763   4.980   5.323  14.135  1.3028  0.8184  3.0840
14758TIP3   OH265764   0.189   0.534   1.981  0.1432 -0.7116 -0.3281
14758TIP3    H165765   0.172   0.625   1.959  1.9346  0.0536  1.1863
14758TIP3    H265766   0.231   0.498   1.903  1.0257  0.2649 -0.3177
14759TIP3   OH265767   5.201   1.635   3.337 -0.0795 -0.3012 -0.0947
14759TIP3    H165768   5.261   1.648   3.264 -0.7253  0.6998 -0.4630
14759TIP3    H265769   5.222   1.547   3.370  0.6451 -0.5124 -1.0752
14760TIP3   OH265770   1.364   0.029  14.987  0.8443  0.1027  0.0263
14760TIP3    H165771   1.351   0.098  14.922  0.1116  0.7190  0.8033
14760TIP3    H265772   1.313  -0.045  14.954 -2.1443  1.4002  1.3648
14761TIP3   OH265773   2.104   1.786  14.511  0.2104 -0.2847  0.1481
14761TIP3    H165774   2.157   1.723  14.561  0.6850 -0.9077 -1.0973
14761TIP3    H265775   2.017   1.747  14.508  0.3180 -0.5226  0.0349
14762TIP3   OH265776   1.685   2.485   3.608  0.5308  0.4141  0.6882
14762TIP3    H165777   1.649   2.520   3.526 -1.3981 -0.9658  0.8670
14762TIP3    H265778   1.619   2.505   3.674  0.8511 -0.7558  1.3915
14763TIP3   OH265779   2.427   1.977   0.995  0.4700  0.3338  0.1390
14763TIP3    H165780   2.374   2.001   0.919 -0.1630 -1.2146  0.0546
14763TIP3    H265781   2.364   1.939   1.057  1.5866 -3.1337 -0.6265
14764TIP3   OH265782   2.804   5.121   2.541  0.1907  0.0031 -0.1348
14764TIP3    H165783   2.771   5.148   2.455 -1.1799  3.7112  1.3680
14764TIP3    H265784   2.726   5.119   2.597  1.1718 -1.5032  1.2713
14765TIP3   OH265785   3.935   3.273  16.734 -0.0597 -0.1509  0.2445
14765TIP3    H165786   3.949   3.252  16.826  0.7395  0.2118  0.2125
14765TIP3    H265787   3.888   3.197  16.699 -1.2125  0.1051  1.1482
14766TIP3   OH265788   3.302   3.148   3.574 -0.1505 -0.1028 -0.5005
14766TIP3    H165789   3.231   3.140   3.638  0.4346 -0.3220  0.1289
14766TIP3    H265790   3.261   3.189   3.498 -0.8430  0.2173  0.0382
14767TIP3   OH265791   2.946   0.095   5.923 -1.0506 -0.1193 -0.5966
14767TIP3    H165792   2.956   0.088   5.828  0.1050 -0.4358 -0.4608
14767TIP3    H265793   2.863   0.141   5.935 -2.0749 -1.5667 -1.7410
14768TIP3   OH265794   1.720   6.602   4.425 -0.1016 -0.3383 -0.9584
14768TIP3    H165795   1.650   6.537   4.419  0.6809 -1.4071  0.5751
14768TIP3    H265796   1.796   6.558   4.387  0.0283  0.3409 -1.4836
14769TIP3   OH265797   2.719   0.025   0.886  0.4833 -0.1910 -0.0303
14769TIP3    H165798   2.725   0.114   0.923 -1.2984 -0.2260  0.4621
14769TIP3    H265799   2.698   0.039   0.794  3.5836 -0.1203 -0.8305
14770TIP3   OH265800   4.580   1.804  12.320 -0.1443  0.5335  0.2220
14770TIP3    H165801   4.584   1.788  12.414 -0.2833  0.4423  0.2127
14770TIP3    H265802   4.495   1.844  12.305 -1.7610 -2.7519 -0.3416
14771TIP3   OH265803   3.659   5.107  12.125  0.4136  0.0747  0.1505
14771TIP3    H165804   3.570   5.077  12.103  0.1794  1.1822 -0.5114
14771TIP3    H265805   3.710   5.026  12.131 -0.0941 -0.4856 -1.9743
14772TIP3   OH265806   5.757   2.564  15.023  0.0886  0.0475 -0.3245
14772TIP3    H165807   5.696   2.603  15.085  0.0656  0.1294 -0.3977
14772TIP3    H265808   5.703   2.508  14.967  0.3873 -1.6577  1.0009
14773TIP3   OH265809   0.972   5.710  16.784 -0.0083 -0.1618 -0.1237
14773TIP3    H165810   1.020   5.633  16.754 -1.4318 -1.0145 -0.3346
14773TIP3    H265811   0.997   5.780  16.724  0.7788 -0.6376 -0.3544
14774TIP3   OH265812   5.114   1.024  15.106  0.3934 -0.0848  0.2759
14774TIP3    H165813   5.112   1.081  15.183  1.4402  1.2757 -0.6747
14774TIP3    H265814   5.048   0.957  15.125 -2.6655  2.7050  0.4676
14775TIP3   OH265815   4.493   0.037   4.087  0.0228  0.7227  0.0618
14775TIP3    H165816   4.565  -0.011   4.127  0.3109  0.5866 -0.6171
14775TIP3    H265817   4.501   0.126   4.121  0.1623  0.5706  0.4332
14776TIP3   OH265818   6.735   3.353  16.001  0.2688  0.2661 -0.0981
14776TIP3    H165819   6.816   3.369  16.048  0.0593  2.1218 -0.3082
14776TIP3    H265820   6.682   3.301  16.061  0.3138  1.9236  1.4519
14777TIP3   OH265821   1.234   0.249  11.763 -0.0870 -0.0181 -0.2452
14777TIP3    H165822   1.254   0.228  11.854 -1.7399 -0.0777  0.1502
14777TIP3    H265823   1.291   0.322  11.741  0.9773 -0.5919  0.5297
14778TIP3   OH265824   6.821   5.440   1.418 -0.2985 -0.0016 -0.2728
14778TIP3    H165825   6.889   5.495   1.379 -1.1563  0.6949 -0.8359
14778TIP3    H265826   6.741   5.467   1.374 -0.9455 -0.8028  0.3830
14779TIP3   OH265827   5.176   1.129   6.517  0.6015  0.1312 -0.6696
14779TIP3    H165828   5.231   1.093   6.587  2.4611 -0.1953 -2.2325
14779TIP3    H265829   5.094   1.151   6.561  1.0311 -1.7452  1.2680
14780TIP3   OH265830   0.007   5.015  13.586  0.1598  0.2451  0.2098
14780TIP3    H165831  -0.031   5.103  13.585 -0.1489  0.1169  0.4196
14780TIP3    H265832  -0.068   4.957  13.598  0.1637 -0.1509 -1.4441
14781TIP3   OH265833   3.517   6.296   0.697 -0.2262  0.0059 -0.0577
14781TIP3    H165834   3.551   6.350   0.768  0.6097  1.2744 -1.3694
14781TIP3    H265835   3.593   6.248   0.664  0.1447  1.9256 -2.2030
14782TIP3   OH265836   2.118   6.567  14.926  0.4119  0.0356  0.7115
14782TIP3    H165837   2.078   6.588  14.842  1.4984  1.2523  0.4778
14782TIP3    H265838   2.127   6.471  14.925 -2.3520 -0.3202  0.7550
14783TIP3   OH265839   6.416   1.843  12.014 -0.2947  0.0481 -0.0424
14783TIP3    H165840   6.396   1.750  12.016 -0.5928  0.1228  2.0131
14783TIP3    H265841   6.367   1.880  12.087  2.3408  1.2779  1.2205
14784TIP3   OH265842   5.183   4.070   3.914  0.2394  0.2563  0.1832
14784TIP3    H165843   5.262   4.022   3.941 -0.2085 -0.4531  0.2600
14784TIP3    H265844   5.124   4.063   3.989  0.1914  0.9956  0.2209
14785TIP3   OH265845   1.746   5.313  14.890  0.1607  0.0167 -0.0221
14785TIP3    H165846   1.730   5.283  14.800  0.4953 -0.0860 -0.0500
14785TIP3    H265847   1.700   5.397  14.895  0.2264  0.0738 -0.3242
14786TIP3   OH265848   1.393   6.223   0.675  0.2700 -0.2336 -0.1617
14786TIP3    H165849   1.423   6.173   0.599  0.7083 -2.0842  1.1439
14786TIP3    H265850   1.366   6.308   0.640  3.3166  0.1225 -1.9712
14787TIP3   OH265851   3.630   5.588  16.860  0.0027 -0.0573  0.4303
14787TIP3    H165852   3.690   5.513  16.856 -0.4631 -0.4344  0.4941
14787TIP3    H265853   3.601   5.599  16.769 -1.6858 -1.3962  0.7618
14788TIP3   OH265854   5.462   0.944   2.370  0.1567 -0.4658  0.0008
14788TIP3    H165855   5.400   0.952   2.442 -0.5681 -0.1233 -0.6505
14788TIP3    H265856   5.548   0.959   2.411 -0.1944 -0.7644  0.8718
14789TIP3   OH265857   1.204   5.430   4.428 -0.2620  0.4215  0.2473
14789TIP3    H165858   1.253   5.456   4.350  1.4713  0.6368  1.3630
14789TIP3    H265859   1.216   5.336   4.433 -0.7151  0.3500  0.0470
14790TIP3   OH265860   2.273   6.368  14.057 -0.0364  0.0438  1.2569
14790TIP3    H165861   2.299   6.279  14.078  0.6017 -0.1495 -0.1836
14790TIP3    H265862   2.178   6.368  14.063 -0.1168 -1.0285  0.2837
14791TIP3   OH265863   5.436   2.679  11.240 -0.3042 -0.0744  0.2068
14791TIP3    H165864   5.374   2.608  11.228 -0.5883  0.0457  0.9044
14791TIP3    H265865   5.422   2.736  11.164 -2.0648  0.6952  1.0609
14792TIP3   OH265866   3.711   4.744  12.643  0.4321 -0.0510 -0.7544
14792TIP3    H165867   3.679   4.802  12.712  0.5050  0.2129 -0.9416
14792TIP3    H265868   3.702   4.656  12.680  0.1272  0.0640 -0.5476
14793TIP3   OH265869   6.186   2.059   5.810  0.4585 -0.1156 -0.3139
14793TIP3    H165870   6.130   1.995   5.766 -1.1734  0.2345  1.1294
14793TIP3    H265871   6.275   2.030   5.791 -0.2064 -1.4484 -1.6323
14794TIP3   OH265872   6.754   1.909  11.500  0.3978  0.3926 -0.3665
14794TIP3    H165873   6.812   1.953  11.562 -0.0759 -1.2957  1.3643
14794TIP3    H265874   6.803   1.832  11.472 -0.5828 -0.5254  0.3598
14795TIP3   OH265875   6.005   2.624   1.601  0.6582 -0.2208 -0.5276
14795TIP3    H165876   6.031   2.536   1.629 -1.8685 -0.7237  0.4888
14795TIP3    H265877   5.940   2.609   1.532 -0.6071  0.7663  0.3977
14796TIP3   OH265878   3.040   3.350  13.557 -0.2628  0.4486  0.7313
14796TIP3    H165879   3.006   3.417  13.616 -0.8196  0.7137  0.1125
14796TIP3    H265880   2.964   3.317  13.510  0.1592  0.1625  0.2321
14797TIP3   OH265881   3.654   3.329   3.185  0.4533  0.8426  0.2272
14797TIP3    H165882   3.745   3.354   3.169  0.7293  1.9708  2.9438
14797TIP3    H265883   3.628   3.281   3.107  3.5274  0.0501 -0.4360
14798TIP3   OH265884   6.335   3.299   3.433 -0.4439 -0.5484  0.6666
14798TIP3    H165885   6.343   3.208   3.460  0.5769 -0.3443  1.1100
14798TIP3    H265886   6.389   3.347   3.495 -1.4229  0.4323  0.7842
14799TIP3   OH265887   0.872   6.692  15.868  0.0227 -0.4283 -0.2377
14799TIP3    H165888   0.861   6.651  15.782 -1.1793 -0.2023 -0.2095
14799TIP3    H265889   0.860   6.786  15.851  1.1369 -0.2405 -0.0369
14800TIP3   OH265890   5.785   4.606   4.265  0.0824  0.9420 -0.3124
14800TIP3    H165891   5.819   4.643   4.346  1.1279 -0.3080 -0.1380
14800TIP3    H265892   5.858   4.554   4.230 -0.4199  1.2648 -1.9350
14801TIP3   OH265893   1.724   2.904   1.968 -0.2548  0.1644 -0.3708
14801TIP3    H165894   1.741   2.965   2.040  1.2491 -1.4102  0.6711
14801TIP3    H265895   1.764   2.946   1.891  1.5190  0.1470  0.4941
14802TIP3   OH265896   5.122   2.763  14.687 -0.6990 -0.0176  0.3825
14802TIP3    H165897   5.164   2.846  14.711 -0.4037 -0.3597  1.0746
14802TIP3    H265898   5.167   2.736  14.606 -2.8749  2.0082 -1.6662
14803TIP3   OH265899   2.196   1.005  12.047 -0.2840 -0.3032  0.8181
14803TIP3    H165900   2.255   1.080  12.041 -1.4972  0.6623  0.4594
14803TIP3    H265901   2.243   0.941  12.100  0.6956  0.8103  1.3310
14804TIP3   OH265902   3.917   6.581   2.587 -0.1022  0.4995 -0.0829
14804TIP3    H165903   3.923   6.668   2.549  0.1344  0.5063 -0.0370
14804TIP3    H265904   4.008   6.552   2.596 -0.1453  0.5385  0.5672
14805TIP3   OH265905   0.918   3.050   5.978  0.2730 -0.0950 -0.4105
14805TIP3    H165906   0.950   3.010   6.059 -1.0683  0.1978  0.2877
14805TIP3    H265907   0.872   3.129   6.006 -1.3265 -0.6563 -1.3309
14806TIP3   OH265908   4.116   5.204  15.467  0.2968  0.1795  0.4779
14806TIP3    H165909   4.080   5.116  15.460  0.7476  0.1210 -1.6647
14806TIP3    H265910   4.042   5.258  15.493 -0.4138 -0.5427  0.0020
14807TIP3   OH265911   3.993   4.831  16.561 -0.0848 -0.3570  0.0173
14807TIP3    H165912   3.977   4.831  16.655 -1.3710  1.2142 -0.1526
14807TIP3    H265913   4.053   4.758  16.546  3.4599  1.7376  2.6314
14808TIP3   OH265914   0.724   2.219  12.911  0.1705  0.1569  0.8119
14808TIP3    H165915   0.680   2.240  12.829  1.5540  1.4306  0.3333
14808TIP3    H265916   0.810   2.187  12.884 -0.0391 -1.2477  1.7335
14809TIP3   OH265917   0.949   2.633  13.454 -0.3647  0.1801 -0.0278
14809TIP3    H165918   0.899   2.664  13.379  0.8651  1.4871 -0.3552
14809TIP3    H265919   0.946   2.706  13.516 -0.3406 -0.4097  0.6714
14810TIP3   OH265920   1.759   4.143   2.854  0.3058 -0.3126 -0.1299
14810TIP3    H165921   1.758   4.217   2.915  0.8429 -0.7529  0.4373
14810TIP3    H265922   1.698   4.080   2.892  1.4017 -1.0112  0.5200
14811TIP3   OH265923   0.801   2.626   6.023 -0.6708  0.2342 -0.7996
14811TIP3    H165924   0.853   2.628   6.103 -0.1453  1.6768 -1.1505
14811TIP3    H265925   0.710   2.632   6.054 -0.7625 -2.8579 -0.1545
14812TIP3   OH265926   2.826   2.015   6.288  0.8432 -0.5025 -0.4039
14812TIP3    H165927   2.850   2.091   6.235 -0.1167  0.5428  0.6095
14812TIP3    H265928   2.837   1.940   6.229  1.6203  0.4241 -1.4816
14813TIP3   OH265929   1.589   0.551  12.717  0.1343  0.6482  0.3300
14813TIP3    H165930   1.664   0.549  12.776  0.2617 -3.0842  0.2667
14813TIP3    H265931   1.513   0.558  12.774  0.2883 -2.3428  1.0682
14814TIP3   OH265932   1.725   0.014  12.269  0.0518 -0.0427  0.2053
14814TIP3    H165933   1.799  -0.043  12.291  0.6326 -0.1629 -1.8676
14814TIP3    H265934   1.690   0.042  12.354  0.8457 -2.0588  1.2572
14815TIP3   OH265935   4.714   3.479  15.374  0.3979 -0.2925 -0.6090
14815TIP3    H165936   4.648   3.475  15.443  1.4015  0.0345  0.3994
14815TIP3    H265937   4.763   3.398  15.382 -0.0640 -0.6828 -1.5677
14816TIP3   OH265938   4.162   2.323   4.225 -0.1754  0.0029  0.1657
14816TIP3    H165939   4.124   2.356   4.306  1.2819  1.7802  0.1936
14816TIP3    H265940   4.145   2.392   4.161 -0.9655 -1.2038 -0.9658
14817TIP3   OH265941   4.729   5.599  13.257  0.1010  0.4159 -0.3291
14817TIP3    H165942   4.655   5.646  13.294 -1.0930 -1.6633  0.0805
14817TIP3    H265943   4.696   5.510  13.242  1.8601  0.0000 -2.2263
14818TIP3   OH265944   4.591   3.740  13.130 -0.1737  0.2758 -0.3366
14818TIP3    H165945   4.570   3.829  13.101 -0.3743  0.0620 -0.8598
14818TIP3    H265946   4.625   3.697  13.051 -2.2848 -0.8223 -0.7380
14819TIP3   OH265947   1.734   4.316  12.222  0.7119  0.6783  0.4736
14819TIP3    H165948   1.675   4.270  12.281 -1.2797  0.4385 -1.5381
14819TIP3    H265949   1.821   4.281  12.243 -0.1098 -0.5014  2.1747
14820TIP3   OH265950   0.299   0.294   0.997  0.5481 -0.0488  0.1078
14820TIP3    H165951   0.237   0.225   0.974  1.0664 -0.2835 -0.5810
14820TIP3    H265952   0.347   0.311   0.916  1.0668  0.4610  0.5221
14821TIP3   OH265953   5.855   3.438  13.215  1.0771  1.2469  0.5188
14821TIP3    H165954   5.846   3.533  13.207 -0.0873  1.0051 -4.1589
14821TIP3    H265955   5.808   3.403  13.139  2.0852 -3.0827  1.6038
14822TIP3   OH265956   3.080   4.183   2.714 -0.0603 -0.3948  0.3880
14822TIP3    H165957   3.034   4.178   2.630  0.2073  0.3177  0.1871
14822TIP3    H265958   3.134   4.262   2.706  1.6234 -1.4878  0.4030
14823TIP3   OH265959   1.300   4.972   5.342  0.1183  0.1121 -0.9899
14823TIP3    H165960   1.306   5.007   5.431  0.9684 -0.9394 -0.6186
14823TIP3    H265961   1.256   5.041   5.292 -1.9805  0.0361  0.6116
14824TIP3   OH265962   4.968   2.113  16.732 -0.2146  0.4802  0.1601
14824TIP3    H165963   4.902   2.064  16.684  0.4983 -1.8780  1.4129
14824TIP3    H265964   4.971   2.199  16.689 -1.2814 -0.6706 -2.3863
14825TIP3   OH265965   1.405   6.086   4.529 -0.2922 -0.2239 -0.7846
14825TIP3    H165966   1.429   6.116   4.616 -0.9873 -0.3191 -0.5607
14825TIP3    H265967   1.340   6.018   4.543  1.5946 -2.2494 -1.2524
14826TIP3   OH265968   5.956   6.344   3.780  0.0090 -0.1694 -0.2212
14826TIP3    H165969   5.896   6.364   3.852 -1.6776  0.8389 -1.7992
14826TIP3    H265970   5.911   6.376   3.702  2.1771 -0.3472 -1.6378
14827TIP3   OH265971   5.707   1.157   0.568  0.3882 -0.1061 -0.2190
14827TIP3    H165972   5.679   1.136   0.479  1.2822  0.6665 -0.6955
14827TIP3    H265973   5.761   1.236   0.559  2.2709 -1.2101  0.7161
14828TIP3   OH265974   0.995   2.135   4.592  0.0642 -0.1827 -0.2433
14828TIP3    H165975   0.981   2.151   4.499  0.0154  1.4050  0.0156
14828TIP3    H265976   0.910   2.107   4.625 -0.7128  2.1100 -0.1394
14829TIP3   OH265977   0.375   6.448  15.621  0.0976  0.6258  0.2387
14829TIP3    H165978   0.302   6.425  15.678  1.5230 -2.0090  1.1737
14829TIP3    H265979   0.453   6.423  15.672  1.4958 -0.3099 -2.2188
14830TIP3   OH265980   2.333   2.498   1.559 -0.0370  0.4689 -0.2856
14830TIP3    H165981   2.335   2.533   1.648  1.1146 -0.3416  0.0324
14830TIP3    H265982   2.240   2.497   1.535 -0.2280  2.1772  0.2855
14831TIP3   OH265983   4.026   1.220  11.515 -0.0295 -0.1367  0.3676
14831TIP3    H165984   3.973   1.143  11.534 -0.5096  0.6735  2.7276
14831TIP3    H265985   4.113   1.186  11.495 -0.1559 -1.3040  1.6384
14832TIP3   OH265986   3.010   3.296   4.940  0.0173 -0.2981 -0.3700
14832TIP3    H165987   2.938   3.246   4.902 -0.5377  0.5738 -0.4893
14832TIP3    H265988   3.057   3.332   4.865  1.2325 -1.7211 -0.3327
14833TIP3   OH265989   3.101   6.648   3.291  0.1218 -0.2473  0.0564
14833TIP3    H165990   3.061   6.671   3.207 -1.1076 -1.5336  0.2529
14833TIP3    H265991   3.194   6.637   3.271  0.4752  2.7745 -0.4238
14834TIP3   OH265992   6.612   3.597   1.145  0.3124  0.1737 -0.4663
14834TIP3    H165993   6.523   3.618   1.175  0.3471  1.2493 -1.0433
14834TIP3    H265994   6.639   3.523   1.199 -1.1255 -0.5042 -0.6219
14835TIP3   OH265995   0.688   5.544  13.643 -0.3553  0.4331 -0.4226
14835TIP3    H165996   0.744   5.467  13.634 -0.8363  0.0351 -0.0720
14835TIP3    H265997   0.608   5.521  13.596 -0.6850  0.5325  0.0883
14836TIP3   OH265998   1.101   6.366   5.758  0.5763  0.1438  0.2325
14836TIP3    H165999   1.034   6.327   5.815  0.4038  1.0417  0.6583
14836TIP3    H266000   1.142   6.433   5.812 -0.8558  2.3315 -1.2373
14837TIP3   OH266001   2.189   5.561  13.406  0.0417  0.6227  0.4069
14837TIP3    H166002   2.239   5.479  13.409  0.3471  0.7943  0.0080
14837TIP3    H266003   2.106   5.539  13.449  0.9169  0.6623  2.1870
14838TIP3   OH266004   5.760   5.957  13.477 -0.0954  0.0413 -0.1825
14838TIP3    H166005   5.753   6.026  13.543 -1.1657 -0.3715  0.1564
14838TIP3    H266006   5.752   5.875  13.526  2.2239 -0.4232 -0.4296
14839TIP3   OH266007   1.127   6.208  12.111  0.1199 -0.4259  0.1793
14839TIP3    H166008   1.164   6.133  12.158 -2.8090 -2.7334 -0.8947
14839TIP3    H266009   1.085   6.261  12.178  0.8525 -0.5756  0.7671
14840TIP3   OH266010   6.162   4.792  17.168 -0.3172  0.2327 -0.3205
14840TIP3    H166011   6.159   4.834  17.082 -2.5226  0.2055 -0.3089
14840TIP3    H266012   6.132   4.860  17.229 -0.5854 -0.3014  0.1575
14841TIP3   OH266013   5.657   5.874   3.320  0.3404 -0.1907  0.0819
14841TIP3    H166014   5.669   5.788   3.360 -0.4621  0.4836  1.8647
14841TIP3    H266015   5.734   5.924   3.346 -0.2795  0.3140  1.0020
14842TIP3   OH266016   2.949   5.901  12.180  0.1920  0.2857 -0.2939
14842TIP3    H166017   2.921   5.968  12.117  0.0905  1.3979  0.8696
14842TIP3    H266018   3.042   5.888  12.161  0.2098  0.7537 -0.5558
14843TIP3   OH266019   1.756   2.196   1.182 -0.8078 -0.1557  0.2537
14843TIP3    H166020   1.697   2.241   1.243 -0.4087  0.8586 -0.0958
14843TIP3    H266021   1.708   2.117   1.157 -1.9624  0.5731  0.0956
14844TIP3   OH266022   4.942   3.382  13.353 -0.4019  0.6393  0.1637
14844TIP3    H166023   4.882   3.315  13.385 -0.9688  0.9480 -0.2369
14844TIP3    H266024   4.921   3.390  13.260  0.5181  0.4876 -0.0751
14845TIP3   OH266025   1.622   4.168   3.245 -0.0558 -0.0720  0.2840
14845TIP3    H166026   1.714   4.140   3.242 -0.4621 -1.3905 -1.5110
14845TIP3    H266027   1.619   4.247   3.191 -0.5562 -2.1886 -3.0694
14846TIP3   OH266028   2.769   2.738   4.895  0.0424 -0.4605 -0.0534
14846TIP3    H166029   2.861   2.717   4.909 -0.5581 -2.7979  0.9642
14846TIP3    H266030   2.734   2.663   4.847 -0.8433  1.5630 -2.8610
14847TIP3   OH266031   5.901   2.297  16.596 -0.5684 -0.1245  0.4830
14847TIP3    H166032   5.827   2.284  16.538  0.2290 -2.7657 -0.0619
14847TIP3    H266033   5.863   2.330  16.678 -2.0133  0.9034 -0.5615
14848TIP3   OH266034   6.265   1.233  11.223  0.3239  0.3045 -0.7527
14848TIP3    H166035   6.269   1.238  11.127  1.0884 -0.9972 -0.8172
14848TIP3    H266036   6.171   1.230  11.243  0.1596  0.2063 -1.4919
14849TIP3   OH266037   0.027   4.380  14.939 -0.2585  0.0309  0.2379
14849TIP3    H166038  -0.059   4.403  14.975  0.2791  4.1118 -0.5378
14849TIP3    H266039   0.089   4.406  15.006  0.4707 -0.2017 -0.3276
14850TIP3   OH266040   3.983   1.298  16.667 -0.1046  0.0830  0.7273
14850TIP3    H166041   3.947   1.366  16.724 -1.5394  1.7820 -1.9697
14850TIP3    H266042   4.069   1.331  16.642 -1.1266  1.4568 -1.2320
14851TIP3   OH266043   5.147   3.872   1.711 -0.0119  0.4038  0.0630
14851TIP3    H166044   5.100   3.938   1.763 -1.3536 -0.4688  0.0086
14851TIP3    H266045   5.096   3.792   1.724  1.8002 -0.7386  0.4528
14852TIP3   OH266046   6.090   5.465   1.110  0.5149 -0.0467  0.0788
14852TIP3    H166047   6.013   5.520   1.122 -0.4114 -1.3920  0.5138
14852TIP3    H266048   6.160   5.527   1.087 -0.6534  1.2125 -0.2374
14853TIP3   OH266049   6.163   3.064  15.103  0.0042  0.1824  0.8189
14853TIP3    H166050   6.169   3.003  15.029 -1.7011 -0.1253  0.8803
14853TIP3    H266051   6.172   3.151  15.063 -0.8206  0.0190  0.2441
14854TIP3   OH266052   3.149   6.609  16.841 -0.0628 -0.2502 -0.3737
14854TIP3    H166053   3.127   6.518  16.865 -1.8400  0.2310  0.0032
14854TIP3    H266054   3.113   6.620  16.754 -2.7521  0.9637  0.7773
14855TIP3   OH266055   2.116   1.850   2.884 -0.6317  0.1703 -0.6741
14855TIP3    H166056   2.143   1.783   2.947 -0.8680  0.8498  0.1709
14855TIP3    H266057   2.037   1.889   2.922 -1.2472  0.0513 -1.7868
14856TIP3   OH266058   4.690   1.545   3.080  0.2987  0.0069  0.0272
14856TIP3    H166059   4.613   1.553   3.136  0.8648 -1.4300  1.0758
14856TIP3    H266060   4.747   1.617   3.106 -0.3316  0.5985 -0.1973
14857TIP3   OH266061   5.144   4.665  16.910  0.1101  0.4534  0.1965
14857TIP3    H166062   5.197   4.741  16.886 -1.6890  1.9861  0.7520
14857TIP3    H266063   5.071   4.666  16.848 -1.4801  0.9801  1.9752
14858TIP3   OH266064   0.468   0.070   1.280 -0.3008 -0.0699  0.6564
14858TIP3    H166065   0.531  -0.001   1.290 -0.0583 -0.5704 -2.9830
14858TIP3    H266066   0.387   0.035   1.319  0.2702 -1.6642  0.4986
14859TIP3   OH266067   0.481   1.219   4.120 -0.1640  0.2260  0.0273
14859TIP3    H166068   0.574   1.240   4.117  0.1165 -0.5064  2.0095
14859TIP3    H266069   0.471   1.164   4.197 -2.0055 -1.0325 -1.0184
14860TIP3   OH266070   4.421   6.191   1.018 -0.4152 -0.1774 -0.3580
14860TIP3    H166071   4.379   6.148   1.092  0.7298 -0.8325 -0.0700
14860TIP3    H266072   4.456   6.273   1.054  1.4845 -1.1921  0.2465
14861TIP3   OH266073   6.799   1.034  14.112  0.1914  0.0249 -0.1510
14861TIP3    H166074   6.765   0.952  14.079  1.3201 -0.6870  0.3830
14861TIP3    H266075   6.868   1.009  14.174  0.1623  1.3546  0.4700
14862TIP3   OH266076   4.083   3.031  17.124  0.3404  0.1554 -0.4646
14862TIP3    H166077   4.110   3.118  17.094  0.4120 -0.3263 -1.8753
14862TIP3    H266078   4.131   2.970  17.068  0.2544 -0.8012  0.4693
14863TIP3   OH266079   4.253   2.208   0.168 -0.3938  0.2936  0.2228
14863TIP3    H166080   4.247   2.114   0.152  0.8747  0.1670  0.3187
14863TIP3    H266081   4.212   2.220   0.254 -0.5581 -0.1722  0.2133
14864TIP3   OH266082   6.018   5.509   0.282  0.0272 -0.2512  0.5376
14864TIP3    H166083   5.946   5.567   0.306 -0.2219  0.4551 -1.6718
14864TIP3    H266084   6.097   5.554   0.316 -0.0867  1.8251 -1.6689
14865TIP3   OH266085   3.382   0.906   3.546 -0.0384  0.2472 -0.0750
14865TIP3    H166086   3.371   0.980   3.487 -1.1572  0.2287  0.0932
14865TIP3    H266087   3.331   0.929   3.623 -1.2333 -1.1034 -0.4155
14866TIP3   OH266088   0.030   0.478  16.020  0.3439  0.0715 -0.3337
14866TIP3    H166089  -0.040   0.510  15.963 -0.7141 -0.8091  0.4387
14866TIP3    H266090  -0.012   0.413  16.076  2.1127 -1.6150 -0.8588
14867TIP3   OH266091   5.379   5.532  16.337 -0.2471 -0.3537 -0.4684
14867TIP3    H166092   5.427   5.552  16.257 -2.5786 -0.5062 -1.9821
14867TIP3    H266093   5.402   5.440  16.356 -0.9374 -0.8535 -1.9212
14868TIP3   OH266094   3.589   2.728   3.161  0.5251  0.1388  0.3069
14868TIP3    H166095   3.521   2.695   3.101 -0.3826  1.3745  0.6162
14868TIP3    H266096   3.557   2.814   3.188  1.3239 -0.0490  1.9325
14869TIP3   OH266097   0.028   3.451  17.286 -0.2944 -0.4211 -0.1839
14869TIP3    H166098  -0.010   3.383  17.230 -3.3616  0.6309  0.4270
14869TIP3    H266099   0.066   3.514  17.224 -0.6267 -0.9305 -0.9311
14870TIP3   OH266100   4.502   3.511   1.947  0.3420  0.4813 -0.2269
14870TIP3    H166101   4.450   3.590   1.965  1.1337  0.8029  0.7579
14870TIP3    H266102   4.540   3.488   2.032 -1.8384 -2.4485  0.1436
14871TIP3   OH266103   0.918   1.304  14.885  0.2591 -0.5104  0.1558
14871TIP3    H166104   0.976   1.231  14.908 -1.1967 -1.7284  0.0868
14871TIP3    H266105   0.904   1.350  14.968  1.2250 -0.2442  0.1904
14872TIP3   OH266106   2.049   4.797   2.588  0.2920 -0.5125 -0.0269
14872TIP3    H166107   2.113   4.771   2.654 -0.0313 -0.7319  0.2048
14872TIP3    H266108   2.098   4.801   2.507  0.8667  0.4871  0.3421
14873TIP3   OH266109   2.401   1.202  13.851  0.2981 -0.3669 -0.2631
14873TIP3    H166110   2.364   1.120  13.819 -0.3656 -1.1703  2.3728
14873TIP3    H266111   2.489   1.179  13.882 -0.3796 -0.4585  1.7395
14874TIP3   OH266112   6.037   4.370   4.298 -0.0908 -0.2986  0.2778
14874TIP3    H166113   6.042   4.326   4.213 -0.6834 -1.6794  0.9350
14874TIP3    H266114   6.074   4.457   4.281 -1.9398  0.1916 -1.8775
14875TIP3   OH266115   0.297   2.818  13.234  0.0963 -0.1457 -0.3911
14875TIP3    H166116   0.321   2.908  13.255 -1.5860  0.3661 -0.5631
14875TIP3    H266117   0.268   2.780  13.318 -1.8458  0.3669 -0.7775
14876TIP3   OH266118   0.615   2.322  11.134  0.1585  0.6712  0.5167
14876TIP3    H166119   0.538   2.266  11.147  0.2695 -0.3195 -2.3902
14876TIP3    H266120   0.579   2.406  11.107 -0.0491 -0.2154 -2.3544
14877TIP3   OH266121   1.117   3.253  15.147  0.1269 -0.3697  0.3910
14877TIP3    H166122   1.138   3.175  15.096 -0.0674 -0.4455  0.4264
14877TIP3    H266123   1.082   3.219  15.229 -1.8215 -0.2564 -0.3587
14878TIP3   OH266124   0.358   1.959  12.244  0.0862 -0.8955 -0.5243
14878TIP3    H166125   0.366   2.044  12.288 -2.7243  0.1768 -1.8008
14878TIP3    H266126   0.265   1.938  12.250  0.0104 -1.9748 -3.5394
14879TIP3   OH266127   4.922   6.821  15.134  0.4042  0.5895 -0.2325
14879TIP3    H166128   4.900   6.770  15.056 -0.5741  1.3723 -0.4952
14879TIP3    H266129   4.838   6.860  15.162  0.4369 -0.8055  2.0565
14880TIP3   OH266130   6.256   4.993   3.655 -0.1455  0.3209  0.0199
14880TIP3    H166131   6.217   5.001   3.568 -0.9383 -1.6178  0.1465
14880TIP3    H266132   6.246   4.900   3.677  2.2073  0.2894  1.1803
14881TIP3   OH266133   0.999   1.367   3.501 -0.0621 -0.1793  0.2843
14881TIP3    H166134   0.990   1.313   3.579  0.9539  1.0791  1.3149
14881TIP3    H266135   0.939   1.440   3.516 -0.8256 -0.5680 -0.7260
14882TIP3   OH266136   4.697   4.791   3.257 -0.4961  0.0197 -0.6060
14882TIP3    H166137   4.719   4.701   3.234 -0.6239  0.0461 -0.8361
14882TIP3    H266138   4.763   4.844   3.213  0.9770 -0.0728  1.3617
14883TIP3   OH266139   5.149   6.014   4.805  1.2519  0.4172  0.0011
14883TIP3    H166140   5.083   6.079   4.830 -0.4250 -1.1648 -0.1212
14883TIP3    H266141   5.163   6.030   4.712 -0.1916 -0.2030 -0.3614
14884TIP3   OH266142   5.193   6.582   4.277 -0.4438 -0.0046 -0.5009
14884TIP3    H166143   5.211   6.492   4.305  1.3640  0.3519 -0.4174
14884TIP3    H266144   5.261   6.601   4.212 -1.2935  1.0419 -1.1221
14885TIP3   OH266145   1.918   2.869  11.483  0.0091 -0.4289  0.6727
14885TIP3    H166146   1.869   2.844  11.404  0.0479 -0.4320  0.6497
14885TIP3    H266147   1.883   2.955  11.506 -1.4429 -1.2720  1.8128
14886TIP3   OH266148   3.004   2.503   1.810 -0.1859 -0.1810  0.3081
14886TIP3    H166149   3.012   2.598   1.812  1.7126 -0.2946  0.1354
14886TIP3    H266150   2.924   2.486   1.760 -2.1241  1.3332  2.7123
14887TIP3   OH266151   1.279   2.281   4.413  0.0963  0.0630 -0.3222
14887TIP3    H166152   1.297   2.237   4.496 -0.8672  1.7908  0.8685
14887TIP3    H266153   1.249   2.368   4.439 -0.7336  0.4653 -2.4905
14888TIP3   OH266154   3.063   0.753  16.873  0.2119 -0.0080 -1.1291
14888TIP3    H166155   3.126   0.716  16.936 -0.4668  0.2485 -0.2777
14888TIP3    H266156   3.030   0.677  16.826 -0.5279 -0.4235  0.0081
14889TIP3   OH266157   6.216   6.020   0.351  0.1593  0.2841  0.1580
14889TIP3    H166158   6.233   6.017   0.257  2.4768 -0.0575  0.5402
14889TIP3    H266159   6.272   6.090   0.384  0.3811 -0.4547  1.4475
14890TIP3   OH266160   2.192   0.939   0.441 -0.1363  0.4771  0.2739
14890TIP3    H166161   2.117   0.954   0.383  1.2403 -0.2075 -1.7873
14890TIP3    H266162   2.182   0.849   0.472 -0.9190  0.8722  1.2542
14891TIP3   OH266163   1.482   4.404   0.973  0.0469  0.4239 -0.0291
14891TIP3    H166164   1.542   4.479   0.975  0.6851 -0.0604 -0.8598
14891TIP3    H266165   1.493   4.363   1.059 -0.4708  1.3965  0.5238
14892TIP3   OH266166   4.592   5.490   5.611 -0.4319  0.0265  0.3374
14892TIP3    H166167   4.608   5.396   5.625  1.7443  0.3536  0.4202
14892TIP3    H266168   4.566   5.523   5.697 -2.4485 -0.6718  0.0490
14893TIP3   OH266169   5.737   5.002   1.547  0.3662 -0.2378 -0.3644
14893TIP3    H166170   5.668   5.056   1.507  2.3541  2.3831 -0.5593
14893TIP3    H266171   5.730   5.020   1.640  1.2626  0.7107 -0.4651
14894TIP3   OH266172   4.026   6.562  13.720 -0.3373 -0.0849  0.0618
14894TIP3    H166173   3.987   6.493  13.775  2.7464 -1.5801  0.5615
14894TIP3    H266174   4.043   6.634  13.780 -1.6423  0.3360 -0.0393
14895TIP3   OH266175   2.063   5.544   4.341  0.2409  0.3492  0.3717
14895TIP3    H166176   2.062   5.594   4.422  2.6727  0.3101  0.4936
14895TIP3    H266177   2.085   5.608   4.273  0.9422 -0.0904  0.1703
14896TIP3   OH266178   2.649   2.898  16.319  0.4634 -0.0340 -0.8232
14896TIP3    H166179   2.738   2.893  16.353  1.2914  0.5887 -2.7463
14896TIP3    H266180   2.653   2.967  16.252 -1.7334  0.7634 -0.2098
14897TIP3   OH266181   4.504   3.967  16.186 -0.0619 -0.3829  0.3045
14897TIP3    H166182   4.501   3.970  16.090  0.9697  0.0988  0.2744
14897TIP3    H266183   4.412   3.969  16.212 -0.3431  0.5955 -0.6582
14898TIP3   OH266184   0.097   4.042  10.934  0.3065 -0.3497 -0.6266
14898TIP3    H166185   0.072   3.961  10.979  1.2982  0.1277  0.8415
14898TIP3    H266186   0.155   4.014  10.864 -0.0282 -0.9708 -0.6647
14899TIP3   OH266187   1.146   2.412  11.212 -0.0612  0.3319  0.0639
14899TIP3    H166188   1.055   2.434  11.233 -0.0623  1.5362 -1.0919
14899TIP3    H266189   1.139   2.344  11.145 -0.0565 -2.0779  2.3588
14900TIP3   OH266190   3.386   3.781   3.520 -0.0118 -0.1400 -0.0531
14900TIP3    H166191   3.323   3.711   3.535 -0.6692  0.3007 -0.6654
14900TIP3    H266192   3.447   3.776   3.594  0.8526 -2.2917 -0.8562
14901TIP3   OH266193   3.359   3.167   0.310 -0.2248 -0.1286 -0.5787
14901TIP3    H166194   3.393   3.163   0.399  0.5544  1.5084 -0.7641
14901TIP3    H266195   3.410   3.102   0.262  0.8426  0.4428 -0.2669
14902TIP3   OH266196   6.476   2.632  16.832  0.6479 -0.1245 -0.5173
14902TIP3    H166197   6.464   2.682  16.913  1.2759 -1.8399  0.6722
14902TIP3    H266198   6.486   2.541  16.860  2.3297 -0.6004 -2.4174
14903TIP3   OH266199   4.209   0.144  15.287  0.8484  0.2208 -0.1804
14903TIP3    H166200   4.150   0.086  15.239  0.5561  0.8453 -0.5899
14903TIP3    H266201   4.251   0.196  15.218  0.0458  1.4855  0.2686
14904TIP3   OH266202   3.316   4.670  15.838 -0.0821  0.3608 -0.4333
14904TIP3    H166203   3.308   4.693  15.745 -1.2960  0.3617 -0.3511
14904TIP3    H266204   3.321   4.755  15.883  0.8025  0.3559 -0.5114
14905TIP3   OH266205   0.933   4.749  16.561 -0.1935  0.7245  0.6220
14905TIP3    H166206   0.922   4.665  16.607 -0.4846 -0.3177 -1.2376
14905TIP3    H266207   0.880   4.740  16.482 -0.6160  2.8874  0.5969
14906TIP3   OH266208   3.995   0.679   1.443 -0.4502  0.5710  0.3787
14906TIP3    H166209   4.006   0.752   1.382  4.1506 -1.0640 -1.2037
14906TIP3    H266210   4.062   0.695   1.510  0.8517 -2.1759 -0.1416
14907TIP3   OH266211   0.933   5.513   0.509  0.8219 -0.3991 -0.3800
14907TIP3    H166212   0.983   5.540   0.432  0.7499  1.0484  0.0508
14907TIP3    H266213   0.997   5.470   0.565  1.2060 -0.0908 -0.5791
14908TIP3   OH266214   3.996   5.422  11.285 -0.3206  0.4681 -0.4978
14908TIP3    H166215   3.916   5.444  11.334 -1.1516 -1.0271 -1.1113
14908TIP3    H266216   3.997   5.484  11.213 -2.0838 -0.7091 -1.6398
14909TIP3   OH266217   4.989   1.130   1.353 -0.2063 -0.6403  0.4251
14909TIP3    H166218   4.913   1.142   1.297 -0.4122 -1.4016  0.5320
14909TIP3    H266219   4.957   1.079   1.427 -0.1264  0.9859  1.6454
14910TIP3   OH266220   0.343   4.531  13.246  0.1449  0.2766  0.3450
14910TIP3    H166221   0.365   4.536  13.153  1.6106 -0.0877  0.6484
14910TIP3    H266222   0.339   4.437  13.264  1.7180  0.3249  1.0443
14911TIP3   OH266223   2.283   5.058  12.865 -0.0844 -0.3808 -0.1307
14911TIP3    H166224   2.292   5.126  12.932 -0.4950 -1.0256  0.5937
14911TIP3    H266225   2.189   5.037  12.865 -0.0122 -0.7217 -0.5736
14912TIP3   OH266226   3.220   6.572  14.964  0.1852 -0.1893 -0.0456
14912TIP3    H166227   3.268   6.508  14.912  0.4985  2.0105 -2.7301
14912TIP3    H266228   3.144   6.594  14.910 -0.3295  1.1020  1.1335
14913TIP3   OH266229   6.711   5.186   0.445  0.3538 -0.4455  0.2622
14913TIP3    H166230   6.695   5.265   0.393 -0.6615  0.4904  1.9277
14913TIP3    H266231   6.766   5.132   0.389  0.9629  1.3776 -1.0017
14914TIP3   OH266232   3.918   6.560   4.735  0.4142 -0.2733 -0.2978
14914TIP3    H166233   3.941   6.594   4.821 -1.8909 -2.1479  1.1808
14914TIP3    H266234   3.991   6.502   4.712  1.6028  1.1420 -0.1906
14915TIP3   OH266235   1.124   1.168   2.762 -0.2281 -0.4322 -0.1645
14915TIP3    H166236   1.066   1.233   2.802 -2.0969 -2.3932  0.5228
14915TIP3    H266237   1.095   1.163   2.671  1.7469  1.5456 -1.0134
14916TIP3   OH266238   0.210   4.711  14.268 -0.2711 -0.0112 -0.2511
14916TIP3    H166239   0.200   4.636  14.327  0.3973 -0.7336 -1.0224
14916TIP3    H266240   0.140   4.701  14.204  0.6576 -0.8117 -1.1922
14917TIP3   OH266241   2.699   1.315  15.641 -0.3922 -0.3424  0.1305
14917TIP3    H166242   2.664   1.226  15.636 -1.4914 -0.0091  1.3151
14917TIP3    H266243   2.629   1.370  15.605 -0.9826  0.3032  2.1637
14918TIP3   OH266244   6.228   0.430  11.058  0.0979 -0.1259  0.1074
14918TIP3    H166245   6.133   0.422  11.064  0.0013  0.5028 -0.4250
14918TIP3    H266246   6.247   0.405  10.967  0.3891  0.1674  0.0878
14919TIP3   OH266247   6.180   3.633   5.239  0.5087 -0.5945  0.6034
14919TIP3    H166248   6.135   3.550   5.218 -0.4919 -0.0967  0.7233
14919TIP3    H266249   6.236   3.611   5.313  1.2918 -1.4916 -0.2374
14920TIP3   OH266250   3.844   2.754  13.222  0.1270  0.3077 -0.0168
14920TIP3    H166251   3.777   2.812  13.257  2.6307  1.7760  2.8973
14920TIP3    H266252   3.834   2.759  13.127 -2.5388  1.9798  0.2575
14921TIP3   OH266253   1.127   2.213  16.869 -0.4135  0.1274  1.0755
14921TIP3    H166254   1.202   2.154  16.861  0.5346  1.4145 -0.0262
14921TIP3    H266255   1.094   2.222  16.779 -2.3939 -0.9839  1.6208
14922TIP3   OH266256   4.967   4.392   5.489  0.2224 -0.1662 -0.7746
14922TIP3    H166257   4.981   4.310   5.536  0.7467 -0.1776 -0.9510
14922TIP3    H266258   4.901   4.438   5.540  2.3935  0.8546  1.2844
14923TIP3   OH266259   2.022   0.352  15.831 -0.0573 -0.0517  0.0771
14923TIP3    H166260   1.968   0.341  15.909  0.6774  1.5741  0.8575
14923TIP3    H266261   1.963   0.331  15.758 -1.0342 -0.6208  1.0047
14924TIP3   OH266262   2.313   0.440  11.843 -0.1616  0.1736 -0.7008
14924TIP3    H166263   2.363   0.486  11.775  0.0955  0.1146 -0.5520
14924TIP3    H266264   2.331   0.348  11.827  1.1910  0.2080  0.4164
14925TIP3   OH266265   5.508   2.882  16.602  0.0799  0.3583 -0.1803
14925TIP3    H166266   5.447   2.921  16.539 -0.5269 -0.5942 -0.2026
14925TIP3    H266267   5.479   2.914  16.687 -0.8988 -0.6468 -0.1259
14926TIP3   OH266268   1.767   0.790  13.145 -0.6202 -0.0941  0.2430
14926TIP3    H166269   1.689   0.845  13.153 -0.7041 -0.3475  1.3704
14926TIP3    H266270   1.771   0.742  13.228 -0.2595 -1.4117 -0.5120
14927TIP3   OH266271   5.776   3.078   3.743  0.0843  0.2209 -0.2515
14927TIP3    H166272   5.697   3.027   3.764  0.1532  0.6648  1.1629
14927TIP3    H266273   5.825   3.021   3.684  0.1598 -1.4070  1.2748
14928TIP3   OH266274   1.445   0.651   0.810  0.4252  0.1035 -0.3040
14928TIP3    H166275   1.376   0.711   0.783  0.7366  0.7814  0.3806
14928TIP3    H266276   1.398   0.572   0.837 -0.0993  0.6065  0.2911
14929TIP3   OH266277   4.677   3.457  16.148  0.2176  0.0430  0.3187
14929TIP3    H166278   4.682   3.361  16.149  0.6188  0.0438  1.9363
14929TIP3    H266279   4.600   3.478  16.200  0.3192  0.5997  0.2556
14930TIP3   OH266280   2.672   4.670   5.229 -0.3659  0.5560 -0.4468
14930TIP3    H166281   2.614   4.745   5.212 -0.3695  0.5547 -0.4398
14930TIP3    H266282   2.711   4.650   5.144 -0.6521  0.3261 -0.5248
14931TIP3   OH266283   1.516   6.808  12.112 -0.3914 -0.2516  0.3948
14931TIP3    H166284   1.463   6.738  12.150 -1.4811 -0.4277 -1.3189
14931TIP3    H266285   1.596   6.810  12.164 -0.8182 -2.0249  1.1618
14932TIP3   OH266286   5.233   5.387  15.204 -0.1235 -0.2317  0.6060
14932TIP3    H166287   5.142   5.392  15.234  0.1784  0.6575  1.4616
14932TIP3    H266288   5.279   5.452  15.258  0.6987  0.5780 -0.9872
14933TIP3   OH266289   4.384   2.871  14.741  0.2556 -0.5394 -0.2091
14933TIP3    H166290   4.426   2.928  14.805  0.0858 -1.3660  0.6654
14933TIP3    H266291   4.427   2.786  14.753  0.2256 -0.7111 -1.2069
14934TIP3   OH266292   4.408   6.366  15.817 -0.3950 -0.0177  0.7119
14934TIP3    H166293   4.423   6.458  15.842  2.0706 -0.5853  1.6153
14934TIP3    H266294   4.408   6.318  15.899  0.7184 -1.0918  0.1121
14935TIP3   OH266295   1.335   1.363   5.686  0.0679 -0.3378 -0.1880
14935TIP3    H166296   1.339   1.443   5.739  0.2395 -0.0375 -0.6526
14935TIP3    H266297   1.288   1.301   5.741  2.7404 -0.9801  1.5644
14936TIP3   OH266298   4.061   4.427   3.218  0.0136 -0.0898  0.1031
14936TIP3    H166299   3.970   4.400   3.206  0.2590 -0.2660 -1.5661
14936TIP3    H266300   4.055   4.520   3.239 -0.6038 -0.4082  1.4657
14937TIP3   OH266301   2.155   2.051   5.327 -0.4307 -0.0894  0.4575
14937TIP3    H166302   2.181   2.024   5.415  1.4943  0.1933  0.0195
14937TIP3    H266303   2.127   2.142   5.336  1.1121  0.4014  0.5829
14938TIP3   OH266304   0.907   3.708  12.512 -0.0492  0.3970  0.7264
14938TIP3    H166305   0.836   3.679  12.455  0.3717 -0.6928  0.7230
14938TIP3    H266306   0.872   3.783  12.559 -1.6040 -0.7618  1.5150
14939TIP3   OH266307   2.975   0.599  13.032 -0.1176  0.5523 -0.3387
14939TIP3    H166308   2.985   0.515  13.076 -1.6607  1.6695  2.3811
14939TIP3    H266309   2.881   0.607  13.015  0.3400  0.4150 -3.5660
14940TIP3   OH266310   1.548   0.965  13.972  0.1789  0.6182  0.4015
14940TIP3    H166311   1.542   1.053  13.935 -0.5941  0.9188  1.2119
14940TIP3    H266312   1.494   0.911  13.915 -0.0785  0.8497  0.4234
14941TIP3   OH266313   0.915   0.536  15.295 -0.9558  0.1011  0.2448
14941TIP3    H166314   0.948   0.624  15.310  0.9334 -0.5597  0.2268
14941TIP3    H266315   0.899   0.501  15.383 -0.6258  0.0776  0.2962
14942TIP3   OH266316   5.630   1.311  12.850  0.0993 -0.1450 -0.1853
14942TIP3    H166317   5.661   1.235  12.800 -0.2237 -0.5930  0.2824
14942TIP3    H266318   5.541   1.327  12.816  0.0260 -0.2097 -0.0261
14943TIP3   OH266319   1.278   4.453  15.857  0.1277  0.7054 -0.2050
14943TIP3    H166320   1.324   4.506  15.922 -0.6347 -1.7485  2.5610
14943TIP3    H266321   1.291   4.362  15.886 -1.8931 -0.4071 -2.3989
14944TIP3   OH266322   6.223   2.796   5.177  0.0984  0.2943  0.2757
14944TIP3    H166323   6.197   2.807   5.268  0.8007  0.1197  0.5044
14944TIP3    H266324   6.152   2.835   5.127 -0.2683  0.4392  0.9005
14945TIP3   OH266325   5.598   5.674  16.648 -0.3817  0.7015 -0.2786
14945TIP3    H166326   5.508   5.688  16.676 -0.8981  2.1023 -2.4195
14945TIP3    H266327   5.603   5.581  16.625 -0.9406  0.3722  0.8844
14946TIP3   OH266328   1.004   2.922   6.208 -0.1092 -0.3995  0.0979
14946TIP3    H166329   0.986   2.989   6.273  0.3516 -1.4999  1.4071
14946TIP3    H266330   0.948   2.848   6.232  2.1616 -1.9207  1.0968
14947TIP3   OH266331   4.789   0.848  12.409 -0.4045  0.0491  0.2010
14947TIP3    H166332   4.729   0.866  12.337 -0.3541  0.0904  0.1691
14947TIP3    H266333   4.747   0.888  12.485 -0.2962  0.2994  0.1323
14948TIP3   OH266334   0.686   1.887  10.523 -0.6193  0.3874  0.0864
14948TIP3    H166335   0.623   1.874  10.594 -1.6688  0.9853 -0.7214
14948TIP3    H266336   0.689   1.982  10.509  0.0726  0.3297 -0.2408
14949TIP3   OH266337   6.438   4.684  16.006  0.0312  0.4154 -0.4927
14949TIP3    H166338   6.478   4.675  15.920  1.7765  1.5049  0.1456
14949TIP3    H266339   6.400   4.598  16.024  0.3206 -0.0564 -2.0124
14950TIP3   OH266340   1.821   4.436   1.691 -0.6734 -0.3409 -0.2986
14950TIP3    H166341   1.778   4.511   1.648  0.7462  0.5442 -0.2383
14950TIP3    H266342   1.868   4.475   1.764  0.6520 -1.1935 -0.6678
14951TIP3   OH266343   1.658   5.631  15.541 -0.0138  0.2613 -0.3598
14951TIP3    H166344   1.692   5.720  15.551 -1.0866  0.6122  0.1841
14951TIP3    H266345   1.733   5.581  15.509  0.7424  1.2445 -0.1656
14952TIP3   OH266346   3.132   4.477   5.019 -0.0583 -0.7076 -0.4498
14952TIP3    H166347   3.120   4.572   5.031  2.8578 -0.1711 -1.0956
14952TIP3    H266348   3.092   4.438   5.097 -0.2623  1.1262  0.4306
14953TIP3   OH266349   0.803   3.399   4.643  0.4780 -0.4924 -0.2969
14953TIP3    H166350   0.864   3.353   4.585 -0.1776 -0.7693 -0.7707
14953TIP3    H266351   0.803   3.489   4.610  0.3571 -0.5745 -0.5251
14954TIP3   OH266352   5.030   1.238   2.071 -0.1286 -0.1542  0.0673
14954TIP3    H166353   4.962   1.259   2.006 -0.3726 -0.0383  0.3551
14954TIP3    H266354   5.019   1.305   2.139 -0.2149 -0.5797  0.4795
14955TIP3   OH266355   0.167   6.086   4.105 -0.3827  0.3572  0.5056
14955TIP3    H166356   0.130   6.173   4.095  0.8712  0.8216 -0.4346
14955TIP3    H266357   0.114   6.030   4.048 -0.0564  0.8863 -0.3437
14956TIP3   OH266358   4.391   1.484   3.639  0.6017 -0.3902 -0.4929
14956TIP3    H166359   4.414   1.434   3.561  1.0384 -0.7937 -0.1182
14956TIP3    H266360   4.364   1.417   3.702  1.9765 -0.2486  0.2907
14957TIP3   OH266361   1.782   5.600   3.695 -0.6275  0.5583  0.2750
14957TIP3    H166362   1.764   5.516   3.737 -0.6341 -0.5872 -1.8588
14957TIP3    H266363   1.698   5.647   3.698 -0.4097  0.8916  2.2336
14958TIP3   OH266364   4.372   0.394   2.143 -0.0528 -0.5253  0.1734
14958TIP3    H166365   4.453   0.391   2.091  1.0551 -0.4008  1.8180
14958TIP3    H266366   4.305   0.425   2.082  1.3436  0.3457 -0.9815
14959TIP3   OH266367   4.190   5.652  16.065 -0.6999 -0.2977 -0.3340
14959TIP3    H166368   4.243   5.684  16.139  0.9070 -2.3581 -0.4824
14959TIP3    H266369   4.219   5.704  15.990 -0.2483 -0.1369 -0.0520
14960TIP3   OH266370   3.154   1.193   1.245 -0.1575  0.0826  0.1040
14960TIP3    H166371   3.075   1.212   1.296  1.3766  1.5781  2.0891
14960TIP3    H266372   3.172   1.274   1.198  0.7042  0.0585  0.3856
14961TIP3   OH266373   4.169   2.394   3.311  0.5477  0.2275 -0.2786
14961TIP3    H166374   4.166   2.298   3.321 -0.9501  0.2754  0.0605
14961TIP3    H266375   4.077   2.420   3.314  0.9720  1.7349  0.1223
14962TIP3   OH266376   4.085   5.015   4.706  0.1852  0.2296  0.1642
14962TIP3    H166377   4.141   5.005   4.783  0.0813  1.8170  0.4832
14962TIP3    H266378   4.016   5.075   4.734 -1.3044 -1.1170 -0.4434
14963TIP3   OH266379   5.585   4.131  10.642  0.1486 -0.3748 -0.1670
14963TIP3    H166380   5.654   4.065  10.652  0.2686 -0.2365 -0.0857
14963TIP3    H266381   5.520   4.108  10.707  2.1522  2.1246  3.0111
14964TIP3   OH266382   1.942   5.153   4.962 -0.3679 -0.1662 -0.4320
14964TIP3    H166383   2.008   5.222   4.963 -0.7609  0.2323 -1.3251
14964TIP3    H266384   1.973   5.090   5.028  0.2934  0.5712 -0.0184
14965TIP3   OH266385   1.291   2.815   1.459  0.0919 -0.0720  0.1189
14965TIP3    H166386   1.227   2.800   1.528 -0.0555 -0.7839 -0.1694
14965TIP3    H266387   1.335   2.897   1.484 -0.9741  0.4645  0.2807
14966TIP3   OH266388   0.279   2.761  17.187 -0.1901 -0.0535 -0.0783
14966TIP3    H166389   0.264   2.740  17.095  1.9530  0.9995 -0.7544
14966TIP3    H266390   0.373   2.744  17.200 -0.0215  1.6680  1.3350
14967TIP3   OH266391   4.680   0.502   1.627  0.2186 -0.2046 -0.3901
14967TIP3    H166392   4.758   0.502   1.572 -1.0722  0.0469 -2.3141
14967TIP3    H266393   4.701   0.443   1.699  1.8772 -0.7766 -1.3061
14968TIP3   OH266394   3.965   2.445  16.841  0.4955 -0.6185 -0.0578
14968TIP3    H166395   3.976   2.443  16.936 -1.5872 -1.3025  0.2196
14968TIP3    H266396   3.938   2.535  16.821 -0.8150 -0.9127  0.2727
14969TIP3   OH266397   2.818   1.969  15.589 -0.4927  0.2734 -0.5208
14969TIP3    H166398   2.779   2.044  15.633 -2.4068 -0.2350 -1.2745
14969TIP3    H266399   2.909   1.995  15.574 -1.0089  2.2697 -0.4317
14970TIP3   OH266400   1.544   0.388   1.797 -0.7361  0.4984  0.0187
14970TIP3    H166401   1.565   0.375   1.705  0.4104 -0.8522  0.4483
14970TIP3    H266402   1.526   0.482   1.804 -0.1949  0.7333 -1.4393
14971TIP3   OH266403   6.528   0.290   2.500  0.2508 -0.1620 -0.2127
14971TIP3    H166404   6.539   0.267   2.408 -1.2282  3.0496 -1.3367
14971TIP3    H266405   6.610   0.264   2.541  0.8647 -1.9047 -2.3440
14972TIP3   OH266406   4.012   2.053  16.262 -0.3606 -0.6172 -0.0631
14972TIP3    H166407   3.956   2.128  16.280 -0.6771 -1.0621  0.8867
14972TIP3    H266408   4.085   2.062  16.324  0.5307 -0.1564 -1.1427
14973TIP3   OH266409   6.004   5.841  13.738  0.2936  0.4417 -0.0757
14973TIP3    H166410   5.969   5.914  13.689 -0.1334  1.1425  1.2240
14973TIP3    H266411   5.952   5.838  13.818  1.9198  0.2813  1.0230
14974TIP3   OH266412   3.445   2.731   5.229 -0.3704  0.6783 -0.5531
14974TIP3    H166413   3.404   2.736   5.315 -1.0256  1.5709 -0.8990
14974TIP3    H266414   3.434   2.819   5.192  1.8455  0.9391 -0.6921
14975TIP3   OH266415   5.373   4.734  11.693  0.1408  0.1875 -0.2698
14975TIP3    H166416   5.349   4.667  11.629  2.2689 -1.3367  0.4254
14975TIP3    H266417   5.420   4.801  11.642  0.2736 -0.1460 -0.5846
14976TIP3   OH266418   2.455   6.296  16.682 -0.2904  0.1283  0.4290
14976TIP3    H166419   2.372   6.288  16.635 -0.3296 -0.5277  0.6045
14976TIP3    H266420   2.430   6.325  16.770 -0.1383  2.5553 -0.2506
14977TIP3   OH266421   4.861   6.736  14.899 -0.1303 -0.0538 -0.5984
14977TIP3    H166422   4.799   6.784  14.845 -0.1207  1.8130  0.9256
14977TIP3    H266423   4.942   6.733  14.848 -0.6274  0.0417 -1.4053
14978TIP3   OH266424   6.711   3.762  12.516  0.3781  0.1382 -0.2933
14978TIP3    H166425   6.675   3.711  12.588  0.8705  2.1491  1.4867
14978TIP3    H266426   6.756   3.698  12.461  0.6241 -1.3980  1.5945
14979TIP3   OH266427   6.817   0.729  16.093  0.1673  0.4564  0.5267
14979TIP3    H166428   6.814   0.633  16.089 -0.5898  0.4449  1.2613
14979TIP3    H266429   6.910   0.750  16.081  0.0896 -0.2434 -1.8038
14980TIP3   OH266430   5.610   2.899  12.205 -0.5214 -0.9198 -0.1430
14980TIP3    H166431   5.582   2.921  12.116 -0.8514 -2.3959 -0.4236
14980TIP3    H266432   5.551   2.830  12.233 -1.3639  0.4691  1.7955
14981TIP3   OH266433   4.821   5.262  12.612 -0.2437 -0.0076 -0.0133
14981TIP3    H166434   4.807   5.234  12.702  1.0232 -0.4223  0.0642
14981TIP3    H266435   4.768   5.202  12.560 -0.7886  0.0839  0.4219
14982TIP3   OH266436   5.593   3.941  13.082 -0.6875 -0.6975  0.1616
14982TIP3    H166437   5.554   3.899  13.006 -2.2713  0.9185  0.0225
14982TIP3    H266438   5.526   4.001  13.114  1.2488  1.3882  0.6156
14983TIP3   OH266439   4.403   0.047   4.767  0.0053 -0.3955  0.1187
14983TIP3    H166440   4.475  -0.014   4.779 -0.1227 -0.6825 -0.5643
14983TIP3    H266441   4.419   0.116   4.832  0.7718 -0.5675  0.1168
14984TIP3   OH266442   3.266   0.142  14.978  0.3384 -0.0819 -0.1768
14984TIP3    H166443   3.254   0.236  14.962 -0.8964 -0.0031  1.0435
14984TIP3    H266444   3.330   0.138  15.049  1.2118 -0.2286 -0.9454
14985TIP3   OH266445   4.708   3.269  10.645  0.1456 -0.7754  0.4764
14985TIP3    H166446   4.680   3.219  10.721  1.5790 -1.0733  0.8490
14985TIP3    H266447   4.723   3.358  10.678 -2.2313 -0.0715 -0.1489
14986TIP3   OH266448   2.222   0.645  14.041 -0.4825  0.2756 -0.1695
14986TIP3    H166449   2.273   0.711  14.089  1.2106 -1.1007  0.0315
14986TIP3    H266450   2.268   0.635  13.958 -0.7435 -0.5787 -0.2221
14987TIP3   OH266451   2.598   4.961  15.085  0.3047  0.3538 -0.0193
14987TIP3    H166452   2.513   4.952  15.042  0.0044 -0.9263  0.7956
14987TIP3    H266453   2.591   5.043  15.134  0.0273  0.9250 -0.9836
14988TIP3   OH266454   5.130   2.199  15.306 -0.4473  0.4961 -0.4471
14988TIP3    H166455   5.147   2.293  15.295 -1.3162  0.7346  0.0883
14988TIP3    H266456   5.201   2.168  15.362  2.1003 -0.0298 -3.6515
14989TIP3   OH266457   0.350   2.854   2.190  0.3794  0.0932  0.2668
14989TIP3    H166458   0.322   2.945   2.195 -0.5727 -0.1217 -0.8174
14989TIP3    H266459   0.346   2.832   2.097 -1.4158 -1.6477  0.6791
14990TIP3   OH266460   3.745   0.278  16.503 -0.0635 -0.1196 -0.3329
14990TIP3    H166461   3.734   0.249  16.412 -0.3768 -1.6060  0.1489
14990TIP3    H266462   3.805   0.214  16.541  1.1453  1.2481  0.1829
14991TIP3   OH266463   3.715   5.595  15.274 -0.1560  0.2525  0.9169
14991TIP3    H166464   3.663   5.675  15.269  0.7645  1.0028  2.5419
14991TIP3    H266465   3.662   5.536  15.327 -0.3912  0.1516  0.5706
14992TIP3   OH266466   1.317   4.124  16.787 -0.9803  0.0153 -0.0134
14992TIP3    H166467   1.401   4.122  16.834 -0.0436 -1.2222 -1.6160
14992TIP3    H266468   1.315   4.041  16.739 -0.9580  1.8656 -3.5807
14993TIP3   OH266469   4.059   1.886   1.648 -0.7950  0.0926 -0.0982
14993TIP3    H166470   4.072   1.839   1.730  2.1146  1.6628  0.4588
14993TIP3    H266471   4.055   1.817   1.582  1.4732 -1.0769  0.8894
14994TIP3   OH266472   0.684   4.784  17.195 -0.1699  0.0223 -0.1019
14994TIP3    H166473   0.610   4.733  17.228  0.2822 -1.5933 -1.4774
14994TIP3    H266474   0.652   4.875  17.196 -2.2301 -0.6345 -0.7370
14995TIP3   OH266475   3.776   2.822   3.872 -0.5090  0.3053 -0.0365
14995TIP3    H166476   3.841   2.882   3.834  0.4157  0.6143  1.9077
14995TIP3    H266477   3.789   2.830   3.966 -2.5025 -0.6461  0.3628
14996TIP3   OH266478   4.715   5.148  14.587  0.0574 -0.4409 -0.0186
14996TIP3    H166479   4.680   5.235  14.606  0.4939 -0.1514 -0.5041
14996TIP3    H266480   4.704   5.099  14.668 -2.7326 -0.8043 -0.5061
14997TIP3   OH266481   3.020   4.734  11.185 -0.2867  0.5014 -0.1821
14997TIP3    H166482   3.074   4.749  11.262 -1.4733  1.6883  0.4362
14997TIP3    H266483   2.932   4.718  11.219 -0.4489 -0.9841 -1.2010
14998TIP3   OH266484   4.635   2.098  13.763 -0.0593 -0.4404 -0.2534
14998TIP3    H166485   4.599   2.162  13.702 -0.2677  0.9799  1.2662
14998TIP3    H266486   4.728   2.093  13.742 -0.3040 -0.7221 -1.2972
14999TIP3   OH266487   6.687   2.867   3.640  0.6688  0.2419  0.1711
14999TIP3    H166488   6.720   2.799   3.699  0.5202  1.3593  1.5881
14999TIP3    H266489   6.716   2.949   3.680 -0.7522  1.1003 -0.4922
15000TIP3   OH266490   3.704   0.658  15.525 -0.1850 -0.4855 -0.0664
15000TIP3    H166491   3.776   0.722  15.521  1.7612 -2.3930  1.6001
15000TIP3    H266492   3.669   0.667  15.613 -1.6450 -0.0049 -0.6694
15001TIP3   OH266493   2.828   1.194   5.077 -0.0095  0.4737  0.1223
15001TIP3    H166494   2.919   1.172   5.097  0.2806  2.6611  1.5118
15001TIP3    H266495   2.831   1.284   5.045 -1.4507 -0.2294 -2.2448
15002TIP3   OH266496   2.038   2.803   3.662  0.8208  0.2108  0.5049
15002TIP3    H166497   2.037   2.720   3.710  1.0477 -0.1576 -0.1130
15002TIP3    H266498   1.951   2.808   3.622  1.0772 -0.1280 -0.1120
15003TIP3   OH266499   6.546   5.889  12.054  0.3281  0.6953 -0.4055
15003TIP3    H166500   6.635   5.901  12.085 -0.2487  0.9368  1.2601
15003TIP3    H266501   6.508   5.977  12.054 -0.0876  0.5216 -0.5630
15004TIP3   OH266502   0.164   0.393   5.862 -0.1224  0.2508  0.1598
15004TIP3    H166503   0.092   0.430   5.913 -0.5273 -0.1864 -0.0849
15004TIP3    H266504   0.123   0.364   5.780  0.3121 -0.1186  0.0689
15005TIP3   OH266505   2.955   3.899  10.746 -0.2350  0.4433  0.0445
15005TIP3    H166506   2.925   3.899  10.655  0.6974  1.8747 -0.2951
15005TIP3    H266507   2.885   3.943  10.794 -0.4459  0.2512 -0.0851
15006TIP3   OH266508   3.686   1.309   0.894  0.7762  0.4603 -0.4028
15006TIP3    H166509   3.708   1.228   0.848  0.0140 -1.3014  2.1218
15006TIP3    H266510   3.757   1.320   0.958 -0.6557 -0.0272  1.3723
15007TIP3   OH266511   6.167   6.205  16.889  0.3193  0.0533  0.5183
15007TIP3    H166512   6.197   6.114  16.898  1.0881  0.1457 -0.8171
15007TIP3    H266513   6.089   6.199  16.834  0.8559  0.2610 -0.2800
15008TIP3   OH266514   2.066   0.032   2.877 -0.2729  0.0438 -0.2880
15008TIP3    H166515   2.091   0.063   2.964  0.3289 -0.8578 -0.1218
15008TIP3    H266516   2.150   0.012   2.834 -0.6230 -2.8015  0.1783
15009TIP3   OH266517   1.680   0.516  16.208 -0.1846  0.3813  0.1492
15009TIP3    H166518   1.722   0.602  16.209 -1.4582  1.0415 -0.4830
15009TIP3    H266519   1.618   0.520  16.135 -1.1132 -0.6529  0.8309
15010TIP3   OH266520   3.535   4.031   2.543  0.4288 -0.1788  0.5544
15010TIP3    H166521   3.452   4.074   2.521  1.4048  2.0513  1.0441
15010TIP3    H266522   3.540   3.958   2.482 -0.8260  0.9816 -1.0225
15011TIP3   OH266523   6.114   0.768   2.577 -0.0610 -0.1480  0.4559
15011TIP3    H166524   6.160   0.821   2.642  1.4532 -1.0312  0.1545
15011TIP3    H266525   6.102   0.827   2.502  0.5598  0.1104  0.5544
15012TIP3   OH266526   5.367   4.708  15.235  0.3160 -0.0384 -0.2788
15012TIP3    H166527   5.359   4.653  15.156 -0.8755  0.6504 -0.6725
15012TIP3    H266528   5.372   4.645  15.307 -2.2176 -0.7319 -0.6093
15013TIP3   OH266529   4.997   4.133   0.520 -0.0719 -0.5481 -0.7808
15013TIP3    H166530   5.019   4.194   0.450 -0.1999 -2.0011 -2.1537
15013TIP3    H266531   4.963   4.056   0.475  0.4806 -1.8125  0.8490
15014TIP3   OH266532   2.179   2.976  12.490  0.8152 -0.2190 -0.7562
15014TIP3    H166533   2.150   2.982  12.581 -2.9265  1.1333 -1.8323
15014TIP3    H266534   2.183   3.066  12.460 -0.7249 -0.6914 -2.5803
15015TIP3   OH266535   4.699   0.056   2.647 -0.0911  0.0480 -0.2395
15015TIP3    H166536   4.724   0.022   2.562  0.8448  0.2390 -0.0565
15015TIP3    H266537   4.604   0.068   2.642 -0.0362  0.1175 -1.2654
15016TIP3   OH266538   1.076   6.200   2.813 -0.0117 -0.0257 -0.0773
15016TIP3    H166539   1.120   6.119   2.838 -1.9856 -1.2954 -0.4800
15016TIP3    H266540   0.991   6.195   2.857 -1.1911  0.5559 -2.1583
15017TIP3   OH266541   1.997   5.429   0.671  0.0812  0.2102 -0.0394
15017TIP3    H166542   2.026   5.348   0.714 -0.9574 -1.1007 -1.6473
15017TIP3    H266543   1.965   5.400   0.585 -3.2434  1.8421  0.4862
15018TIP3   OH266544   1.491   1.556   2.255 -0.5092 -0.0325 -0.1853
15018TIP3    H166545   1.507   1.540   2.162  0.7334  1.0261 -0.1742
15018TIP3    H266546   1.493   1.468   2.294 -0.3746 -0.4335 -1.0615
15019TIP3   OH266547   0.666   1.648  13.574  0.0941  0.3519 -0.3078
15019TIP3    H166548   0.622   1.731  13.593 -1.8709 -0.8801  0.8652
15019TIP3    H266549   0.608   1.604  13.512  1.6431  0.2255 -1.7515
15020TIP3   OH266550   0.883   2.958   5.503 -0.1476 -0.2264 -0.0778
15020TIP3    H166551   0.836   2.902   5.565  0.9647 -1.0394  0.0542
15020TIP3    H266552   0.886   3.044   5.546  0.6274 -0.7801  1.0251
15021TIP3   OH266553   3.607   6.518   6.374 -0.5611  0.0972 -0.4169
15021TIP3    H166554   3.627   6.449   6.437  0.2080  0.2111 -0.5182
15021TIP3    H266555   3.635   6.483   6.290  1.6300  1.2025 -0.2234
15022TIP3   OH266556   4.591   1.036  16.956  0.3172  1.0916 -0.2037
15022TIP3    H166557   4.553   0.965  17.007  0.5293  0.0454 -1.4413
15022TIP3    H266558   4.643   1.086  17.019 -0.4542  0.6152  0.8403
15023TIP3   OH266559   6.248   3.539  12.279  0.4660 -0.3923 -0.4159
15023TIP3    H166560   6.160   3.553  12.246  0.7990 -1.3127 -1.7640
15023TIP3    H266561   6.237   3.514  12.370 -0.5588  0.9330 -0.1439
15024TIP3   OH266562   3.202   0.954   3.759  0.0728  0.2496 -0.1607
15024TIP3    H166563   3.112   0.944   3.727  0.6336 -1.5289 -1.3013
15024TIP3    H266564   3.210   1.047   3.779 -2.4968  0.2163  1.4645
15025TIP3   OH266565   3.054   1.479   0.838 -0.3589 -0.0561  0.2703
15025TIP3    H166566   3.010   1.445   0.760 -1.7369  2.8241 -0.3460
15025TIP3    H266567   3.133   1.522   0.804  0.5984 -1.2492  0.8710
15026TIP3   OH266568   4.919   1.484  13.577 -0.5390  0.2752 -0.0261
15026TIP3    H166569   4.855   1.413  13.569 -0.0633 -0.5407  2.4554
15026TIP3    H266570   4.938   1.488  13.671  0.6532  2.6570 -0.3001
15027TIP3   OH266571   6.059   6.416  14.434  0.1159 -0.2197 -0.0211
15027TIP3    H166572   6.043   6.473  14.359  0.9963 -1.1979 -0.9891
15027TIP3    H266573   6.016   6.460  14.507 -3.2793 -0.6105 -1.5955
15028TIP3   OH266574   1.266   2.122   1.350  0.4563 -0.8312 -0.0768
15028TIP3    H166575   1.340   2.072   1.315  0.7495 -0.3982 -0.0859
15028TIP3    H266576   1.241   2.180   1.278  0.3377 -0.7242  0.0515
15029TIP3   OH266577   4.456   4.955   5.369 -0.1794  0.2708 -0.5944
15029TIP3    H166578   4.439   4.922   5.457 -0.9070  3.8171  0.7348
15029TIP3    H266579   4.385   4.920   5.316  1.2137 -3.3887 -0.3608
15030TIP3   OH266580   2.032   3.233  12.636  0.0486 -0.8574 -0.0067
15030TIP3    H166581   2.072   3.165  12.691 -1.9143 -1.3424  0.8813
15030TIP3    H266582   1.942   3.205  12.623 -0.5366  1.0652 -0.5052
15031TIP3   OH266583   0.653   6.760  13.197 -0.2987 -0.3043 -0.0763
15031TIP3    H166584   0.674   6.678  13.243  1.2492 -0.1042 -0.3656
15031TIP3    H266585   0.715   6.824  13.234 -1.0736  0.5859 -0.2996
15032TIP3   OH266586   4.807   1.554   1.264 -0.9360  0.6195  0.0461
15032TIP3    H166587   4.783   1.590   1.179 -0.4781 -0.6288 -0.6451
15032TIP3    H266588   4.752   1.601   1.327 -3.5641 -0.5410 -1.2408
15033TIP3   OH266589   0.318   5.635   3.726 -0.7007  0.1017  1.0595
15033TIP3    H166590   0.236   5.597   3.757 -1.8911  0.8849 -0.9776
15033TIP3    H266591   0.333   5.595   3.640  0.2279  1.1319  0.7136
15034TIP3   OH266592   2.545   3.741   2.636 -0.0499 -0.2750  0.2398
15034TIP3    H166593   2.450   3.746   2.645 -0.0330  1.3782 -0.1035
15034TIP3    H266594   2.559   3.683   2.561 -0.6954 -1.8520  1.2956
15035TIP3   OH266595   2.506   0.972  14.588  0.1538  0.2407  0.3499
15035TIP3    H166596   2.571   0.988  14.657 -0.3374 -1.2337  1.1944
15035TIP3    H266597   2.452   1.051  14.588  0.6943  0.6267  1.0478
15036TIP3   OH266598   5.592   3.777   6.241 -0.3436 -0.2074 -1.1006
15036TIP3    H166599   5.686   3.791   6.227 -0.4646  1.5044 -0.3763
15036TIP3    H266600   5.550   3.822   6.169 -0.6567  0.6981 -0.3709
15037TIP3   OH266601   1.160   1.686   5.094  0.4216 -0.2279  0.2407
15037TIP3    H166602   1.099   1.657   5.026 -0.0340  0.0117  0.5395
15037TIP3    H266603   1.118   1.764   5.131  1.6878  0.9057 -0.6437
15038TIP3   OH266604   2.366   4.241   5.441  0.0581  0.2996  0.0764
15038TIP3    H166605   2.372   4.198   5.526 -0.3899 -0.2743 -0.1697
15038TIP3    H266606   2.273   4.261   5.431  0.2252  1.0976  0.0693
15039TIP3   OH266607   4.240   0.997  16.093 -0.1948 -0.8518  0.1812
15039TIP3    H166608   4.273   0.954  16.172 -1.0069 -0.8197  0.5457
15039TIP3    H266609   4.290   0.957  16.021  1.3305 -0.0964  0.7881
15040TIP3   OH266610   3.724   4.015  13.456  0.3724  0.1426 -0.7855
15040TIP3    H166611   3.646   3.962  13.441 -0.4521  0.7503  1.0371
15040TIP3    H266612   3.697   4.104  13.431  0.4524  0.3649 -0.0958
15041TIP3   OH266613   5.759   6.420  11.430  0.5276 -0.0534  0.1675
15041TIP3    H166614   5.732   6.367  11.355  2.1888 -0.7466  0.0078
15041TIP3    H266615   5.839   6.463  11.401  1.4102 -0.6157  1.6447
15042TIP3   OH266616   0.724   4.028  13.209  0.4425 -0.3144  0.1562
15042TIP3    H166617   0.693   4.115  13.233  1.7823  0.2422 -0.0463
15042TIP3    H266618   0.788   4.006  13.276  1.7918 -0.1506 -1.0405
15043TIP3   OH266619   5.094   1.859   2.349 -0.6297  0.3200 -0.2431
15043TIP3    H166620   5.000   1.876   2.342 -0.5452  0.9130  0.0222
15043TIP3    H266621   5.135   1.937   2.312 -0.2397  0.6727  0.8935
15044TIP3   OH266622   4.871   0.574   3.461 -0.0633  0.0509 -0.6326
15044TIP3    H166623   4.948   0.630   3.454  0.6192 -0.9788 -1.8020
15044TIP3    H266624   4.833   0.574   3.373 -0.7858 -0.3145 -0.3299
15045TIP3   OH266625   3.147   3.221   2.449 -0.2486 -0.2808  0.5149
15045TIP3    H166626   3.117   3.146   2.397 -0.4492 -1.1985  1.9073
15045TIP3    H266627   3.229   3.190   2.489  0.2104  0.6204  0.2920
15046TIP3   OH266628   0.527   2.742  16.931 -0.4249  0.1005  0.0660
15046TIP3    H166629   0.613   2.702  16.944 -0.5125 -0.2772 -0.4798
15046TIP3    H266630   0.547   2.835  16.915 -0.1413  0.0725  0.2527
15047TIP3   OH266631   5.328   1.269  14.495 -0.4810  0.1093 -0.1490
15047TIP3    H166632   5.269   1.289  14.423 -1.5204  0.0827  0.6641
15047TIP3    H266633   5.305   1.179  14.520  1.1875 -0.5867 -0.9978
15048TIP3   OH266634   4.419   4.750  14.654 -0.0667  0.2483  0.0999
15048TIP3    H166635   4.415   4.666  14.700 -2.1238 -0.5283 -1.3608
15048TIP3    H266636   4.403   4.728  14.562  0.3741  2.1402 -0.4648
15049TIP3   OH266637   3.381   2.386  11.929 -0.0668 -0.2679  0.2610
15049TIP3    H166638   3.442   2.431  11.988  0.3338 -0.6892  0.1699
15049TIP3    H266639   3.432   2.316  11.890 -1.1305 -1.9965  1.7914
15050TIP3   OH266640   2.356   3.329   5.748 -0.1143  0.0213 -0.3601
15050TIP3    H166641   2.312   3.277   5.682  1.3760  0.1096 -1.4846
15050TIP3    H266642   2.434   3.278   5.771  2.3411  2.3341 -2.7522
15051TIP3   OH266643   6.157   1.680  14.295 -0.2230 -0.3856  0.0050
15051TIP3    H166644   6.250   1.674  14.320 -0.0320  0.3250 -0.4769
15051TIP3    H266645   6.121   1.594  14.314  0.6063 -0.7586 -0.0645
15052TIP3   OH266646   2.283   2.477   4.701  0.5563  0.2333  0.5581
15052TIP3    H166647   2.233   2.451   4.624 -1.3093 -2.1124  2.4097
15052TIP3    H266648   2.330   2.398   4.728 -0.0859  0.5157  2.6860
15053TIP3   OH266649   0.107   0.883  13.868 -0.1240 -0.4872  0.1824
15053TIP3    H166650   0.025   0.915  13.907 -1.1177 -1.7972 -0.7476
15053TIP3    H266651   0.147   0.961  13.830 -1.6324  0.0034 -0.5139
15054TIP3   OH266652   2.638   6.131  17.204  0.0033 -0.7001  0.1117
15054TIP3    H166653   2.600   6.052  17.166 -0.4445 -0.0246 -0.8856
15054TIP3    H266654   2.730   6.129  17.176 -0.5774  0.3724 -2.0806
15055TIP3   OH266655   6.433   3.442  11.086 -0.0486  0.2431  0.3177
15055TIP3    H166656   6.354   3.473  11.131 -0.0512  1.4475 -0.4616
15055TIP3    H266657   6.447   3.354  11.120 -0.4854  0.8192  2.0823
15056TIP3   OH266658   5.190   6.703   5.462  0.1262 -0.1512  0.9712
15056TIP3    H166659   5.116   6.687   5.404  0.1857 -2.0893  1.3599
15056TIP3    H266660   5.151   6.719   5.548  0.1109  0.5135  0.8429
15057TIP3   OH266661   0.543   1.987  17.104 -0.0531  0.2836  0.5731
15057TIP3    H166662   0.548   1.891  17.106 -2.6487  0.0979  1.7476
15057TIP3    H266663   0.548   2.009  17.011 -0.6304 -1.1138  0.1768
15058TIP3   OH266664   4.127   1.830   1.175 -0.4568 -0.4478  0.2613
15058TIP3    H166665   4.138   1.804   1.083 -0.4017  0.1485  0.0959
15058TIP3    H266666   4.201   1.888   1.192 -0.9677  0.1634  0.4143
15059TIP3   OH266667   4.316   5.587  10.923  0.7852 -0.4034 -0.0274
15059TIP3    H166668   4.308   5.599  11.018 -0.9806  0.6076 -0.2698
15059TIP3    H266669   4.366   5.505  10.914  0.2709 -0.9656  1.7673
15060TIP3   OH266670   1.485   4.045  13.116  0.4369  0.2216  0.6664
15060TIP3    H166671   1.439   4.065  13.035  0.9615 -0.7583  0.1141
15060TIP3    H266672   1.458   3.957  13.138  2.7793 -0.8131 -0.2299
15061TIP3   OH266673   2.424   5.431  14.823 -0.2816 -0.3680  0.3637
15061TIP3    H166674   2.387   5.344  14.804 -2.3279  0.2163  1.4498
15061TIP3    H266675   2.353   5.492  14.806  1.3529  1.2476 -1.1442
15062TIP3   OH266676   6.639   6.099  15.623 -0.2677 -0.1475 -0.2367
15062TIP3    H166677   6.622   6.083  15.716  0.9040  1.1958  0.2437
15062TIP3    H266678   6.732   6.121  15.620 -0.7130  1.7851 -1.4417
15063TIP3   OH266679   5.349   5.016  14.519 -0.0194 -0.0214 -0.4754
15063TIP3    H166680   5.412   4.953  14.485  1.0573  1.3140 -1.0717
15063TIP3    H266681   5.299   5.043  14.441 -0.1511  0.2165 -0.3090
15064TIP3   OH266682   0.148   0.543  14.310  0.0941  0.6598 -0.5641
15064TIP3    H166683   0.056   0.539  14.284  0.1822 -0.4769 -0.7401
15064TIP3    H266684   0.161   0.466  14.364  0.7676  1.2181  0.0849
15065TIP3   OH266685   3.769   0.677  14.103  0.6042  0.4340  0.0711
15065TIP3    H166686   3.776   0.592  14.147 -2.7456  1.4152  2.9301
15065TIP3    H266687   3.817   0.737  14.160 -1.2934  1.2406  0.8691
15066TIP3   OH266688   1.935   4.805  10.888 -0.4237 -0.0935  0.1414
15066TIP3    H166689   1.997   4.732  10.891 -0.2210  0.0807  0.2080
15066TIP3    H266690   1.962   4.857  10.813 -0.7002 -0.2038 -0.0351
15067TIP3   OH266691   3.843   2.513  13.753 -0.5174  0.2792  0.1371
15067TIP3    H166692   3.890   2.596  13.762  1.5715 -0.8669  0.5108
15067TIP3    H266693   3.760   2.527  13.798 -0.9674  2.6728 -1.2468
15068TIP3   OH266694   4.462   5.237  11.438 -0.0209 -0.1078 -0.2845
15068TIP3    H166695   4.465   5.317  11.385 -0.6493  0.5654  0.6507
15068TIP3    H266696   4.443   5.167  11.376 -1.3559  0.7405 -0.8625
15069TIP3   OH266697   5.904   5.413   3.320 -0.5654  0.1262  0.0805
15069TIP3    H166698   5.893   5.364   3.238 -1.8999  2.4475 -1.2370
15069TIP3    H266699   5.996   5.398   3.344  0.2648  0.3890 -2.5706
15070TIP3   OH266700   3.959   6.395   1.163  0.4965 -0.3954 -0.0617
15070TIP3    H166701   4.004   6.325   1.116 -1.2102 -2.1832  0.7941
15070TIP3    H266702   3.984   6.383   1.254  0.7345  0.5910  0.0201
15071TIP3   OH266703   2.229   1.102   2.115  0.1062  0.2391  0.7078
15071TIP3    H166704   2.301   1.165   2.117 -0.6605  1.6055 -3.6342
15071TIP3    H266705   2.265   1.026   2.070 -0.4001 -0.2884  1.1812
15072TIP3   OH266706   4.119   2.616  11.266 -0.4131 -0.1157  0.0341
15072TIP3    H166707   4.118   2.610  11.171 -0.4357 -0.1393  0.0360
15072TIP3    H266708   4.211   2.633  11.288 -0.4049 -0.1288  0.0093
15073TIP3   OH266709   3.119   1.964  14.783 -0.0375 -0.4355 -0.3010
15073TIP3    H166710   3.045   1.906  14.795  0.2794 -0.6449  0.7592
15073TIP3    H266711   3.083   2.041  14.739 -1.3487  0.3814  2.0553
15074TIP3   OH266712   6.670   4.493  12.809 -0.8751  0.1218  0.2745
15074TIP3    H166713   6.766   4.495  12.806 -0.8261 -0.3458  1.2092
15074TIP3    H266714   6.647   4.545  12.886 -1.3784  0.2803  0.0219
15075TIP3   OH266715   4.080   6.764  16.440 -0.4083 -0.4389  0.0063
15075TIP3    H166716   4.136   6.688  16.455  0.9021  0.5654  0.3707
15075TIP3    H266717   3.992   6.735  16.465 -0.3729 -2.5112 -1.9905
15076TIP3   OH266718   0.945   1.386   5.070 -0.7264  0.5925  0.2671
15076TIP3    H166719   0.937   1.291   5.058 -0.3986  0.4231  1.3128
15076TIP3    H266720   0.876   1.423   5.015  0.3793 -0.1443 -1.7364
15077TIP3   OH266721   0.425   5.936   4.142 -0.2312 -0.2963 -0.4789
15077TIP3    H166722   0.505   5.949   4.192 -0.3960 -0.7154 -0.0978
15077TIP3    H266723   0.364   6.002   4.175  0.4577  1.1334 -1.9102
15078TIP3   OH266724   4.633   2.796   5.731  0.2056  0.0399  0.1344
15078TIP3    H166725   4.547   2.758   5.744 -0.1400  0.0509 -1.7938
15078TIP3    H266726   4.671   2.801   5.819 -1.1796 -1.2857  0.8555
15079TIP3   OH266727   3.230   3.152  15.404 -0.5553  0.2521  0.1460
15079TIP3    H166728   3.191   3.218  15.347  0.1143  0.4982 -0.0380
15079TIP3    H266729   3.167   3.080  15.404 -0.7294  0.3970 -0.6217
15080TIP3   OH266730   2.778   0.105   4.527 -0.4493 -0.6648  0.2837
15080TIP3    H166731   2.759   0.014   4.550 -1.1991  0.1191  3.2202
15080TIP3    H266732   2.765   0.154   4.609  1.1775  1.9202 -0.8611
15081TIP3   OH266733   1.597   6.357   1.742  0.1973  0.0746 -0.5708
15081TIP3    H166734   1.524   6.350   1.803 -0.4821  0.2705 -1.3366
15081TIP3    H266735   1.634   6.444   1.760  0.2703 -0.0439 -0.1470
15082TIP3   OH266736   6.384   0.465   3.273 -0.3671 -0.2915  0.2714
15082TIP3    H166737   6.472   0.447   3.239  0.9564  1.1657  2.6451
15082TIP3    H266738   6.325   0.431   3.206  1.9749 -2.2746 -0.9448
15083TIP3   OH266739   0.843   5.352   4.589 -0.5958  1.0799 -1.0135
15083TIP3    H166740   0.847   5.257   4.579 -2.3579  0.6168  1.5610
15083TIP3    H266741   0.800   5.384   4.510  0.1943 -0.2295 -1.9923
15084TIP3   OH266742   4.720   2.365   3.781  0.0603  0.1013  0.0597
15084TIP3    H166743   4.657   2.294   3.791  0.3722 -0.2477 -0.4327
15084TIP3    H266744   4.806   2.323   3.787  0.2485  0.5194  0.3486
15085TIP3   OH266745   6.176   4.648   4.803 -0.7207  0.1527  0.1139
15085TIP3    H166746   6.148   4.580   4.864  2.0441 -0.6973  0.6086
15085TIP3    H266747   6.186   4.602   4.719  0.6938 -0.0066  0.3390
15086TIP3   OH266748   6.729   6.152   2.660  0.0103  0.3161 -0.5763
15086TIP3    H166749   6.753   6.219   2.724 -0.2221  0.0123 -0.1658
15086TIP3    H266750   6.801   6.153   2.597  0.8667 -0.2127  0.3502
15087TIP3   OH266751   2.390   1.118   3.205  0.1292  0.4040 -0.9290
15087TIP3    H166752   2.356   1.030   3.224  0.3499  0.1210 -1.7908
15087TIP3    H266753   2.357   1.138   3.117  0.8188  0.8131 -1.1006
15088TIP3   OH266754   5.227   5.691   4.244 -0.4079 -1.0744 -0.2444
15088TIP3    H166755   5.203   5.673   4.335  0.2702 -3.4460 -0.4591
15088TIP3    H266756   5.150   5.735   4.207 -0.6767 -0.0587  1.4575
15089TIP3   OH266757   4.347   0.105  14.768  0.1849  0.5762  0.4119
15089TIP3    H166758   4.292   0.044  14.718  2.3632 -0.6728 -0.5724
15089TIP3    H266759   4.354   0.065  14.855  1.1752 -0.3740 -0.0755
15090TIP3   OH266760   4.688   1.362  15.787 -0.2471 -0.2376 -0.7220
15090TIP3    H166761   4.643   1.436  15.827  2.6364  1.8285 -1.0255
15090TIP3    H266762   4.687   1.380  15.693 -0.7269 -1.3766 -0.9631
15091TIP3   OH266763   5.404   0.127  13.226 -0.1456  0.2122  0.2310
15091TIP3    H166764   5.354   0.207  13.243 -0.1700  0.2024  0.2066
15091TIP3    H266765   5.495   0.156  13.223 -0.1554  0.2404  0.2133
15092TIP3   OH266766   0.822   6.438   0.755 -0.0204  0.2598  0.6621
15092TIP3    H166767   0.737   6.447   0.798 -0.6623  1.1061 -0.7186
15092TIP3    H266768   0.823   6.506   0.687  1.6874  0.1481  0.5178
15093TIP3   OH266769   2.893   1.193  12.373  0.1793 -0.5349 -0.5136
15093TIP3    H166770   2.938   1.142  12.440  1.1987  0.0683 -0.7215
15093TIP3    H266771   2.858   1.269  12.421 -1.1162 -1.2611 -0.2524
15094TIP3   OH266772   5.843   4.164  10.476 -0.0110 -0.4467 -0.1548
15094TIP3    H166773   5.824   4.257  10.490 -0.3506 -0.4600 -0.5533
15094TIP3    H266774   5.770   4.118  10.517 -0.4807 -0.5102 -1.0611
15095TIP3   OH266775   0.564   6.434   0.253  0.0506  0.2034  0.3421
15095TIP3    H166776   0.560   6.490   0.330 -0.9756  0.2025  0.3040
15095TIP3    H266777   0.473   6.427   0.224  0.2810 -0.7410 -0.1854
15096TIP3   OH266778   0.479   6.365  16.070  0.0083 -0.8595  0.2591
15096TIP3    H166779   0.443   6.285  16.108  0.4944 -0.7802  0.8900
15096TIP3    H266780   0.566   6.374  16.110  0.7257 -1.0163 -1.1768
15097TIP3   OH266781   1.103   2.345   2.807  0.2640 -0.1064 -0.1975
15097TIP3    H166782   1.165   2.336   2.735  1.9732 -2.5995  1.4287
15097TIP3    H266783   1.022   2.306   2.773 -0.2839  2.3015 -1.9977
15098TIP3   OH266784   3.967   1.196  13.807  0.0535 -1.1343  0.2816
15098TIP3    H166785   3.974   1.219  13.900  2.5322  3.6389 -0.7372
15098TIP3    H266786   4.047   1.146  13.789  1.1952  0.6199  0.2458
15099TIP3   OH266787   5.647   6.406  15.435 -0.2261 -0.0454 -0.0954
15099TIP3    H166788   5.553   6.387  15.432 -0.1016 -2.8172  4.2734
15099TIP3    H266789   5.689   6.325  15.408  0.7624  0.0070  1.1733
15100TIP3   OH266790   6.803   2.866  16.338  0.4105  0.2376 -0.3069
15100TIP3    H166791   6.843   2.864  16.425  1.3545  1.0913 -0.7033
15100TIP3    H266792   6.750   2.787  16.335 -0.0108  0.4165  1.2134
15101TIP3   OH266793   3.644   6.398  16.099 -0.4710 -0.5972 -0.1726
15101TIP3    H166794   3.596   6.340  16.041  1.0902  0.3097 -2.5219
15101TIP3    H266795   3.590   6.477  16.105 -0.2512 -0.3542 -1.1812
15102TIP3   OH266796   4.696   0.258   1.780 -0.0009 -0.6928 -0.2243
15102TIP3    H166797   4.754   0.220   1.715  0.1030  0.1082 -0.6162
15102TIP3    H266798   4.612   0.214   1.767 -0.3422  0.3722 -1.7876
15103TIP3   OH266799   5.685   5.689   5.380 -0.2235 -0.0119 -0.0465
15103TIP3    H166800   5.774   5.657   5.395  0.1539  1.4451  1.0575
15103TIP3    H266801   5.676   5.691   5.285  0.2020 -2.0022 -0.1766
15104TIP3   OH266802   6.441   1.226  15.534  0.7149 -0.0746  0.0214
15104TIP3    H166803   6.404   1.186  15.613 -0.8414 -0.7025 -0.9909
15104TIP3    H266804   6.505   1.289  15.568 -1.7796  1.6719  1.9586
15105TIP3   OH266805   4.151   2.410   0.049  1.0590  0.0713  0.0555
15105TIP3    H166806   4.079   2.389   0.107  1.3203 -0.0792  0.3289
15105TIP3    H266807   4.213   2.338   0.060  1.4418  0.4083  0.1492
15106TIP3   OH266808   3.071   0.166  14.606 -0.5710  0.3726 -0.1065
15106TIP3    H166809   3.028   0.167  14.691  0.1618 -1.4385  0.3303
15106TIP3    H266810   3.163   0.149  14.625 -0.3234  0.3512 -1.2368
15107TIP3   OH266811   4.156   0.508  12.744  0.9011  0.0193 -0.8544
15107TIP3    H166812   4.192   0.486  12.830 -1.4274  0.0295  0.2164
15107TIP3    H266813   4.133   0.600  12.750 -0.5904 -0.3140 -0.9154
15108TIP3   OH266814   5.011   6.302  14.621 -0.2949  0.3090 -0.1180
15108TIP3    H166815   4.931   6.267  14.581 -0.8113 -0.9420  1.8626
15108TIP3    H266816   5.075   6.232  14.612  0.1386  0.7299 -0.3656
15109TIP3   OH266817   1.828   3.763  16.635 -0.2533  0.1676  0.1258
15109TIP3    H166818   1.775   3.696  16.592 -1.3018  0.6545  0.6342
15109TIP3    H266819   1.833   3.735  16.726  0.8259 -0.1490 -0.0138
15110TIP3   OH266820   2.744   0.339  13.860 -0.4753 -0.6117  0.0107
15110TIP3    H166821   2.683   0.267  13.874 -1.2688  0.1578  0.6800
15110TIP3    H266822   2.781   0.357  13.946 -0.1549 -0.3347 -0.1795
15111TIP3   OH266823   6.410   4.630   0.069 -0.2793  0.1594 -0.5311
15111TIP3    H166824   6.393   4.542   0.102 -0.7740 -0.4139 -2.1763
15111TIP3    H266825   6.495   4.654   0.106  0.0170 -1.1513 -0.3151
15112TIP3   OH266826   0.228   4.024  15.997 -0.2625  0.2647 -0.6715
15112TIP3    H166827   0.236   3.993  15.907 -1.6451 -0.7146 -0.4902
15112TIP3    H266828   0.311   4.001  16.038  0.1778  0.2525 -1.5531
15113TIP3   OH266829   5.505   5.729  12.563  0.1491 -0.1881 -0.2584
15113TIP3    H166830   5.591   5.723  12.523 -0.0099  0.0419 -0.6455
15113TIP3    H266831   5.471   5.639  12.561  0.2577 -0.2265 -0.3832
15114TIP3   OH266832   3.262   6.013  15.655  0.0702 -0.2839 -0.3419
15114TIP3    H166833   3.332   6.062  15.697  0.1972 -1.8667  1.3819
15114TIP3    H266834   3.182   6.043  15.698  0.0345 -0.7725 -0.0610
15115TIP3   OH266835   5.446   1.864  14.508  0.1967 -0.1015  0.2243
15115TIP3    H166836   5.406   1.777  14.510  0.6940 -0.3575 -0.5783
15115TIP3    H266837   5.428   1.897  14.420  0.4266  0.4197  0.3633
15116TIP3   OH266838   1.065   3.699   4.210  0.2419  0.1682 -0.0076
15116TIP3    H166839   1.098   3.657   4.131 -0.1721 -0.9820  0.4181
15116TIP3    H266840   1.100   3.788   4.206  0.2981  0.1007 -1.4346
15117TIP3   OH266841   0.030   3.107  15.875  0.7552 -0.4004  0.4787
15117TIP3    H166842   0.065   3.149  15.953 -0.8987  0.3256  0.8479
15117TIP3    H266843   0.035   3.174  15.807  1.5603 -0.8184  0.1024
15118TIP3   OH266844   4.121   2.142   1.030  0.0965 -0.2977 -0.0465
15118TIP3    H166845   4.178   2.072   1.062  1.8586  0.6824 -0.8964
15118TIP3    H266846   4.117   2.204   1.103 -0.4028 -0.6441  0.2298
15119TIP3   OH266847   5.154   2.364  17.080  0.0524  0.4290  0.2716
15119TIP3    H166848   5.092   2.430  17.112 -0.5319  0.1801 -0.3136
15119TIP3    H266849   5.227   2.367  17.142  0.2801  1.9824 -0.0165
15120TIP3   OH266850   0.576   2.137  10.581  0.8166  0.0164  0.3445
15120TIP3    H166851   0.508   2.076  10.610  1.4620 -0.8348  0.1093
15120TIP3    H266852   0.562   2.215  10.635 -0.1054 -0.2834  0.5634
15121TIP3   OH266853   1.236   5.371   0.597 -0.2283  0.8437 -0.4900
15121TIP3    H166854   1.209   5.292   0.550  1.2569 -0.4675  0.7550
15121TIP3    H266855   1.214   5.354   0.688  1.9239  0.9474  0.1191
15122TIP3   OH266856   4.200   0.835  14.062  0.0548  0.5160 -0.2731
15122TIP3    H166857   4.190   0.849  13.968 -0.1580 -1.0442 -0.5221
15122TIP3    H266858   4.158   0.910  14.103 -0.9668  0.5890 -1.4165
15123TIP3   OH266859   2.445   4.701  12.352  0.5522 -0.0598  0.2796
15123TIP3    H166860   2.385   4.751  12.296 -0.1970 -1.5154 -0.2777
15123TIP3    H266861   2.529   4.707  12.307  0.4824  0.6753  0.2247
15124TIP3   OH266862   5.949   0.836   0.840  0.5165 -0.3771  0.1186
15124TIP3    H166863   5.980   0.887   0.765 -4.2740  0.6788 -1.4361
15124TIP3    H266864   5.960   0.894   0.915  0.6669  0.5824 -0.6297
15125TIP3   OH266865   1.323   6.767  12.602 -0.4367  0.0998 -0.7029
15125TIP3    H166866   1.319   6.858  12.631 -0.6185  0.3307 -1.4203
15125TIP3    H266867   1.274   6.718  12.667 -0.2686  0.5033 -0.2674
15126TIP3   OH266868   2.600   3.019  11.779 -0.3606 -0.3382 -0.2300
15126TIP3    H166869   2.621   3.052  11.866  0.9977 -1.8731  0.0813
15126TIP3    H266870   2.526   2.960  11.793 -0.1767 -0.5435 -0.1112
15127TIP3   OH266871   6.086   0.007  13.193  0.1894 -0.0577  0.1490
15127TIP3    H166872   6.056  -0.006  13.103 -0.2691  2.1096 -0.0667
15127TIP3    H266873   6.151   0.077  13.187  0.5741 -0.2750  1.4390
15128TIP3   OH266874   1.203   5.524   5.025 -0.0337 -0.0597  0.0228
15128TIP3    H166875   1.270   5.592   5.028  0.9684 -1.0360  0.8906
15128TIP3    H266876   1.215   5.483   4.938  0.8554 -0.5388  0.3498
15129TIP3   OH266877   5.240   1.411  14.887  0.5756  0.0344 -0.3946
15129TIP3    H166878   5.289   1.483  14.927 -0.2600  1.0383 -1.1422
15129TIP3    H266879   5.152   1.419  14.923  0.1553  0.1501 -1.4127
15130TIP3   OH266880   4.800   0.810   1.569  0.1600 -0.0072  0.0300
15130TIP3    H166881   4.792   0.716   1.583 -1.7880  0.4430  2.8702
15130TIP3    H266882   4.889   0.831   1.595  1.0190 -1.1782 -1.8166
15131TIP3   OH266883   6.082   1.630  12.234 -0.4766 -0.0716 -0.5150
15131TIP3    H166884   6.124   1.589  12.157 -1.2614 -0.5797 -0.6783
15131TIP3    H266885   6.152   1.633  12.299  0.2180  0.3971 -1.2509
15132TIP3   OH266886   0.734   3.561   3.425 -0.0625  0.9051  0.4596
15132TIP3    H166887   0.812   3.514   3.395 -0.3452  0.0837  0.9718
15132TIP3    H266888   0.681   3.494   3.468 -0.5212  1.6792  1.1249
15133TIP3   OH266889   3.073   4.590   4.260 -0.0470 -0.0111 -0.8257
15133TIP3    H166890   3.138   4.645   4.301 -0.4146  0.2145 -0.5382
15133TIP3    H266891   3.098   4.586   4.168  0.2971  0.1740 -0.7370
15134TIP3   OH266892   0.648   5.522   6.634 -0.4165  0.1546  0.1817
15134TIP3    H166893   0.592   5.485   6.565  0.1378  1.8800 -1.2739
15134TIP3    H266894   0.732   5.536   6.590  0.6295 -0.6438  1.8211
15135TIP3   OH266895   2.502   0.300   2.559 -0.6914 -0.2687  0.2933
15135TIP3    H166896   2.411   0.271   2.560 -0.9704  0.5929  0.5130
15135TIP3    H266897   2.498   0.390   2.527 -0.1424  0.4859  2.2215
15136TIP3   OH266898   4.339   3.086  14.122  0.5244  0.4894 -0.6081
15136TIP3    H166899   4.269   3.147  14.146 -0.2954 -0.5497 -0.2791
15136TIP3    H266900   4.301   3.031  14.054  0.3963 -1.1961  0.7537
15137TIP3   OH266901   3.729   2.918  16.441 -0.1042 -0.4285  0.0578
15137TIP3    H166902   3.691   2.848  16.494  1.7004 -1.8397 -0.3984
15137TIP3    H266903   3.720   2.888  16.351 -0.1235  0.3537 -0.2050
15138TIP3   OH266904   4.475   5.900  15.023 -0.1702 -0.2941 -0.3138
15138TIP3    H166905   4.402   5.909  15.084  0.6567 -0.4231  0.7386
15138TIP3    H266906   4.493   5.990  14.993 -0.0506 -0.1126  0.2923
15139TIP3   OH266907   6.125   5.761   3.105  0.4061 -0.1669  0.9430
15139TIP3    H166908   6.195   5.698   3.089 -0.7857 -1.2489 -0.2903
15139TIP3    H266909   6.159   5.845   3.075  0.6022 -0.9738 -1.2233
15140TIP3   OH266910   0.251   3.047   3.579 -0.0534 -0.7040 -0.1809
15140TIP3    H166911   0.212   3.100   3.510 -0.0881 -0.1885  0.2231
15140TIP3    H266912   0.345   3.047   3.559 -0.2154 -1.7172 -0.9999
15141TIP3   OH266913   2.466   0.983   5.270 -0.5649  0.8375 -0.0661
15141TIP3    H166914   2.380   0.939   5.271  0.7655 -2.0006  0.1062
15141TIP3    H266915   2.496   0.972   5.180 -0.0812  1.1355  0.0597
15142TIP3   OH266916   2.979   5.142  13.715 -0.4960 -0.5697  0.3877
15142TIP3    H166917   3.044   5.129  13.784  0.7340 -0.2549 -0.6692
15142TIP3    H266918   2.942   5.229  13.734  0.0132 -0.3750  0.5096
15143TIP3   OH266919   0.627   4.413  15.460 -0.2442 -0.0254 -0.3192
15143TIP3    H166920   0.535   4.411  15.489 -0.1873  1.2156 -0.0107
15143TIP3    H266921   0.676   4.376  15.533 -0.2375  1.8934  0.7024
15144TIP3   OH266922   3.702   0.072  14.378 -0.4296  0.3127 -0.2090
15144TIP3    H166923   3.715  -0.002  14.438  0.6159  1.0740  0.5492
15144TIP3    H266924   3.781   0.072  14.323 -0.4800  0.7905 -0.2797
15145TIP3   OH266925   4.845   2.096  13.529  0.0722 -0.2413 -0.4703
15145TIP3    H166926   4.885   2.111  13.443  0.3843 -2.4919 -0.7818
15145TIP3    H266927   4.911   2.045  13.577  0.2669  1.6724  1.4722
15146TIP3   OH266928   0.451   2.263   5.015  0.1899 -0.6082 -0.3897
15146TIP3    H166929   0.542   2.276   5.041  0.4565 -1.5769 -0.8097
15146TIP3    H266930   0.411   2.219   5.090  0.0504 -0.1695 -0.1991
15147TIP3   OH266931   6.367   1.091  13.409  0.2813 -0.5463 -0.5577
15147TIP3    H166932   6.312   1.097  13.487 -0.8784  2.0388 -1.4425
15147TIP3    H266933   6.456   1.087  13.442 -0.2534 -0.8768  0.8990
15148TIP3   OH266934   6.354   2.399  14.004 -0.2114 -0.1704  0.1851
15148TIP3    H166935   6.285   2.461  13.981  0.5825 -0.0198 -1.9306
15148TIP3    H266936   6.368   2.347  13.925  0.7302 -1.5415  1.1980
15149TIP3   OH266937   2.245   0.311   2.967  0.2020 -0.6294  0.4406
15149TIP3    H166938   2.262   0.302   2.873  1.0757 -0.2351  0.5522
15149TIP3    H266939   2.331   0.301   3.008 -0.1377 -0.5535  1.1823
15150TIP3   OH266940   3.248   5.110  14.495  0.2166  0.5945 -0.3335
15150TIP3    H166941   3.158   5.135  14.514 -0.4558 -1.9376  0.0538
15150TIP3    H266942   3.290   5.104  14.581 -0.2925 -1.7879 -0.1994
15151TIP3   OH266943   2.592   2.100   4.345 -0.0324  0.3250  0.1439
15151TIP3    H166944   2.500   2.074   4.344 -0.5883  2.1122 -1.9334
15151TIP3    H266945   2.592   2.190   4.377  0.8429  0.7803 -1.0895
15152TIP3   OH266946   2.629   3.691  15.047  0.3143  0.1258  0.1151
15152TIP3    H166947   2.679   3.751  14.991  0.1999  0.0015 -0.1228
15152TIP3    H266948   2.541   3.691  15.010  0.7270 -1.5378 -0.9999
15153TIP3   OH266949   3.786   5.498   3.904 -0.0517 -0.0923 -0.4567
15153TIP3    H166950   3.872   5.469   3.934 -0.1719 -0.1110 -0.1175
15153TIP3    H266951   3.729   5.421   3.916 -0.1403 -0.0441 -0.5647
15154TIP3   OH266952   5.624   2.385   1.701 -0.6049 -0.1587  0.2105
15154TIP3    H166953   5.616   2.353   1.611 -0.8734 -0.8598  0.4782
15154TIP3    H266954   5.612   2.480   1.694  1.5328  0.0889 -0.7691
15155TIP3   OH266955   6.706   5.258  13.541  0.2191 -0.1044  0.4121
15155TIP3    H166956   6.752   5.292  13.618  0.5228 -0.8063  0.5495
15155TIP3    H266957   6.618   5.238  13.573  0.0027  0.6211  0.3061
15156TIP3   OH266958   1.756   3.533  15.626 -0.5825  0.5593 -0.1085
15156TIP3    H166959   1.830   3.559  15.571 -1.1527  2.1321 -0.1840
15156TIP3    H266960   1.796   3.493  15.703  0.3685  1.6979  0.0103
15157TIP3   OH266961   0.869   3.169   0.259 -0.2900  0.2731  0.2402
15157TIP3    H166962   0.836   3.257   0.278  0.5651  0.4845  0.8361
15157TIP3    H266963   0.900   3.136   0.343  0.6644 -0.0490 -0.2171
15158TIP3   OH266964   0.973   0.282  12.301  0.2469  0.5371 -0.4330
15158TIP3    H166965   0.997   0.194  12.331  0.7024  0.2710 -1.5596
15158TIP3    H266966   0.943   0.326  12.381  1.6497 -0.0749  0.4756
15159TIP3   OH266967   3.686   5.381  12.627 -0.3833  0.0899 -0.5728
15159TIP3    H166968   3.766   5.414  12.668 -1.0358  0.0148  0.8122
15159TIP3    H266969   3.699   5.286  12.624  0.7418  0.2417 -2.9483
15160TIP3   OH266970   3.381   6.282  16.034  0.1590 -0.1986  0.0562
15160TIP3    H166971   3.371   6.375  16.056  0.7737 -0.1069 -0.0410
15160TIP3    H266972   3.342   6.236  16.109 -2.2794  0.1300 -0.9369
15161TIP3   OH266973   2.980   1.253  16.918 -0.3153 -0.4690  0.4603
15161TIP3    H166974   3.015   1.266  17.006  0.1313  0.6973  0.1306
15161TIP3    H266975   2.996   1.336  16.873 -1.2207 -0.7877 -0.4932
15162TIP3   OH266976   0.714   6.036   4.850 -0.3541  0.0553 -0.2166
15162TIP3    H166977   0.668   5.984   4.784  0.7397 -1.3857  0.1033
15162TIP3    H266978   0.761   5.971   4.902  1.3852  1.3993 -0.0345
15163TIP3   OH266979   2.136   3.349   5.235  0.2189 -0.3203  0.3532
15163TIP3    H166980   2.086   3.352   5.153  0.7015 -0.4755  0.0485
15163TIP3    H266981   2.228   3.340   5.207  0.6070  1.6892  0.8567
15164TIP3   OH266982   5.920   2.353   5.623 -0.3099 -0.1939 -0.3000
15164TIP3    H166983   5.864   2.343   5.700 -1.3954 -1.0036 -1.1643
15164TIP3    H266984   5.867   2.321   5.550  1.6387 -2.1268 -1.0069
15165TIP3   OH266985   4.711   0.637  15.399  0.4112 -0.1387  0.1852
15165TIP3    H166986   4.663   0.641  15.316 -1.4615 -0.1495  1.2128
15165TIP3    H266987   4.704   0.545  15.426  0.1494  0.0544  0.8029
15166TIP3   OH266988   2.694   4.092  15.077  0.0023  0.5842  0.0682
15166TIP3    H166989   2.732   4.180  15.078  0.6099  0.3227  0.4654
15166TIP3    H266990   2.698   4.065  14.985 -2.0136  1.7331 -0.4109
15167TIP3   OH266991   3.968   1.251  14.497 -0.2867  0.0375 -0.1381
15167TIP3    H166992   4.009   1.338  14.495  0.6704 -0.3865 -2.4874
15167TIP3    H266993   3.912   1.249  14.419 -2.6662 -0.4460  1.4639
15168TIP3   OH266994   3.915   1.197  15.036  0.1264  0.0132  0.0150
15168TIP3    H166995   3.908   1.206  14.940 -0.1312  1.1922  0.1245
15168TIP3    H266996   3.827   1.219  15.068  0.8913  2.5041  0.6671
15169TIP3   OH266997   6.049   3.152   0.039 -0.7184 -0.6512  0.5342
15169TIP3    H166998   5.991   3.214   0.084 -0.9702 -0.7315  0.3270
15169TIP3    H266999   6.126   3.204   0.016  0.2115 -1.0391  2.6293
15170TIP3   OH267000   5.628   5.700   1.957  0.3646  0.1559 -0.4228
15170TIP3    H167001   5.544   5.687   2.000 -1.4319  0.7531 -3.4971
15170TIP3    H267002   5.670   5.614   1.959 -1.6831 -0.9234 -1.4362
15171TIP3   OH267003   2.869   5.611  13.344  0.6397  0.2890  0.4802
15171TIP3    H167004   2.945   5.603  13.402  1.4936  4.3968  0.2569
15171TIP3    H267005   2.905   5.605  13.256  0.2661 -0.3132  0.3639
15172TIP3   OH267006   1.473   1.032  11.088  0.3638 -0.4481 -0.5775
15172TIP3    H167007   1.400   1.084  11.123  0.2525 -0.8758 -0.1676
15172TIP3    H267008   1.441   0.942  11.089  1.4750 -0.8851  1.2339
15173TIP3   OH267009   3.621   6.415   3.289 -0.0552 -0.3062  0.5832
15173TIP3    H167010   3.627   6.470   3.211 -0.7059 -1.0876 -0.0322
15173TIP3    H267011   3.535   6.434   3.326  0.5085  0.5534  1.5058
15174TIP3   OH267012   0.728   6.680  14.486  0.2953  0.3088  0.3446
15174TIP3    H167013   0.652   6.728  14.518 -2.9300 -1.1910 -4.1157
15174TIP3    H267014   0.703   6.588  14.490  1.0936 -0.1617 -2.5773
15175TIP3   OH267015   1.298   5.275  16.126  0.7428  0.5275 -0.0403
15175TIP3    H167016   1.282   5.243  16.037  0.9305  0.4863 -0.0594
15175TIP3    H267017   1.388   5.308  16.124  0.2154  2.0254 -0.2988
15176TIP3   OH267018   6.673   4.156  10.886 -0.0528 -0.5295  0.3562
15176TIP3    H167019   6.621   4.180  10.809  0.1241 -1.7936 -0.1996
15176TIP3    H267020   6.720   4.077  10.858  0.4755 -0.6622  1.5739
15177TIP3   OH267021   4.111   2.548  14.745  0.3107  0.2780 -0.4709
15177TIP3    H167022   4.145   2.535  14.833 -0.3898 -1.3263 -0.3939
15177TIP3    H267023   4.188   2.555  14.689  0.7521  0.3216  0.1375
15178TIP3   OH267024   5.459   5.535   4.306  0.1317  0.1766  0.0946
15178TIP3    H167025   5.373   5.578   4.308  0.2761  0.8886 -2.9165
15178TIP3    H267026   5.522   5.607   4.302  0.6732 -0.3028 -0.3670
15179TIP3   OH267027   5.454   1.783   5.349 -0.4740  0.4081 -0.1923
15179TIP3    H167028   5.434   1.732   5.428 -0.6173  0.6860 -0.0478
15179TIP3    H267029   5.369   1.792   5.305 -0.1336 -1.2249 -1.2753
15180TIP3   OH267030   4.158   4.680   3.310  0.4348  0.0245 -0.0906
15180TIP3    H167031   4.131   4.743   3.378 -1.7677 -0.8325 -0.0838
15180TIP3    H267032   4.251   4.696   3.298  0.3417  1.9599  1.2999
15181TIP3   OH267033   1.299   4.506  12.821 -0.2925 -0.1006 -0.3669
15181TIP3    H167034   1.349   4.429  12.794  1.3134  0.5118  0.6453
15181TIP3    H267035   1.278   4.551  12.740 -1.6521 -1.8043 -1.0064
15182TIP3   OH267036   4.589   5.072  13.497 -0.0954 -0.7447  0.2214
15182TIP3    H167037   4.552   5.072  13.585 -1.2407 -0.4450 -0.2340
15182TIP3    H267038   4.604   5.164  13.477 -2.2935 -0.5498 -0.8374
15183TIP3   OH267039   6.826   4.173  13.495 -0.8823  0.2139  0.3490
15183TIP3    H167040   6.820   4.082  13.466  0.4005  0.3937 -0.6015
15183TIP3    H267041   6.808   4.170  13.589  0.5746 -1.2345  0.6245
15184TIP3   OH267042   2.239   3.743   5.160  0.3434 -0.4865 -0.4788
15184TIP3    H167043   2.150   3.724   5.128  0.1174  0.2820 -0.3302
15184TIP3    H267044   2.231   3.828   5.202  0.8089 -1.1367  0.9776
15185TIP3   OH267045   5.858   2.141  12.936 -0.0866  0.5491  0.6696
15185TIP3    H167046   5.936   2.166  12.985 -1.3187  1.6625  2.1781
15185TIP3    H267047   5.807   2.089  12.997 -1.4055  1.4797  0.4082
15186TIP3   OH267048   2.190   2.278   2.874 -0.1589  0.1262 -0.0045
15186TIP3    H167049   2.230   2.357   2.840 -0.3618  1.8375  3.3870
15186TIP3    H267050   2.263   2.217   2.885  0.3244  0.5641 -0.6735
15187TIP3   OH267051   1.331   3.819  17.160  0.4132 -0.0723 -0.0279
15187TIP3    H167052   1.236   3.833  17.160  0.4574  0.2442  0.1593
15187TIP3    H267053   1.347   3.764  17.236  0.3904 -0.0379  0.0013
15188TIP3   OH267054   6.676   5.341  14.998 -0.4865  0.7600  0.5777
15188TIP3    H167055   6.710   5.297  15.075 -3.3062 -0.5690  1.1735
15188TIP3    H267056   6.632   5.419  15.032 -0.0198  1.2678  0.0576
15189TIP3   OH267057   5.815   2.389  14.417 -0.2519 -0.0516  0.7509
15189TIP3    H167058   5.826   2.475  14.457  2.3250 -1.4555  3.4609
15189TIP3    H267059   5.849   2.327  14.482 -4.2257 -3.4644  0.0600
15190TIP3   OH267060   4.042   2.661  11.720  0.0043  0.6141 -0.3182
15190TIP3    H167061   4.000   2.733  11.766 -0.3378  1.4498 -1.8517
15190TIP3    H267062   4.117   2.701  11.676  1.7687 -0.6302  1.4119
15191TIP3   OH267063   4.949   2.580  14.791  0.3203  0.3204 -0.0229
15191TIP3    H167064   5.022   2.640  14.773  1.5053  0.1527  3.4775
15191TIP3    H267065   4.896   2.625  14.856 -1.4850 -0.5434 -0.8260
15192TIP3   OH267066   6.823   6.288   2.889  0.4537 -0.3275  0.5673
15192TIP3    H167067   6.760   6.358   2.902 -0.0656 -0.8592  0.9783
15192TIP3    H267068   6.908   6.332   2.887  0.0877  0.3712  0.2074
15193TIP3   OH267069   5.035   6.644   1.318  0.3412 -0.7357 -0.2031
15193TIP3    H167070   5.076   6.569   1.276 -1.8170 -1.9458 -0.2957
15193TIP3    H267071   4.978   6.607   1.386  0.5434  0.9306  0.9509
15194TIP3   OH267072   3.932   1.864   3.529  0.2344 -0.4496  0.5377
15194TIP3    H167073   4.011   1.904   3.563 -1.0508 -0.1942  3.5273
15194TIP3    H267074   3.892   1.932   3.474  1.0300  0.1779  0.7297
15195TIP3   OH267075   5.380   0.970  12.974 -0.0482  0.4770  0.4630
15195TIP3    H167076   5.434   1.043  13.006  0.3644  0.3268  0.1224
15195TIP3    H267077   5.376   0.984  12.879  0.2163 -0.0614  0.3692
15196TIP3   OH267078   0.791   4.017  14.078 -0.3141 -0.2294 -0.1582
15196TIP3    H167079   0.885   4.002  14.070 -0.6929 -1.9504 -2.7254
15196TIP3    H267080   0.753   3.929  14.083 -1.8248  0.4064  0.0340
15197TIP3   OH267081   6.775   2.765   3.922  0.0813  0.5119 -0.1510
15197TIP3    H167082   6.734   2.851   3.913 -0.1132  0.6387  1.6000
15197TIP3    H267083   6.807   2.762   4.012  2.1930 -0.3621 -0.8481
15198TIP3   OH267084   5.794   4.015  15.820 -0.2208 -0.1297  0.1008
15198TIP3    H167085   5.886   4.035  15.802 -0.7118  0.2060 -2.3464
15198TIP3    H267086   5.783   3.925  15.789 -1.2775  0.7157 -2.1885
15199TIP3   OH267087   4.534   4.793   2.155  0.2763 -0.7789 -0.7944
15199TIP3    H167088   4.473   4.760   2.088 -1.9088  0.5886  0.3810
15199TIP3    H267089   4.490   4.870   2.191  1.1778 -1.6160  2.4396
15200TIP3   OH267090   4.626   6.078  13.847  0.0650  0.1040 -0.1541
15200TIP3    H167091   4.676   6.128  13.782  1.6686  0.3381  1.1964
15200TIP3    H267092   4.540   6.068  13.807  0.0600  2.8135 -1.0490
15201TIP3   OH267093   6.371   4.567   1.488  0.3184 -0.0406 -0.0588
15201TIP3    H167094   6.364   4.611   1.572  0.4101 -0.1357 -0.0008
15201TIP3    H267095   6.289   4.588   1.442 -0.2343 -0.9022  0.4936
15202TIP3   OH267096   5.787   5.089  14.871 -0.1045  0.0838  0.2890
15202TIP3    H167097   5.825   5.069  14.785 -0.5899 -2.3722  0.5955
15202TIP3    H267098   5.813   5.016  14.927 -1.8671  0.3914  1.5766
15203TIP3   OH267099   1.643   6.123  14.291 -0.5214 -0.2277 -0.1607
15203TIP3    H167100   1.689   6.205  14.278  0.6005 -0.9500 -0.9113
15203TIP3    H267101   1.607   6.101  14.205  2.0320 -2.1339 -0.8951
15204TIP3   OH267102   3.672   1.363  16.675  0.0178 -0.2594  0.6591
15204TIP3    H167103   3.729   1.406  16.739 -0.6702  1.0289  0.4377
15204TIP3    H267104   3.727   1.295  16.636  0.6643 -0.6037  2.1070
15205TIP3   OH267105   6.427   6.799   0.882  0.5065  0.3941  0.7748
15205TIP3    H167106   6.373   6.878   0.891  1.6988  1.4010 -0.4026
15205TIP3    H267107   6.467   6.787   0.968  0.9442  1.5751  0.7578
15206TIP3   OH267108   4.277   2.299  11.941 -0.7311  0.3944  0.5931
15206TIP3    H167109   4.261   2.351  11.862  0.7697 -0.0330 -0.0269
15206TIP3    H267110   4.213   2.228  11.937  0.0158 -0.2484 -0.8359
15207TIP3   OH267111   4.514   0.608   3.333 -0.0748 -0.1765  0.2779
15207TIP3    H167112   4.529   0.519   3.299  0.7400  0.3251 -0.7067
15207TIP3    H267113   4.487   0.659   3.256  2.7902  1.2235  0.0786
15208TIP3   OH267114   2.331   4.907  10.821  0.2362 -0.5842 -0.0951
15208TIP3    H167115   2.286   4.985  10.787 -0.1534  0.2756  2.2236
15208TIP3    H267116   2.278   4.833  10.790 -1.3188  0.2750  0.4122
15209TIP3   OH267117   0.944   1.203  13.067 -0.5232  0.0290 -0.3402
15209TIP3    H167118   0.893   1.283  13.055  0.5638  0.7174 -0.6353
15209TIP3    H267119   0.971   1.179  12.978  1.0138  0.6300 -0.0676
15210TIP3   OH267120   1.799   0.874   3.807 -0.0054  0.7384  0.5708
15210TIP3    H167121   1.807   0.797   3.864 -0.8559 -0.1214 -0.4231
15210TIP3    H267122   1.774   0.838   3.722 -1.6137  2.1870  0.3641
15211TIP3   OH267123   4.563   2.711   0.612  0.2775 -0.4375  0.5907
15211TIP3    H167124   4.644   2.691   0.565 -1.0403 -0.2061 -1.9552
15211TIP3    H267125   4.587   2.780   0.673  1.8278  0.2911 -0.7697
15212TIP3   OH267126   6.740   2.745   5.083  0.2704 -0.1990 -0.2970
15212TIP3    H167127   6.663   2.743   5.139  0.1505 -1.0607 -0.4861
15212TIP3    H267128   6.707   2.730   4.994  0.5255  0.5878 -0.5359
15213TIP3   OH267129   5.625   6.624   2.234 -0.0494 -0.2280  0.3359
15213TIP3    H167130   5.709   6.634   2.279  0.3934  0.8238 -0.6658
15213TIP3    H267131   5.648   6.612   2.142 -0.9970  0.7609 -0.0594
15214TIP3   OH267132   3.535   1.385   5.859 -0.2906 -0.1963  0.6730
15214TIP3    H167133   3.450   1.363   5.898 -0.2375  1.6115  1.9139
15214TIP3    H267134   3.522   1.470   5.818  1.0425  0.3574  1.3415
15215TIP3   OH267135   4.351   4.650   0.324  0.2309  0.1523 -0.5220
15215TIP3    H167136   4.286   4.586   0.295 -0.9343  0.7508  0.6676
15215TIP3    H267137   4.301   4.716   0.372  1.6713  0.8445  0.1084
15216TIP3   OH267138   1.184   4.844  11.280 -0.5705  0.5785  0.6664
15216TIP3    H167139   1.224   4.795  11.208 -1.9062  2.1109 -1.2136
15216TIP3    H267140   1.241   4.921  11.291  0.0282 -0.0010  1.7807
15217TIP3   OH267141   4.049   6.392  14.492 -0.2429 -0.0891  0.4151
15217TIP3    H167142   4.139   6.403  14.460  0.1045 -0.3556  1.2606
15217TIP3    H267143   4.029   6.300  14.478 -0.0455 -0.2349  1.0416
15218TIP3   OH267144   0.233   4.476  10.517  0.2066  0.7387 -0.2370
15218TIP3    H167145   0.266   4.512  10.600  1.1422  2.0800 -1.1444
15218TIP3    H267146   0.200   4.389  10.540  0.6630  0.9829  1.4967
15219TIP3   OH267147   3.449   0.492  14.005 -0.1788 -0.2750  0.0993
15219TIP3    H167148   3.368   0.525  13.966 -0.7276 -0.9651  0.6257
15219TIP3    H267149   3.514   0.559  13.986 -1.0264  0.6063  0.2584
15220TIP3   OH267150   2.727   0.978   5.858 -0.3232  0.3448  0.4724
15220TIP3    H167151   2.806   1.020   5.893 -0.1254 -1.2880  2.1804
15220TIP3    H267152   2.756   0.936   5.777  0.5126  0.0712  0.8952
15221TIP3   OH267153   3.443   3.637  15.371  0.1818 -0.3979 -0.2587
15221TIP3    H167154   3.490   3.595  15.443  0.6482  1.5184  0.6177
15221TIP3    H267155   3.357   3.657  15.407  0.3132  0.2954 -0.3190
15222TIP3   OH267156   3.075   0.175   4.939 -0.0431 -0.5578 -0.0389
15222TIP3    H167157   3.157   0.137   4.907  0.5073  0.0569  0.6040
15222TIP3    H267158   3.028   0.101   4.978  1.2048 -0.5620  1.5895
15223TIP3   OH267159   5.729   1.563  10.689  0.2552 -0.1482  0.3055
15223TIP3    H167160   5.639   1.533  10.706  0.2716 -0.4450 -0.1227
15223TIP3    H267161   5.725   1.658  10.703 -0.5380  0.1073 -1.3605
15224TIP3   OH267162   5.492   3.289   5.353 -0.1826 -0.5854  0.1486
15224TIP3    H167163   5.520   3.198   5.349 -0.2516 -0.6012  0.0133
15224TIP3    H267164   5.397   3.286   5.341 -0.2710 -0.5496  0.8272
15225TIP3   OH267165   5.009   6.349   4.166 -0.0538  0.1448 -1.0825
15225TIP3    H167166   5.098   6.323   4.190  0.3617  0.9716 -1.6728
15225TIP3    H267167   5.009   6.444   4.175 -0.7134  0.1999 -1.6281
15226TIP3   OH267168   1.701   1.242  14.890  0.6142  0.7929  0.0431
15226TIP3    H167169   1.701   1.323  14.838 -0.9641  1.1151  0.4815
15226TIP3    H267170   1.722   1.174  14.827  2.1047  1.5424 -0.3110
15227TIP3   OH267171   0.198   4.747  10.432 -0.3437  0.1449 -0.7340
15227TIP3    H167172   0.229   4.657  10.437 -0.2085  0.0935 -2.1979
15227TIP3    H267173   0.139   4.756  10.507  0.2361 -0.9189 -0.1371
15228TIP3   OH267174   5.412   3.729   4.693 -0.0201 -0.8907 -0.1304
15228TIP3    H167175   5.400   3.754   4.601  1.5443  0.1898 -0.0816
15228TIP3    H267176   5.328   3.691   4.719 -0.5261 -1.1162 -1.9683
15229TIP3   OH267177   4.829   5.131  11.937  0.5702  0.2449  0.0173
15229TIP3    H167178   4.878   5.205  11.902  0.1371 -0.0205 -1.2073
15229TIP3    H267179   4.854   5.057  11.882  1.4308 -0.6851  1.5613
15230TIP3   OH267180   0.810   1.499  10.753  0.3853 -0.0951  0.4658
15230TIP3    H167181   0.740   1.443  10.720  0.8683 -0.2593 -0.3110
15230TIP3    H267182   0.823   1.565  10.684  0.6458  0.2368  0.8279
15231TIP3   OH267183   4.229   3.580   5.214 -0.1088  0.4416 -0.3673
15231TIP3    H167184   4.151   3.557   5.263  0.3051 -1.7828 -0.6507
15231TIP3    H267185   4.261   3.497   5.179  2.0427  1.3658 -0.7609
15232TIP3   OH267186   2.278   6.405   3.922 -0.1677 -0.6078  0.4048
15232TIP3    H167187   2.261   6.499   3.924  2.4898 -0.0344 -0.6255
15232TIP3    H267188   2.340   6.389   3.993  0.5721 -1.2908 -0.3652
15233TIP3   OH267189   3.679   4.531   1.888 -0.1496  1.2315  0.0281
15233TIP3    H167190   3.640   4.537   1.976  0.5309  0.9306  0.3538
15233TIP3    H267191   3.771   4.508   1.904 -0.5260 -1.1731 -0.8312
15234TIP3   OH267192   6.276   6.549  15.888  0.0053  0.4000 -1.0586
15234TIP3    H167193   6.198   6.552  15.944 -1.5648  0.1160 -3.1056
15234TIP3    H267194   6.312   6.461  15.902  0.5338  0.8453  0.5856
15235TIP3   OH267195   2.928   1.938   6.566 -0.0999  0.3429 -0.5917
15235TIP3    H167196   2.890   1.998   6.501 -0.2510  0.8400 -0.0568
15235TIP3    H267197   3.000   1.895   6.519  1.8081  2.9103 -0.2706
15236TIP3   OH267198   6.116   6.168   2.048  0.3651  0.2751 -0.1349
15236TIP3    H167199   6.052   6.100   2.067 -0.0151  0.5966 -0.2693
15236TIP3    H267200   6.151   6.144   1.962  1.5592 -0.7673  0.5935
15237TIP3   OH267201   3.634   6.647   4.896  0.3809 -0.0967  0.4539
15237TIP3    H167202   3.703   6.681   4.953  1.2658 -1.0967  0.0172
15237TIP3    H267203   3.608   6.723   4.843  0.5558  0.4911  1.1889
15238TIP3   OH267204   4.379   4.590   4.071  0.1459 -0.0912 -0.1048
15238TIP3    H167205   4.426   4.647   4.010  0.8021 -0.0445  0.4276
15238TIP3    H267206   4.448   4.552   4.125 -0.1415 -2.3765 -1.2514
15239TIP3   OH267207   3.561   4.602   2.676 -0.3454 -0.9539 -0.0639
15239TIP3    H167208   3.595   4.514   2.663  0.1424 -0.8570  0.5386
15239TIP3    H267209   3.639   4.658   2.674 -0.6816 -0.4850 -0.8275
15240TIP3   OH267210   6.419   4.966   2.009 -0.4228  0.5174 -0.3599
15240TIP3    H167211   6.379   4.935   2.090 -0.2414 -0.3892 -0.6083
15240TIP3    H267212   6.391   5.058   2.003 -0.4025  0.6143  0.7431
15241TIP3   OH267213   5.694   5.784   5.115 -0.3195 -0.7538 -0.0568
15241TIP3    H167214   5.782   5.749   5.128  0.6252  1.3619 -0.3859
15241TIP3    H267215   5.695   5.818   5.025 -0.1460  2.6938  1.1102
15242TIP3   OH267216   4.707   2.840   5.993  0.5273 -0.4014  0.0798
15242TIP3    H167217   4.772   2.904   6.023  1.0622 -1.2428  0.7548
15242TIP3    H267218   4.732   2.758   6.036 -1.4931 -0.5666  1.0526
15243TIP3   OH267219   5.284   2.455   6.020  0.0484 -0.5945  0.0201
15243TIP3    H167220   5.206   2.455   5.965  0.4622  0.4888 -0.5907
15243TIP3    H267221   5.314   2.546   6.020  0.2941 -0.6395  1.7129
15244TIP3   OH267222   2.292   0.333  12.097 -0.9799 -0.3786  0.3245
15244TIP3    H167223   2.257   0.381  12.022 -0.2522 -1.2420 -0.5891
15244TIP3    H267224   2.343   0.262  12.059  1.4429  0.5576  1.5728
15245TIP3   OH267225   1.551   6.154  16.809 -0.1239 -0.7956  0.1575
15245TIP3    H167226   1.484   6.138  16.742 -0.5250 -0.8944  0.5735
15245TIP3    H267227   1.502   6.153  16.891 -0.1413  2.2963  0.2724
15246TIP3   OH267228   6.383   4.411  13.323  0.1284 -0.3468  0.1709
15246TIP3    H167229   6.335   4.355  13.384  0.1940 -0.5817  0.0112
15246TIP3    H267230   6.465   4.364  13.307 -0.3647 -0.8558 -0.9798
15247TIP3   OH267231   6.588   5.212   0.953 -0.5071  0.3543 -0.3217
15247TIP3    H167232   6.605   5.177   0.866  1.3287 -0.8636  0.4609
15247TIP3    H267233   6.675   5.225   0.991 -1.2634  0.4744  1.4581
15248TIP3   OH267234   2.787   2.226  11.016 -0.7030 -0.0659  0.5611
15248TIP3    H167235   2.868   2.234  11.066  0.1976  0.3447 -0.8975
15248TIP3    H267236   2.781   2.133  10.994 -0.0917  0.0520 -0.1480
15249TIP3   OH267237   5.512   0.224  16.368 -0.3212 -0.2351  0.1431
15249TIP3    H167238   5.567   0.146  16.356 -0.1791 -0.2763  0.9838
15249TIP3    H267239   5.498   0.228  16.463  0.8713  1.5882  0.2778
15250TIP3   OH267240   6.620   0.808  12.842 -0.3613 -0.5336  0.1341
15250TIP3    H167241   6.699   0.791  12.791 -0.2993  1.8067 -0.6691
15250TIP3    H267242   6.548   0.797  12.779 -0.4304  0.4352  0.0362
15251TIP3   OH267243   5.411   0.616   4.578  0.3433  0.6160 -0.5098
15251TIP3    H167244   5.372   0.647   4.660 -0.5267 -0.6027 -0.4352
15251TIP3    H267245   5.498   0.586   4.602 -0.7449 -2.0025  0.5209
15252TIP3   OH267246   3.997   2.004  14.438  0.6312 -0.3999 -0.3441
15252TIP3    H167247   3.998   2.085  14.489 -1.9220  0.0698 -0.9017
15252TIP3    H267248   3.920   1.957  14.470  0.4477 -1.2834 -1.9963
15253TIP3   OH267249   2.566   3.342   1.108  0.5356 -0.5969  0.1986
15253TIP3    H167250   2.506   3.391   1.163 -0.3898  0.2160 -1.4514
15253TIP3    H267251   2.586   3.402   1.035  1.3366 -1.7793 -0.5910
15254TIP3   OH267252   3.537   5.677   5.134  0.1578 -0.0295 -0.0342
15254TIP3    H167253   3.532   5.714   5.046 -0.5763  0.0025  0.0163
15254TIP3    H267254   3.620   5.710   5.168 -0.6667  1.9933  0.1896
15255TIP3   OH267255   3.941   3.691   6.562 -0.5336  0.0264 -0.3892
15255TIP3    H167256   3.975   3.642   6.487 -2.3237 -1.7998 -0.1034
15255TIP3    H267257   4.001   3.669   6.634  0.0126  0.1495 -0.8006
15256TIP3   OH267258   4.191   4.612  12.589 -0.3161  0.3253 -0.4459
15256TIP3    H167259   4.154   4.690  12.631 -1.0790 -0.6997  0.8601
15256TIP3    H267260   4.262   4.585  12.647 -1.3067 -1.0407  0.2017
15257TIP3   OH267261   0.369   5.849   5.791 -0.4156  0.1349  0.0746
15257TIP3    H167262   0.425   5.917   5.753  0.7620  0.0485  1.5666
15257TIP3    H267263   0.357   5.875   5.882 -0.0048 -1.5898  0.6593
15258TIP3   OH267264   2.820   0.012   0.030  0.8118  0.2959  0.3484
15258TIP3    H167265   2.879  -0.020  -0.038  0.5011 -0.7192  0.5383
15258TIP3    H267266   2.736  -0.029   0.010  0.4491  0.8421  0.7226
15259TIP3   OH267267   5.182   3.946  11.598  0.0306 -0.8442 -0.5575
15259TIP3    H167268   5.116   3.877  11.605  1.6495 -2.3463  0.8581
15259TIP3    H267269   5.171   3.998  11.678  0.3747 -0.9508 -0.4377
15260TIP3   OH267270   6.761   0.073   0.215  0.1174 -0.2209 -0.5002
15260TIP3    H167271   6.716   0.145   0.171  1.3739  0.5133 -0.6419
15260TIP3    H267272   6.699   0.042   0.282 -0.3948  1.0859 -0.3460
15261TIP3   OH267273   3.791   6.685   5.181  0.0553  0.0701  0.1551
15261TIP3    H167274   3.805   6.754   5.246 -0.4828 -0.2359  0.6134
15261TIP3    H267275   3.736   6.620   5.227  0.2264 -0.4706 -0.3902
15262TIP3   OH267276   5.465   3.711   5.099 -0.2531 -0.5806 -0.1015
15262TIP3    H167277   5.516   3.723   5.018 -0.3696  2.0647  0.1179
15262TIP3    H267278   5.517   3.650   5.151  1.0584 -0.4555 -1.2043
15263TIP3   OH267279   5.009   2.893   2.973  0.0073 -0.0031 -0.4479
15263TIP3    H167280   4.918   2.919   2.991  1.0328  2.1679  2.2802
15263TIP3    H267281   5.027   2.823   3.036  0.1942 -0.5887 -1.1388
15264TIP3   OH267282   3.167   5.611  12.788 -0.0205 -0.5622 -0.0514
15264TIP3    H167283   3.096   5.551  12.766  0.5756 -1.1225 -0.4965
15264TIP3    H267284   3.148   5.640  12.877 -0.0839 -1.7526  0.3329
15265TIP3   OH267285   2.588   3.940  12.164  0.0089  0.4587  0.2612
15265TIP3    H167286   2.601   3.852  12.129 -1.6983  0.0985  0.4647
15265TIP3    H267287   2.617   3.934  12.255  1.4447  0.5705 -0.1569
15266TIP3   OH267288   0.070   5.015   2.441  0.0983 -0.2291 -0.3008
15266TIP3    H167289   0.047   5.056   2.358  2.0095  0.2489 -0.6480
15266TIP3    H267290   0.024   5.068   2.507 -1.3877 -0.5790 -1.0195
15267TIP3   OH267291   0.831   4.037  12.060 -0.2567 -0.2394 -0.0852
15267TIP3    H167292   0.838   4.001  11.971  0.5740 -1.1612  0.3256
15267TIP3    H267293   0.775   3.976  12.106  1.1365 -1.0542  0.6115
15268TIP3   OH267294   4.958   0.893  17.276 -0.5418  0.1990 -0.0088
15268TIP3    H167295   4.940   0.866  17.186  0.2829  1.1791 -0.4888
15268TIP3    H267296   4.992   0.815  17.318 -0.2487 -0.0839 -0.7545
15269TIP3   OH267297   3.327   5.432   4.490  0.4395  0.6305  0.2828
15269TIP3    H167298   3.354   5.441   4.399  0.2824 -2.3862 -0.1519
15269TIP3    H267299   3.233   5.414   4.485  0.5230 -0.0532  0.9700
15270TIP3   OH267300   2.757   5.285   4.358  0.2144  0.0619  0.7142
15270TIP3    H167301   2.787   5.194   4.362 -0.2680 -0.1283  0.1929
15270TIP3    H267302   2.662   5.278   4.349  0.3159  0.5607 -1.1758
15271TIP3   OH267303   6.371   3.528   4.124 -0.5812 -0.3444  0.3976
15271TIP3    H167304   6.339   3.446   4.087 -0.8998  0.1045 -0.3388
15271TIP3    H267305   6.449   3.550   4.074 -0.4252 -0.2550  0.6736
15272TIP3   OH267306   4.820   5.429   2.087 -0.0182 -0.2562 -0.0130
15272TIP3    H167307   4.732   5.415   2.122 -0.1330  0.1881 -0.1022
15272TIP3    H267308   4.879   5.419   2.162 -0.3408  1.6844  0.5571
15273TIP3   OH267309   1.721   2.553  14.234  0.0889 -0.6560 -0.3506
15273TIP3    H167310   1.707   2.485  14.299  0.2619 -2.8872 -2.4936
15273TIP3    H267311   1.808   2.534  14.197  1.7582  2.8568  1.2630
15274TIP3   OH267312   2.354   3.717  12.078 -0.1784  0.2699  0.5059
15274TIP3    H167313   2.449   3.704  12.070 -0.4833 -1.0210 -1.9766
15274TIP3    H267314   2.325   3.649  12.138  0.4138  0.5703  1.1556
15275TIP3   OH267315   1.332   4.083   5.341 -0.1378  0.2710 -0.1455
15275TIP3    H167316   1.427   4.086   5.351 -0.1749 -0.2848  0.3864
15275TIP3    H267317   1.310   3.991   5.352 -0.3726 -0.2445 -3.7085
15276TIP3   OH267318   2.517   3.723   3.817  0.0751 -0.2426 -0.0765
15276TIP3    H167319   2.584   3.788   3.834  0.2532 -0.7287  1.2078
15276TIP3    H267320   2.437   3.759   3.856 -0.4993  0.4316 -1.7816
15277TIP3   OH267321   4.782   1.113   3.305  0.3537  0.3627 -0.2588
15277TIP3    H167322   4.868   1.078   3.328 -0.0290 -0.1040  0.4834
15277TIP3    H267323   4.729   1.099   3.383 -0.7993 -0.6727 -1.1876
15278TIP3   OH267324   0.028   4.151   2.147 -0.3612  0.6842  0.5864
15278TIP3    H167325   0.063   4.234   2.113 -0.5230  0.6947  0.4457
15278TIP3    H267326  -0.047   4.131   2.091  0.2448 -0.0455  0.0199
15279TIP3   OH267327   5.669   5.430  14.624  0.1993 -0.4714  0.3147
15279TIP3    H167328   5.590   5.466  14.583  0.6338  0.7534  0.5095
15279TIP3    H267329   5.637   5.354  14.674 -0.5169 -1.2563 -1.2562
15280TIP3   OH267330   1.461   3.469   2.498 -0.4063  0.2099 -0.4349
15280TIP3    H167331   1.446   3.441   2.408  0.8418  0.4592 -0.7304
15280TIP3    H267332   1.556   3.468   2.509 -0.5478 -0.3444  1.0518
15281TIP3   OH267333   6.726   1.229   1.099 -0.4734  0.2989 -0.2911
15281TIP3    H167334   6.649   1.285   1.110 -0.7586  0.3024 -2.0123
15281TIP3    H267335   6.797   1.290   1.081 -0.5595  0.1704 -1.0747
15282TIP3   OH267336   1.022   4.513   2.059 -0.3570  0.1185  0.1256
15282TIP3    H167337   0.940   4.470   2.083 -0.9329  0.5800 -0.9462
15282TIP3    H267338   1.011   4.604   2.089 -0.1290  0.1243  0.1967
15283TIP3   OH267339   2.527   5.796  11.239  0.0091  0.1461  0.2691
15283TIP3    H167340   2.623   5.787  11.237 -0.0120 -0.8613  2.1176
15283TIP3    H267341   2.498   5.750  11.160  1.1094  2.7926 -1.8652
15284TIP3   OH267342   4.924   4.768  15.562 -0.1995  0.3624  0.4262
15284TIP3    H167343   4.958   4.856  15.577 -2.0206  1.1182  0.3974
15284TIP3    H267344   4.948   4.748  15.471  1.6082  0.1364  0.9182
15285TIP3   OH267345   1.532   2.693  15.443  0.8927 -0.2807 -0.1688
15285TIP3    H167346   1.617   2.649  15.437  1.5645  0.8386  0.7003
15285TIP3    H267347   1.518   2.705  15.537  0.3712  0.6558 -0.3535
15286TIP3   OH267348   4.316   0.277  15.067 -0.7398  0.2562  0.3669
15286TIP3    H167349   4.369   0.324  15.003  0.0934 -0.3446  0.5978
15286TIP3    H267350   4.226   0.303  15.048 -0.3983  1.0140 -0.2662
15287TIP3   OH267351   1.478   4.243  12.375 -0.0623  0.2807  0.4119
15287TIP3    H167352   1.405   4.202  12.330 -2.2602  2.1880  2.0182
15287TIP3    H267353   1.472   4.336  12.354  1.1893  0.6575  1.5263
15288TIP3   OH267354   1.874   6.025   1.220 -0.3926 -0.9436 -0.1629
15288TIP3    H167355   1.836   5.939   1.201 -0.3324 -1.4849  1.9178
15288TIP3    H267356   1.934   6.009   1.293  0.7370  0.6287 -0.6820
15289TIP3   OH267357   0.968   3.499  11.821 -0.2701  0.3627  0.6836
15289TIP3    H167358   0.875   3.481  11.835 -0.4260 -0.4136 -1.0372
15289TIP3    H267359   0.971   3.547  11.738  0.9843 -2.2977 -0.9802
15290TIP3   OH267360   0.795   0.249   5.584  0.2253 -0.2898 -0.4210
15290TIP3    H167361   0.810   0.344   5.583  2.3348 -0.5644  0.4464
15290TIP3    H267362   0.701   0.240   5.572  0.1622  1.8451 -2.1872
15291TIP3   OH267363   1.884   0.179  11.080  0.4824 -0.0015 -0.1448
15291TIP3    H167364   1.945   0.118  11.121 -0.1030 -0.4254  0.1114
15291TIP3    H267365   1.921   0.195  10.993  1.9141  1.1690  0.6287
15292TIP3   OH267366   6.339   4.976   3.968 -0.9107  0.0679  0.3766
15292TIP3    H167367   6.425   5.013   3.948 -1.3767  1.0766  0.1879
15292TIP3    H267368   6.325   4.910   3.900 -0.7618  0.6904 -0.2674
15293TIP3   OH267369   1.940   2.337  14.022  0.1389  0.6776  0.0257
15293TIP3    H167370   1.964   2.329  14.115  0.3509 -0.4341 -0.1130
15293TIP3    H267371   2.014   2.298  13.975 -0.7804 -0.4302 -0.5300
15294TIP3   OH267372   4.570   4.583  12.972 -0.2695  0.5961 -0.5105
15294TIP3    H167373   4.656   4.564  12.935 -0.8568  1.1206 -2.2343
15294TIP3    H267374   4.578   4.561  13.064  1.6614  0.4664 -0.6739
15295TIP3   OH267375   1.882   6.688   3.045 -0.5610 -0.6988  0.0120
15295TIP3    H167376   1.957   6.741   3.020 -0.7510 -1.2763 -2.0161
15295TIP3    H267377   1.844   6.659   2.961 -0.6132 -3.8179  0.9747
15296TIP3   OH267378   5.838   3.565   3.556 -0.6487  0.2822 -0.2293
15296TIP3    H167379   5.837   3.610   3.471  3.5354 -1.6177 -1.5646
15296TIP3    H267380   5.815   3.474   3.535  1.4145 -0.4309  0.3953
15297TIP3   OH267381   0.942   2.569   6.414 -0.5833  0.1020 -0.1415
15297TIP3    H167382   1.003   2.607   6.351  0.5133 -2.2816 -0.6110
15297TIP3    H267383   0.997   2.519   6.474 -1.9504 -1.1774  0.1071
15298TIP3   OH267384   3.734   1.509   2.575  0.5359 -0.6714 -0.3487
15298TIP3    H167385   3.687   1.428   2.556  0.8243 -1.0791  0.6242
15298TIP3    H267386   3.669   1.578   2.562  0.0276 -1.1306 -0.2843
15299TIP3   OH267387   2.284   0.767  11.356  1.2114  0.2840  0.0749
15299TIP3    H167388   2.348   0.833  11.381 -0.5826  2.3663 -0.5388
15299TIP3    H267389   2.253   0.731  11.440 -0.1397  2.6583  0.7032
15300TIP3   OH267390   2.853   4.221   3.515  0.2130 -0.2602  0.0594
15300TIP3    H167391   2.836   4.156   3.448  2.4278 -0.0847 -0.7394
15300TIP3    H267392   2.769   4.266   3.526 -1.3524 -3.0716  0.5404
15301TIP3   OH267393   1.069   3.169  14.083  0.3062 -0.2162  0.0489
15301TIP3    H167394   1.147   3.220  14.062  0.5886 -0.3928  0.6586
15301TIP3    H267395   1.060   3.177  14.178  0.2702 -1.1687  0.1349
15302TIP3   OH267396   1.288   2.817   6.286  0.3844  0.0988  0.0389
15302TIP3    H167397   1.366   2.782   6.243  0.0221 -0.8259  0.1065
15302TIP3    H267398   1.249   2.876   6.222  0.5103 -0.3272 -0.4332
15303TIP3   OH267399   1.573   0.040  12.483  0.5391 -0.1191  0.2272
15303TIP3    H167400   1.579   0.135  12.496  0.2113 -0.3628  2.7849
15303TIP3    H267401   1.489   0.016  12.523 -0.0077 -1.3720 -1.5422
15304TIP3   OH267402   3.227   4.030  15.755  0.5594 -0.4194 -0.2855
15304TIP3    H167403   3.178   3.951  15.732 -0.6794  0.4198 -0.6082
15304TIP3    H267404   3.222   4.086  15.678  0.9435  0.2214  0.1400
15305TIP3   OH267405   3.397   3.369   1.715  0.4020 -0.2114  0.0204
15305TIP3    H167406   3.329   3.379   1.782  0.8684 -0.2201  0.5052
15305TIP3    H267407   3.349   3.361   1.633 -0.2354 -1.4296  0.4865
15306TIP3   OH267408   0.663   5.825  16.584 -0.1842 -0.4435 -0.1741
15306TIP3    H167409   0.698   5.738  16.569 -0.5119 -0.4475 -0.9669
15306TIP3    H267410   0.568   5.812  16.587 -0.2011 -0.2138  0.4197
15307TIP3   OH267411   4.831   0.312  12.410  0.1990 -0.4338 -0.6108
15307TIP3    H167412   4.859   0.240  12.467  1.3955 -0.4599 -1.2003
15307TIP3    H267413   4.894   0.311  12.338  1.3319  2.2994  0.2198
15308TIP3   OH267414   2.521   5.430   6.800  0.2109 -0.5092  0.1770
15308TIP3    H167415   2.610   5.432   6.834  0.1136 -0.3270  0.4243
15308TIP3    H267416   2.482   5.513   6.829  0.4574  0.1605 -1.2905
15309TIP3   OH267417   5.703   6.474  12.231  0.5239 -0.2419  0.1279
15309TIP3    H167418   5.718   6.451  12.140 -0.8175  3.3323 -1.2097
15309TIP3    H267419   5.645   6.551  12.226  1.4368  0.8978  3.9344
15310TIP3   OH267420   4.585   5.619  12.967 -0.0688 -0.0501 -0.5448
15310TIP3    H167421   4.539   5.544  12.929 -1.8577  0.8751 -0.3060
15310TIP3    H267422   4.622   5.586  13.048  0.3799 -1.0162 -1.1229
15311TIP3   OH267423   0.746   0.620  11.076  0.5046 -0.0239  0.2350
15311TIP3    H167424   0.815   0.555  11.061  0.4019  0.1083 -0.9279
15311TIP3    H267425   0.784   0.703  11.048 -0.0463  0.0868 -0.2155
15312TIP3   OH267426   3.049   1.395  11.493 -0.5367 -0.3001 -0.8644
15312TIP3    H167427   2.979   1.348  11.539 -0.3681  0.8480  0.6666
15312TIP3    H267428   3.077   1.462  11.556  0.7737  0.3569 -2.1054
15313TIP3   OH267429   4.620   0.932   0.705  0.2991  0.1083  0.1870
15313TIP3    H167430   4.672   0.853   0.692 -1.2658 -1.0637  0.7640
15313TIP3    H267431   4.632   0.954   0.798 -0.1940 -0.1300  0.3058
15314TIP3   OH267432   6.433   2.438  14.598 -0.1220 -0.0674  0.0867
15314TIP3    H167433   6.460   2.453  14.688 -2.1416 -0.6171  0.8282
15314TIP3    H267434   6.473   2.355  14.574  0.4539  0.1030  0.4537
15315TIP3   OH267435   1.454   5.587   5.877 -0.6187  0.6869  0.1661
15315TIP3    H167436   1.372   5.542   5.856 -0.1018  1.2530 -3.8892
15315TIP3    H267437   1.520   5.540   5.826  0.1901  4.7852 -3.1478
15316TIP3   OH267438   3.531   6.098  15.428 -0.1370  0.7192 -0.4677
15316TIP3    H167439   3.577   6.061  15.503  0.3176  1.7179 -0.2337
15316TIP3    H267440   3.441   6.109  15.457 -0.6490 -1.5339 -1.0272
15317TIP3   OH267441   1.772   4.774   5.774 -0.3181  0.8274 -0.3856
15317TIP3    H167442   1.699   4.719   5.803 -0.3123  2.1075  2.3011
15317TIP3    H267443   1.847   4.714   5.771 -1.1011 -0.1494 -1.6269
15318TIP3   OH267444   4.409   0.809   5.350 -0.2286  0.4678  0.0135
15318TIP3    H167445   4.454   0.891   5.369  1.4540  0.2114 -2.5389
15318TIP3    H267446   4.328   0.836   5.306  0.1870  0.7718 -0.5722
15319TIP3   OH267447   5.404   5.497  12.698 -0.0129 -0.3229  0.1307
15319TIP3    H167448   5.346   5.499  12.774  0.3423 -0.8889  0.4230
15319TIP3    H267449   5.377   5.419  12.650  1.1951 -1.1956  0.8242
15320TIP3   OH267450   3.995   3.453  13.328 -0.2789  0.5479 -0.2612
15320TIP3    H167451   3.984   3.360  13.310  0.7725  0.7100 -1.9417
15320TIP3    H267452   3.995   3.494  13.242 -1.8094  2.2567  0.4933
15321TIP3   OH267453   0.265   5.990   5.389  0.0826 -0.3050  0.4069
15321TIP3    H167454   0.246   6.034   5.306 -0.2443  0.7179  1.0045
15321TIP3    H267455   0.179   5.981   5.431  0.2951 -0.4572  0.8098
15322TIP3   OH267456   1.815   5.786   1.121 -0.8271  0.4602  0.1258
15322TIP3    H167457   1.836   5.714   1.061 -1.5928 -0.4296  0.8854
15322TIP3    H267458   1.819   5.745   1.208 -1.6845  1.2362  0.5441
15323TIP3   OH267459   2.747   4.713   4.466 -0.2857  0.2087 -0.3838
15323TIP3    H167460   2.828   4.759   4.447  0.1787 -0.5764 -0.3461
15323TIP3    H267461   2.752   4.633   4.415 -0.7026 -0.1937  0.1867
15324TIP3   OH267462   6.023   1.582  16.148  0.1333  0.3780 -0.2836
15324TIP3    H167463   6.074   1.647  16.197  1.2619  0.6592 -1.7552
15324TIP3    H267464   5.932   1.601  16.170  0.4705  2.1291 -0.2434
15325TIP3   OH267465   3.047   4.178   5.390  0.4953  0.0539  0.2353
15325TIP3    H167466   2.954   4.179   5.408  0.1746 -0.9051 -1.1634
15325TIP3    H267467   3.066   4.263   5.350 -0.4144 -0.7640 -2.1253
15326TIP3   OH267468   2.394   4.646   6.481 -0.6302  0.5970 -0.3367
15326TIP3    H167469   2.369   4.636   6.573  0.9730  2.8135  0.4516
15326TIP3    H267470   2.467   4.586   6.469 -0.1296  1.0736  0.2095
15327TIP3   OH267471   0.492   0.393   2.301  0.1414  0.0007 -0.3812
15327TIP3    H167472   0.549   0.405   2.376  1.7216 -0.9456 -1.3631
15327TIP3    H267473   0.522   0.457   2.237  0.2048 -0.5829 -0.9535
15328TIP3   OH267474   5.814   5.867  13.921  0.6118 -0.8027 -0.6558
15328TIP3    H167475   5.740   5.911  13.964 -0.5177 -3.3349  0.2013
15328TIP3    H267476   5.856   5.818  13.991  2.3567 -0.4588 -1.4050
15329TIP3   OH267477   4.487   2.654  12.317  0.5946  0.3495 -0.6245
15329TIP3    H167478   4.448   2.728  12.364 -0.7696 -0.3648 -0.5960
15329TIP3    H267479   4.413   2.598  12.294  1.4586 -0.3558 -1.8215
15330TIP3   OH267480   1.794   2.734  16.599 -0.9110  0.1917  0.2818
15330TIP3    H167481   1.819   2.813  16.648  0.3821  1.7930 -2.6911
15330TIP3    H267482   1.877   2.700  16.565 -1.6325 -1.5613  0.1690
15331TIP3   OH267483   3.716   5.546  14.537 -0.0237 -0.5098 -0.4010
15331TIP3    H167484   3.721   5.638  14.562  0.6469 -0.3498 -1.1036
15331TIP3    H267485   3.706   5.546  14.442 -3.1129 -1.1092 -0.1703
15332TIP3   OH267486   0.074   4.459   4.684 -0.0861 -0.3450  0.2446
15332TIP3    H167487   0.135   4.424   4.749  0.1569 -1.9426 -0.7924
15332TIP3    H267488  -0.010   4.419   4.706 -1.1246  2.5927  2.2677
15333TIP3   OH267489   3.697   2.855   0.510 -0.2049 -0.1364  0.2025
15333TIP3    H167490   3.709   2.760   0.501  0.5408 -0.2130  1.7074
15333TIP3    H267491   3.786   2.889   0.522 -0.4774  0.7530 -0.2262
15334TIP3   OH267492   4.424   2.271  15.243  0.3300 -0.2051 -0.0172
15334TIP3    H167493   4.448   2.223  15.164 -0.3240  0.6583 -0.7676
15334TIP3    H267494   4.442   2.363  15.221 -0.8234  0.1524  0.4471
15335TIP3   OH267495   2.465   3.468  14.350 -0.5009 -0.8999  0.4682
15335TIP3    H167496   2.530   3.532  14.321 -0.3809 -1.0631  0.3771
15335TIP3    H267497   2.411   3.452  14.273 -0.6786 -0.7313  0.5559
15336TIP3   OH267498   6.165   6.382  13.092 -0.0349  0.1138 -0.1995
15336TIP3    H167499   6.077   6.420  13.092 -0.5500 -1.0406 -1.0261
15336TIP3    H267500   6.152   6.291  13.117  0.8819 -0.1644 -0.7005
15337TIP3   OH267501   0.702   4.971  14.769 -0.0046 -0.4553 -0.4595
15337TIP3    H167502   0.653   4.962  14.850  0.7194 -2.1406 -0.1652
15337TIP3    H267503   0.661   4.909  14.709  1.1839 -1.2579 -0.4792
15338TIP3   OH267504   2.331   5.939   0.644  0.2739 -0.4861 -0.0073
15338TIP3    H167505   2.309   5.878   0.714  1.6117  0.3973  1.2427
15338TIP3    H267506   2.299   6.024   0.675 -1.1283 -0.4268 -1.4974
15339TIP3   OH267507   1.637   3.561   0.449  0.2814  0.6126  0.3971
15339TIP3    H167508   1.567   3.501   0.475 -0.0699  0.6672 -0.4179
15339TIP3    H267509   1.718   3.515   0.473 -0.0030  0.0990  0.3732
15340TIP3   OH267510   1.081   1.514   4.430 -0.5083 -0.0359 -0.1343
15340TIP3    H167511   1.041   1.599   4.450  0.8913  0.2815  1.5439
15340TIP3    H267512   1.147   1.534   4.364  0.5146  0.4030  0.9835
15341TIP3   OH267513   5.230   5.461  12.467 -0.5179  0.7583  0.5748
15341TIP3    H167514   5.293   5.496  12.404 -0.7588 -0.6568 -0.5019
15341TIP3    H267515   5.148   5.507  12.448 -1.0806 -0.9165 -1.4698
15342TIP3   OH267516   2.969   4.227  10.699  0.4869  0.3688  0.6979
15342TIP3    H167517   2.960   4.315  10.663 -0.7288 -0.0868 -0.1478
15342TIP3    H267518   2.882   4.204  10.730  0.6456 -0.7883  0.3313
15343TIP3   OH267519   0.919   6.070   1.272  0.3993 -0.4877  0.0956
15343TIP3    H167520   0.928   6.079   1.367  1.1438  1.0526 -0.0812
15343TIP3    H267521   1.003   6.032   1.244  1.9149  2.8014 -0.3035
15344TIP3   OH267522   6.598   6.103   4.863 -0.1434 -0.6740  0.4034
15344TIP3    H167523   6.577   6.196   4.853  1.8694 -0.2072  0.2048
15344TIP3    H267524   6.535   6.059   4.805  0.2572  0.7303 -1.1971
15345TIP3   OH267525   4.495   1.452   4.185 -0.2929 -0.2701  0.3141
15345TIP3    H167526   4.514   1.389   4.115  1.0122 -0.1798  0.5515
15345TIP3    H267527   4.479   1.535   4.140  2.2101  0.1968  0.1141
15346TIP3   OH267528   5.396   2.029   1.483 -0.1125  0.5996  0.7623
15346TIP3    H167529   5.449   2.073   1.416  0.9753 -1.8901 -0.1060
15346TIP3    H267530   5.456   2.013   1.555  0.1933 -1.5410  0.0880
15347TIP3   OH267531   1.010   2.573   1.318  0.0307 -0.3546 -0.2465
15347TIP3    H167532   1.011   2.665   1.292  1.0680 -0.3115 -0.1241
15347TIP3    H267533   1.102   2.545   1.310 -0.0553 -1.0335  0.9227
15348TIP3   OH267534   2.046   6.776   1.526 -0.2796  0.2516 -0.4216
15348TIP3    H167535   2.034   6.808   1.436 -0.1820  0.4560 -0.3622
15348TIP3    H267536   1.968   6.723   1.542 -1.1708  1.6054 -0.0311
15349TIP3   OH267537   2.020   2.351  12.916  0.2803  0.3618  0.4169
15349TIP3    H167538   2.081   2.425  12.908  0.2072  0.4454  0.6322
15349TIP3    H267539   2.017   2.313  12.828 -2.2969  2.6710 -0.6761
15350TIP3   OH267540   1.797   5.798  11.279 -0.0475  0.8352 -0.4977
15350TIP3    H167541   1.807   5.861  11.209  0.9086  0.3706 -0.7983
15350TIP3    H267542   1.844   5.720  11.249 -0.8315  0.1236  0.0445
15351TIP3   OH267543   2.806   5.148  15.531  0.4386 -0.4730 -0.1863
15351TIP3    H167544   2.882   5.197  15.499 -0.2857  0.1289 -1.0297
15351TIP3    H267545   2.801   5.171  15.624  2.3849 -2.0085  0.3540
15352TIP3   OH267546   1.041   1.364   0.123  0.9741 -0.8210 -0.0231
15352TIP3    H167547   0.991   1.445   0.112 -0.1061 -0.8173  3.6340
15352TIP3    H267548   1.118   1.375   0.067 -0.1767  1.7727 -1.2419
15353TIP3   OH267549   1.241   1.636   0.318  0.1330  0.1338  0.9705
15353TIP3    H167550   1.275   1.726   0.315 -0.8939  0.6565 -3.8478
15353TIP3    H267551   1.319   1.581   0.307  0.5852  0.4944  2.2294
15354TIP3   OH267552   4.228   2.453  12.883 -0.3176 -0.6421  0.0528
15354TIP3    H167553   4.322   2.472  12.888 -0.2573 -0.7410 -0.5964
15354TIP3    H267554   4.221   2.390  12.811 -0.9703 -0.0594 -0.3937
15355TIP3   OH267555   4.638   1.563  11.293  0.1734  0.5458  0.3449
15355TIP3    H167556   4.622   1.642  11.242 -4.5923  0.3400  1.0890
15355TIP3    H267557   4.665   1.497  11.229 -0.7151  1.5559 -1.1105
15356TIP3   OH267558   2.170   2.251  13.290  0.6235  0.0875 -0.1502
15356TIP3    H167559   2.120   2.176  13.321 -1.1758  2.2565  2.7607
15356TIP3    H267560   2.247   2.254  13.348  0.0361  1.1230  0.6137
15357TIP3   OH267561   5.405   0.834  12.427  0.2342 -0.9157  0.5076
15357TIP3    H167562   5.320   0.812  12.389  0.4319  1.2378 -1.4715
15357TIP3    H267563   5.462   0.762  12.402 -0.1137 -0.4637 -1.8457
15358TIP3   OH267564   2.272   4.016  14.020 -0.0771 -0.4577  0.2777
15358TIP3    H167565   2.240   3.942  13.969  0.4778 -0.4359 -0.1012
15358TIP3    H267566   2.236   4.001  14.108 -0.9426 -0.5462 -0.0843
15359TIP3   OH267567   4.263   3.123   4.294  0.1449  0.4764  0.2073
15359TIP3    H167568   4.179   3.110   4.338 -0.2163 -0.1293 -0.6209
15359TIP3    H267569   4.313   3.181   4.352 -0.2148 -0.4825  1.5232
15360TIP3   OH267570   6.644   1.181  15.957 -0.2168  0.0225 -0.2383
15360TIP3    H167571   6.642   1.085  15.951  3.2494 -0.2823  1.4050
15360TIP3    H267572   6.606   1.200  16.042  0.6653 -0.0587  0.1817
15361TIP3   OH267573   0.544   1.156   1.864  0.6462 -0.4591  0.0377
15361TIP3    H167574   0.573   1.138   1.953  1.1085  0.1349  0.0166
15361TIP3    H267575   0.611   1.116   1.808  0.5329 -0.5480 -0.0329
15362TIP3   OH267576   4.971   6.776   0.937  0.1296 -0.1152 -0.0107
15362TIP3    H167577   4.985   6.825   0.856 -0.6405  0.0810 -0.0392
15362TIP3    H267578   4.943   6.689   0.908 -1.2071  0.2780  0.0205
15363TIP3   OH267579   6.055   4.299  16.225 -0.1253 -0.5219  0.1602
15363TIP3    H167580   5.980   4.266  16.174 -0.0473  0.7026 -0.8044
15363TIP3    H267581   6.119   4.228  16.221 -0.3639 -0.7026 -0.9504
15364TIP3   OH267582   2.468   5.743   5.811 -0.3087 -0.3437 -0.0328
15364TIP3    H167583   2.455   5.687   5.888 -1.3572 -1.4609 -0.9750
15364TIP3    H267584   2.558   5.725   5.784 -0.8286 -2.1661 -0.7157
15365TIP3   OH267585   4.226   2.657  12.651  0.5187 -0.5129  0.0448
15365TIP3    H167586   4.203   2.747  12.671  0.9473 -0.3319 -0.2610
15365TIP3    H267587   4.176   2.636  12.571  0.2787 -0.6073  0.2196
15366TIP3   OH267588   2.298   3.152  11.992  0.1923  0.1100  0.3773
15366TIP3    H167589   2.208   3.145  11.959 -0.3297  0.5167  1.6245
15366TIP3    H267590   2.326   3.062  12.004 -1.1195 -0.0818  2.6123
15367TIP3   OH267591   1.811   3.440   5.853 -0.7169 -0.4690 -0.4774
15367TIP3    H167592   1.806   3.504   5.923 -1.2878 -2.0842  1.0183
15367TIP3    H267593   1.756   3.476   5.783  0.3555  1.4553 -0.3889
15368TIP3   OH267594   0.536   3.022  13.757  0.3174  0.2467  0.0862
15368TIP3    H167595   0.463   3.010  13.696 -0.6284 -1.2378  1.4299
15368TIP3    H267596   0.528   3.112  13.787 -0.8033  0.1987 -0.0203
15369TIP3   OH267597   5.584   5.746  12.229  0.1997  0.2623 -0.4185
15369TIP3    H167598   5.649   5.718  12.293  0.6533  3.0156  0.4350
15369TIP3    H267599   5.634   5.757  12.148  0.6306  1.4059 -0.0121
15370TIP3   OH267600   2.499   4.112  13.667  0.3849 -0.0338  0.2346
15370TIP3    H167601   2.570   4.143  13.611  1.0642 -0.4460  0.8393
15370TIP3    H267602   2.425   4.169  13.647  0.5384 -0.3110 -1.2220
15371TIP3   OH267603   5.900   4.111  11.320  0.3113  0.0639  0.3807
15371TIP3    H167604   5.941   4.071  11.243  0.3939 -2.1562  1.5011
15371TIP3    H267605   5.973   4.142  11.373  0.5187 -1.9661  1.3672
15372TIP3   OH267606   2.641   2.803   5.716  0.2193  0.1565 -0.4180
15372TIP3    H167607   2.560   2.806   5.665  0.7587  0.4486 -1.2771
15372TIP3    H267608   2.710   2.788   5.651  0.8337 -0.3060  0.3260
15373TIP3   OH267609   5.342   0.364   4.310  0.3553  0.0825 -0.0850
15373TIP3    H167610   5.377   0.401   4.391  0.3152 -0.8950  0.3856
15373TIP3    H267611   5.353   0.434   4.245 -0.7005  1.3403  1.0170
15374TIP3   OH267612   3.452   6.444  17.157 -0.6936 -0.0395 -0.6498
15374TIP3    H167613   3.505   6.393  17.218 -0.3152  1.0405 -0.0545
15374TIP3    H267614   3.369   6.459  17.204 -0.0975  1.4966 -0.0292
15375TIP3   OH267615   6.379   3.529  16.629  1.0440 -0.3381 -0.0384
15375TIP3    H167616   6.440   3.565  16.566 -0.4896  1.3969 -0.6463
15375TIP3    H267617   6.384   3.589  16.704 -1.4291  1.2368 -0.9952
15376TIP3   OH267618   4.245   5.612   4.047 -0.2304 -0.3729 -0.1509
15376TIP3    H167619   4.210   5.701   4.033 -0.6846 -0.4718  0.3143
15376TIP3    H267620   4.208   5.585   4.131 -0.4030 -1.1474 -0.4635
15377TIP3   OH267621   4.226   3.188  13.171  0.1024 -0.9610  0.0983
15377TIP3    H167622   4.147   3.216  13.216  0.2870  0.6744 -0.5460
15377TIP3    H267623   4.297   3.234  13.216  0.5934 -1.6651  0.0554
15378TIP3   OH267624   6.185   4.139   1.597 -0.5442 -0.0814  0.1324
15378TIP3    H167625   6.213   4.049   1.610 -1.7488 -0.7441 -1.4691
15378TIP3    H267626   6.266   4.189   1.590  0.2887 -1.6029 -2.4241
15379TIP3   OH267627   4.584   4.643  12.208  0.5517  0.4807 -0.2325
15379TIP3    H167628   4.679   4.641  12.221  0.7924 -2.9231 -1.6383
15379TIP3    H267629   4.571   4.693  12.128  1.2277  0.2959 -0.4581
15380TIP3   OH267630   0.922   1.284   5.516 -0.4180  0.4627  0.4400
15380TIP3    H167631   0.910   1.300   5.610 -0.2136 -0.4192  0.6172
15380TIP3    H267632   0.851   1.333   5.475  0.2342  1.9151  0.9564
15381TIP3   OH267633   6.173   0.248   6.308 -0.6549  0.5518  0.5523
15381TIP3    H167634   6.197   0.157   6.289 -0.1669  0.8230 -0.1830
15381TIP3    H267635   6.257   0.293   6.320 -0.9176  0.6793  2.0845
15382TIP3   OH267636   4.928   2.433   4.808 -0.5112 -0.4603 -0.1050
15382TIP3    H167637   4.873   2.483   4.868 -0.8820 -0.0314 -0.7874
15382TIP3    H267638   4.966   2.499   4.750  1.8441 -0.5679  1.2106
15383TIP3   OH267639   1.517   5.019  15.902 -0.1778 -0.0733  0.4990
15383TIP3    H167640   1.436   5.058  15.871 -0.0582 -0.0337  0.2318
15383TIP3    H267641   1.557   5.087  15.956  0.6444  0.6739 -0.9749
15384TIP3   OH267642   6.023   3.588  12.121 -0.0887  0.2868 -0.4610
15384TIP3    H167643   5.967   3.511  12.120  1.1715 -0.6680 -0.9102
15384TIP3    H267644   6.010   3.628  12.035  0.0787 -0.0690 -0.6552
15385TIP3   OH267645   6.068   3.655  16.546 -0.1060 -0.3658  0.6514
15385TIP3    H167646   6.031   3.733  16.586 -1.6881 -0.3946 -0.6313
15385TIP3    H267647   6.148   3.685  16.503 -1.3037  0.8661 -0.8504
15386TIP3   OH267648   2.885   2.504   0.698  0.2069  0.3935 -0.9388
15386TIP3    H167649   2.898   2.469   0.610  0.9945 -0.5067 -0.4859
15386TIP3    H267650   2.801   2.468   0.726  0.9744 -1.1253 -0.5092
15387TIP3   OH267651   4.914   0.591   2.589 -0.6305  0.2629  0.3682
15387TIP3    H167652   4.913   0.683   2.616  0.3553  0.1915  0.6791
15387TIP3    H267653   4.981   0.586   2.521 -2.3674  0.2308 -1.4372
15388TIP3   OH267654   2.020   1.640   4.249  0.5787 -0.0724 -0.8400
15388TIP3    H167655   1.936   1.686   4.252  0.7282  0.1987 -0.7125
15388TIP3    H267656   2.031   1.604   4.337 -1.2665 -3.5565 -1.8319
15389TIP3   OH267657   5.671   0.786  12.118 -0.0734 -0.1713  0.0561
15389TIP3    H167658   5.686   0.740  12.035 -0.8748  1.1238 -0.8381
15389TIP3    H267659   5.668   0.879  12.094  1.3929  0.3769  1.7977
15390TIP3   OH267660   5.817   5.539  15.444  0.3675 -1.0789  0.2275
15390TIP3    H167661   5.752   5.607  15.429  0.9324 -0.5911 -0.0367
15390TIP3    H267662   5.836   5.505  15.357  4.5047  2.5330 -0.6347
15391TIP3   OH267663   1.717   4.336   6.202  0.1278  0.2590  0.0757
15391TIP3    H167664   1.752   4.416   6.162 -1.6908  0.3343 -1.5656
15391TIP3    H267665   1.640   4.315   6.149  0.3789 -2.4473  0.6396
15392TIP3   OH267666   4.398   0.209  17.285 -0.1018 -0.5664  0.4410
15392TIP3    H167667   4.329   0.253  17.235  0.3507  0.8961  1.0531
15392TIP3    H267668   4.405   0.123  17.244 -0.6447  0.1110 -1.1783
15393TIP3   OH267669   5.322   6.327   4.600  0.0313  0.2494 -0.4229
15393TIP3    H167670   5.321   6.361   4.510 -1.9946  1.8307  0.1291
15393TIP3    H267671   5.273   6.246   4.595 -2.5473  1.7053 -0.3481
15394TIP3   OH267672   1.193   3.571   6.036  0.0026 -0.0631  0.2533
15394TIP3    H167673   1.183   3.548   6.128 -0.7025  0.3814  0.2940
15394TIP3    H267674   1.286   3.558   6.018  0.5897  1.8129  1.5770
15395TIP3   OH267675   2.059   1.444  13.802 -0.0942  0.3826 -0.2816
15395TIP3    H167676   2.129   1.455  13.866 -1.0784  0.4495  0.8347
15395TIP3    H267677   1.999   1.382  13.843 -0.4640 -0.0265 -1.4124
15396TIP3   OH267678   4.644   2.550  12.615 -0.1275  0.6306 -0.4825
15396TIP3    H167679   4.590   2.480  12.652  0.4809 -0.2232 -1.1407
15396TIP3    H267680   4.621   2.551  12.522  1.7585 -0.5523 -1.0277
15397TIP3   OH267681   2.460   6.492  11.185 -0.2048 -0.4217  0.2462
15397TIP3    H167682   2.483   6.453  11.269  0.6233  0.2381  0.3524
15397TIP3    H267683   2.397   6.561  11.207 -1.3401 -1.3985  0.1080
15398TIP3   OH267684   0.264   1.291   1.205 -0.2103  0.6070 -0.4697
15398TIP3    H167685   0.327   1.344   1.253  0.2359 -0.2394 -0.1064
15398TIP3    H267686   0.181   1.304   1.252  0.0745  0.3395  0.1241
15399TIP3   OH267687   4.564   6.129   0.801  0.1555  0.0242 -0.0514
15399TIP3    H167688   4.502   6.136   0.874  0.2372 -0.5584  0.0772
15399TIP3    H267689   4.630   6.067   0.831  0.7340  0.5370 -0.2444
15400TIP3   OH267690   4.656   4.011   3.050  0.1110 -0.7027 -0.0909
15400TIP3    H167691   4.639   3.916   3.050  1.8866 -1.0713 -0.8859
15400TIP3    H267692   4.713   4.026   3.126 -0.1284 -0.2841  0.0068
15401TIP3   OH267693   3.180   2.067  15.336  0.4572  0.1561 -0.0220
15401TIP3    H167694   3.144   2.068  15.425  0.9007  1.7260  0.1770
15401TIP3    H267695   3.209   2.157  15.321  2.8236 -0.6371 -0.7702
15402TIP3   OH267696   2.690   6.694  11.424  0.3716 -0.3108 -0.1683
15402TIP3    H167697   2.729   6.763  11.477  1.5850 -0.7583 -0.4383
15402TIP3    H267698   2.752   6.680  11.353 -0.4009 -0.8997 -0.7471
15403TIP3   OH267699   5.603   1.666   2.354  0.8762  0.1323  0.6343
15403TIP3    H167700   5.510   1.688   2.349  0.9075  0.0730 -0.5796
15403TIP3    H267701   5.641   1.705   2.275  1.6430 -0.9216  0.4607
15404TIP3   OH267702   5.934   0.652   4.691  0.0260  0.3346 -0.3346
15404TIP3    H167703   6.027   0.669   4.681  0.3485 -0.0787  1.5762
15404TIP3    H267704   5.929   0.561   4.722 -1.0280  0.2764 -0.6187
15405TIP3   OH267705   0.967   5.140  11.265  0.0193 -0.3164  0.1330
15405TIP3    H167706   1.003   5.063  11.308  0.3055  0.0659  0.5896
15405TIP3    H267707   1.035   5.168  11.204  0.3694  0.2220  0.7683
15406TIP3   OH267708   3.727   4.871   2.869 -0.3673 -0.2717 -0.3755
15406TIP3    H167709   3.634   4.886   2.851  0.0727  0.1574 -2.6617
15406TIP3    H267710   3.728   4.821   2.950 -2.7127 -1.9919 -1.2851
15407TIP3   OH267711   6.047   5.726  11.505  0.3091 -0.4450 -0.4115
15407TIP3    H167712   6.029   5.777  11.426 -2.3179 -1.3684 -0.4939
15407TIP3    H267713   6.119   5.772  11.547  0.4147  1.2410 -2.2901
15408TIP3   OH267714   0.340   5.401   1.739 -0.3887  0.6667 -0.2524
15408TIP3    H167715   0.276   5.442   1.797 -0.6644 -0.2994  0.1522
15408TIP3    H267716   0.423   5.442   1.762 -0.0344 -1.3362  2.5954
15409TIP3   OH267717   2.689   5.425  15.510 -0.3092  0.0161 -0.4962
15409TIP3    H167718   2.610   5.408  15.458 -0.5303 -0.9508  0.1309
15409TIP3    H267719   2.671   5.384  15.594 -0.5119  2.6675  0.8555
15410TIP3   OH267720   1.119   2.451   6.583 -0.2751  0.2817 -0.0294
15410TIP3    H167721   1.108   2.404   6.665 -2.1081  0.0979 -0.3303
15410TIP3    H267722   1.214   2.462   6.573  0.1601 -2.3241  0.6181
15411TIP3   OH267723   1.136   5.194  17.270  0.2180 -0.3307  0.0052
15411TIP3    H167724   1.181   5.274  17.298 -0.4364  0.6685 -1.6549
15411TIP3    H267725   1.044   5.218  17.268 -0.0226 -1.2415 -0.1829
15412TIP3   OH267726   2.573   5.749   3.736 -0.5221  0.1609 -0.2473
15412TIP3    H167727   2.596   5.837   3.706  0.0125  0.3041  0.5648
15412TIP3    H267728   2.643   5.725   3.797  0.0222 -1.3386 -1.3985
15413TIP3   OH267729   4.109   2.248   6.180 -0.3296 -0.0628 -0.3650
15413TIP3    H167730   4.148   2.299   6.109 -0.7212 -0.3917 -0.8209
15413TIP3    H267731   4.156   2.164   6.178 -0.2098 -0.0040 -0.1087
15414TIP3   OH267732   4.086   3.812  15.665  0.1186  0.6555  0.1202
15414TIP3    H167733   4.172   3.781  15.693  0.0082  0.6260  0.4280
15414TIP3    H267734   4.026   3.779  15.731  0.1065  2.3003  1.0041
15415TIP3   OH267735   4.141   1.879  14.238 -0.2068  0.0044  0.4422
15415TIP3    H167736   4.211   1.928  14.280  0.0095 -1.1209  1.4646
15415TIP3    H267737   4.065   1.936  14.242  1.1548  2.4421 -3.1779
15416TIP3   OH267738   5.665   4.044  13.422 -0.1918  0.3897 -0.4573
15416TIP3    H167739   5.648   4.091  13.341  0.4303  0.5328 -0.5064
15416TIP3    H267740   5.612   4.089  13.488  0.2307  1.0228 -0.5467
15417TIP3   OH267741   5.225   3.919  13.004 -0.1035 -0.1422  0.2762
15417TIP3    H167742   5.282   3.985  13.044 -0.4919  1.5934 -1.8657
15417TIP3    H267743   5.281   3.873  12.943 -0.6715  0.8340 -1.0329
15418TIP3   OH267744   2.523   6.314  11.368  0.2636  0.5444  0.7627
15418TIP3    H167745   2.525   6.239  11.308  1.3674  0.3846  0.9631
15418TIP3    H267746   2.471   6.283  11.442 -1.6791  0.9709 -0.3518
15419TIP3   OH267747   4.226   6.750  14.073  0.5520  0.7379 -0.0033
15419TIP3    H167748   4.237   6.736  14.167  0.6127 -0.5539 -0.1844
15419TIP3    H267749   4.134   6.732  14.056  1.1190 -2.1380 -0.6289
15420TIP3   OH267750   5.935   2.084  14.288 -0.2408  0.1191 -0.1989
15420TIP3    H167751   5.937   2.009  14.347 -0.5855  0.0949 -0.2168
15420TIP3    H267752   6.014   2.134  14.309 -0.0473 -0.2120 -0.1417
15421TIP3   OH267753   3.387   5.845  12.759  0.1446  0.1088 -0.1017
15421TIP3    H167754   3.321   5.776  12.747 -0.1792  0.4227 -0.1507
15421TIP3    H267755   3.464   5.813  12.711 -0.5043  0.4734 -1.4425
15422TIP3   OH267756   3.201   5.628  11.862 -0.0508  0.2244  0.0915
15422TIP3    H167757   3.223   5.547  11.908  0.0486  0.0233 -0.3068
15422TIP3    H267758   3.117   5.611  11.821  1.7725 -1.2289 -3.5066
15423TIP3   OH267759   2.289   1.738   4.613 -0.1648 -0.3843  0.6180
15423TIP3    H167760   2.262   1.716   4.702 -0.7179 -1.9162  0.0987
15423TIP3    H267761   2.207   1.748   4.565 -0.0255  3.2929  0.8295
15424TIP3   OH267762   2.524   5.883  17.049  0.0227 -0.3164  0.5382
15424TIP3    H167763   2.470   5.813  17.013  0.3375 -0.1133 -0.3662
15424TIP3    H267764   2.603   5.883  16.995 -0.9244  2.2178 -1.0336
15425TIP3   OH267765   2.540   3.104   5.763  0.2633  0.5566  0.0683
15425TIP3    H167766   2.536   3.058   5.846  1.2146  0.7862  0.2563
15425TIP3    H267767   2.543   3.035   5.697  2.9294  0.2536  0.4021
15426TIP3   OH267768   0.352   3.016   1.165  0.3927 -0.4663 -0.4844
15426TIP3    H167769   0.438   3.051   1.144 -0.5981  3.5325  1.2421
15426TIP3    H267770   0.297   3.042   1.091 -0.2228  1.3299  0.5376
15427TIP3   OH267771   3.540   0.450  15.163  0.5149 -0.0427 -0.0145
15427TIP3    H167772   3.474   0.488  15.222  0.9110  2.3120 -0.9489
15427TIP3    H267773   3.624   0.476  15.202  0.7972  0.2719 -0.8090
15428TIP3   OH267774   4.934   2.372  13.991 -0.1594 -0.3073 -0.5493
15428TIP3    H167775   4.846   2.398  13.964  0.1319  1.0488 -0.2323
15428TIP3    H267776   4.990   2.394  13.916  0.0181 -0.5255 -0.4837
15429TIP3   OH267777   5.202   5.170   3.871 -0.5794  0.5335  0.1773
15429TIP3    H167778   5.177   5.160   3.779  1.6852 -0.3175 -0.4228
15429TIP3    H267779   5.297   5.172   3.870  0.0114 -5.2867  2.8525
15430TIP3   OH267780   3.055   6.034   0.300 -0.4553 -0.2566  0.4730
15430TIP3    H167781   3.000   6.021   0.378 -1.3882  1.9150  0.2349
15430TIP3    H267782   3.073   6.127   0.298  0.1589 -0.3757 -1.5334
15431TIP3   OH267783   0.734   0.771   2.261  0.4904 -0.2211  0.5569
15431TIP3    H167784   0.802   0.830   2.294  1.5606 -1.2272  0.2168
15431TIP3    H267785   0.732   0.787   2.167  0.0737 -0.0227  0.5974
15432TIP3   OH267786   1.628   5.460   5.714  0.3124 -0.2674 -0.5730
15432TIP3    H167787   1.701   5.447   5.654 -0.7236  0.0134 -1.9475
15432TIP3    H267788   1.550   5.440   5.662 -0.6308  0.0334  0.6682
15433TIP3   OH267789   0.518   4.682   3.083  0.0943 -0.2841 -0.1871
15433TIP3    H167790   0.528   4.597   3.126 -1.0381 -1.3047 -1.8201
15433TIP3    H267791   0.424   4.701   3.090  0.4283  1.2168  0.7715
15434TIP3   OH267792   2.759   1.954   3.342  0.5605 -0.0563  0.4636
15434TIP3    H167793   2.711   2.036   3.342  0.7428  0.0509  0.7906
15434TIP3    H267794   2.697   1.890   3.379  0.1502 -0.2310 -0.4894
15435TIP3   OH267795   0.317   5.696   1.751  0.2872 -0.4764  0.0864
15435TIP3    H167796   0.244   5.672   1.807 -1.8124  2.6594 -1.0513
15435TIP3    H267797   0.392   5.701   1.811 -1.0042 -1.0537  1.8285
15436TIP3   OH267798   4.814   0.177   3.958 -0.3997  0.2693  0.2520
15436TIP3    H167799   4.793   0.187   4.051 -1.3450 -0.6726  0.1599
15436TIP3    H267800   4.869   0.252   3.938  1.4982 -0.5318  2.0573
15437TIP3   OH267801   2.809   3.234   1.018 -0.7516  0.7974 -0.2991
15437TIP3    H167802   2.721   3.215   0.986 -1.3820  1.4578  0.9601
15437TIP3    H267803   2.801   3.318   1.062  0.0970  0.0598  1.3767
15438TIP3   OH267804   1.998   3.702  11.556  0.3426  0.3886  0.1885
15438TIP3    H167805   1.908   3.671  11.542 -0.0468  0.3626  2.3733
15438TIP3    H267806   1.992   3.797  11.554  0.4257  0.3859 -0.4318
15439TIP3   OH267807   1.101   1.741  11.165  0.3007  0.4444 -0.2785
15439TIP3    H167808   1.125   1.714  11.076 -0.0376 -0.8328  0.0040
15439TIP3    H267809   1.110   1.662  11.218  0.2884  1.1434  0.7878
15440TIP3   OH267810   3.170   4.449  11.125  0.1475  0.6605  0.1552
15440TIP3    H167811   3.140   4.518  11.065  1.3550  1.3087  0.2520
15440TIP3    H267812   3.234   4.493  11.181  0.5104 -0.4158  0.6002
15441TIP3   OH267813   4.245   4.178   3.627  0.3760  0.0190  0.0933
15441TIP3    H167814   4.202   4.109   3.576 -3.0658  1.6313  0.5132
15441TIP3    H267815   4.221   4.160   3.717 -0.2104  1.4680  0.2602
15442TIP3   OH267816   1.827   6.765  15.094  0.7275 -0.0165  0.0110
15442TIP3    H167817   1.742   6.721  15.093  1.0737 -0.6809 -0.8312
15442TIP3    H267818   1.880   6.713  15.154  0.5056  0.4829  0.6511
15443TIP3   OH267819   1.320   3.073   3.461  0.9126  0.0958 -0.5275
15443TIP3    H167820   1.398   3.019   3.476  0.9266  0.3355  0.3427
15443TIP3    H267821   1.271   3.067   3.543  1.9614  3.1002  0.4647
15444TIP3   OH267822   5.675   1.204   0.029 -0.2010 -0.3217 -0.6543
15444TIP3    H167823   5.718   1.213   0.113  1.1592  0.5713 -1.4229
15444TIP3    H267824   5.719   1.267  -0.029 -0.7488 -1.2650 -2.1703
15445TIP3   OH267825   4.323   5.123   6.255  0.0192  0.4276  0.2371
15445TIP3    H167826   4.261   5.095   6.322  2.1566  0.7504  2.4881
15445TIP3    H267827   4.346   5.213   6.279  0.8375  0.5596 -0.9389
15446TIP3   OH267828   0.936   4.359   4.145  0.5875  0.1197 -0.0979
15446TIP3    H167829   0.901   4.323   4.064  0.8130  0.1593 -0.2148
15446TIP3    H267830   0.934   4.285   4.207 -0.6022  0.3781  0.1876
15447TIP3   OH267831   5.770   5.378  13.856  0.3011  0.3520 -0.5100
15447TIP3    H167832   5.689   5.426  13.837 -0.2055 -0.6372 -0.9505
15447TIP3    H267833   5.742   5.286  13.864  0.7994  0.3882  3.1362
15448TIP3   OH267834   5.805   1.237   4.101 -0.4353 -0.4649  0.2732
15448TIP3    H167835   5.897   1.217   4.087 -0.2382  0.4538  0.1797
15448TIP3    H267836   5.759   1.190   4.030  0.1589  0.7132 -0.9407
15449TIP3   OH267837   6.371   6.499  12.268 -0.0010 -0.5919  0.0663
15449TIP3    H167838   6.364   6.521  12.361  0.5693  1.8706 -0.4204
15449TIP3    H267839   6.437   6.430  12.265  1.8441  1.0150  1.3038
15450TIP3   OH267840   6.482   1.479   1.941 -0.4122  0.3389 -0.1285
15450TIP3    H167841   6.512   1.506   2.028 -0.0474 -0.7181  0.0892
15450TIP3    H267842   6.391   1.507   1.937 -0.7760 -0.5862  1.0368
15451TIP3   OH267843   3.907   6.682  12.884 -0.1170  0.0565  0.6031
15451TIP3    H167844   3.885   6.773  12.862  0.1903  0.3289  1.3961
15451TIP3    H267845   4.002   6.678  12.874 -0.3236 -0.7812 -1.5737
15452TIP3   OH267846   5.283   5.424  14.094 -0.0740  0.2659  0.5997
15452TIP3    H167847   5.315   5.352  14.038  0.1712  1.4479 -0.8622
15452TIP3    H267848   5.316   5.403  14.181  1.3851 -0.5861 -0.1040
15453TIP3   OH267849   4.820   5.084  15.091 -1.1413  0.0051 -0.1509
15453TIP3    H167850   4.786   5.173  15.094 -0.5848  0.2210 -0.2128
15453TIP3    H267851   4.824   5.056  15.182 -2.5684 -0.4476 -0.1970
15454TIP3   OH267852   1.192   2.300   2.391  0.0165 -1.0876  0.0743
15454TIP3    H167853   1.219   2.313   2.482  1.2169 -1.7579 -0.1721
15454TIP3    H267854   1.199   2.205   2.377 -0.2787 -1.0045 -0.6832
15455TIP3   OH267855   6.221   4.595   0.478  0.0280  0.5649 -0.2958
15455TIP3    H167856   6.283   4.525   0.498  0.9053  0.8166 -1.9225
15455TIP3    H267857   6.256   4.672   0.523  0.8370  0.6627 -1.0626
15456TIP3   OH267858   5.743   2.790  14.031 -0.2671 -0.3738 -0.3502
15456TIP3    H167859   5.801   2.776  13.956 -1.4890  1.2787 -1.6822
15456TIP3    H267860   5.658   2.757  14.001 -0.4494 -1.1266  0.9210
15457TIP3   OH267861   4.376   1.989   1.159  0.3353  0.1537  0.1295
15457TIP3    H167862   4.450   2.041   1.127 -0.8098  1.7049 -0.1183
15457TIP3    H267863   4.388   1.988   1.254  1.3186 -0.6742  0.0214
15458TIP3   OH267864   5.932   2.440   2.466  0.4251  0.3533 -0.5324
15458TIP3    H167865   5.893   2.506   2.522 -0.2361  1.1870 -1.9185
15458TIP3    H267866   5.904   2.356   2.504 -2.1343  0.8974 -1.0011
15459TIP3   OH267867   3.424   2.537   1.131  0.1973 -0.6355 -0.4532
15459TIP3    H167868   3.345   2.528   1.183  0.5593 -0.5635  0.1197
15459TIP3    H267869   3.409   2.613   1.075  0.4903  0.3763  0.8075
15460TIP3   OH267870   2.933   4.164  12.440 -0.2284 -0.5707 -0.2650
15460TIP3    H167871   2.886   4.107  12.502  0.0810 -0.2589  0.2633
15460TIP3    H267872   3.025   4.154  12.464 -0.0556 -0.8542 -1.0268
15461TIP3   OH267873   5.282   2.248   2.754  0.2263 -0.3505  0.1581
15461TIP3    H167874   5.355   2.195   2.787 -1.2375 -2.5792  0.0153
15461TIP3    H267875   5.257   2.303   2.829  1.9023  0.3371  0.2528
15462TIP3   OH267876   0.959   4.039   4.137 -0.6608  0.3640  0.0472
15462TIP3    H167877   0.919   3.968   4.087 -0.7895  0.7530 -0.4131
15462TIP3    H267878   0.894   4.062   4.203  0.2191 -1.3603  1.5966
15463TIP3   OH267879   4.670   4.398   0.869  0.2387  0.6410 -0.4420
15463TIP3    H167880   4.620   4.323   0.902  1.3824  0.6457  1.4284
15463TIP3    H267881   4.728   4.361   0.803 -1.2146  0.4104 -1.6581
15464TIP3   OH267882   3.563   0.623  13.395 -0.1123  0.4438 -0.4035
15464TIP3    H167883   3.580   0.656  13.307 -2.7023 -0.3923 -1.3204
15464TIP3    H267884   3.468   0.619  13.401 -0.1604  2.6811  3.3243
15465TIP3   OH267885   0.578   0.360   4.972 -0.1956 -0.7295  0.7346
15465TIP3    H167886   0.649   0.303   5.003  0.5742  0.5794  1.4429
15465TIP3    H267887   0.622   0.439   4.942 -1.2204 -0.6297 -0.5875
15466TIP3   OH267888   2.140   4.169  12.514 -0.6186  0.1690 -0.4881
15466TIP3    H167889   2.103   4.176  12.426 -2.7483 -0.5196  0.2817
15466TIP3    H267890   2.112   4.083  12.545  0.4485  0.2246  0.7144
15467TIP3   OH267891   3.338   3.881  11.337  0.0304 -0.2527  0.2822
15467TIP3    H167892   3.328   3.795  11.297  1.9609 -1.1912  1.6186
15467TIP3    H267893   3.421   3.876  11.384  0.6670  2.6663 -0.3075
15468TIP3   OH267894   4.432   3.050  14.978 -0.5854 -0.0030 -0.1022
15468TIP3    H167895   4.526   3.055  14.991 -0.6614 -0.8921  0.9729
15468TIP3    H267896   4.409   3.129  14.930  0.6416  0.4323  0.0103
15469TIP3   OH267897   0.005   3.363  13.129  0.5463  0.4767  0.3626
15469TIP3    H167898   0.066   3.347  13.058  1.6403  0.5296  1.2557
15469TIP3    H267899   0.032   3.447  13.166 -1.9940  2.0777 -1.1166
15470TIP3   OH267900   3.996   0.803  17.214  0.2556  0.4109  0.0480
15470TIP3    H167901   3.941   0.881  17.218 -0.4620 -0.1047  0.2808
15470TIP3    H267902   3.936   0.732  17.191  0.9603 -0.0218 -0.5017
15471TIP3   OH267903   2.496   2.923  14.357  0.7515  0.5053 -0.3274
15471TIP3    H167904   2.543   2.989  14.305  1.8104 -1.5290 -2.1434
15471TIP3    H267905   2.438   2.880  14.294  0.5013 -0.6440  0.6578
15472TIP3   OH267906   5.871   2.365  16.872  0.0806 -0.0649 -0.2240
15472TIP3    H167907   5.802   2.384  16.936 -0.5408 -0.4616 -0.7700
15472TIP3    H267908   5.907   2.281  16.900 -0.2584 -0.2862 -0.4541
15473TIP3   OH267909   6.289   1.475  12.585  0.3373  0.0645 -0.0243
15473TIP3    H167910   6.250   1.561  12.601 -0.7473 -0.5086  0.5392
15473TIP3    H267911   6.356   1.466  12.653  0.0534  0.2228  0.2768
15474TIP3   OH267912   3.845   5.274   0.311 -0.1326 -0.0365 -0.9337
15474TIP3    H167913   3.801   5.226   0.241 -1.0946  1.1976 -1.2166
15474TIP3    H267914   3.774   5.300   0.370  0.5021  0.1225 -0.2291
15475TIP3   OH267915   1.824   3.412  11.486 -0.5811  0.0588 -0.3953
15475TIP3    H167916   1.786   3.464  11.416 -2.9129  0.4081  1.0241
15475TIP3    H267917   1.772   3.434  11.564  0.4961 -1.9023  0.9775
15476TIP3   OH267918   2.305   3.854  16.000  0.2150 -0.2958  0.1268
15476TIP3    H167919   2.247   3.787  16.034 -0.2555  0.2583  0.4314
15476TIP3    H267920   2.267   3.937  16.029  1.2228  0.0785  0.4520
15477TIP3   OH267921   5.813   4.289   1.219  0.3983  0.0675  0.4292
15477TIP3    H167922   5.793   4.249   1.134 -1.0079 -0.9952  1.2157
15477TIP3    H267923   5.840   4.215   1.274 -0.1309  0.5156  1.3114
15478TIP3   OH267924   1.233   1.557   4.186 -0.3086  0.5406  0.0385
15478TIP3    H167925   1.237   1.646   4.153  1.4445  0.6040  0.3298
15478TIP3    H267926   1.313   1.547   4.238 -1.0234 -0.8392  0.9316
15479TIP3   OH267927   1.824   5.160   5.621 -0.0671  0.1049  0.1235
15479TIP3    H167928   1.776   5.156   5.704 -0.4202 -1.3655 -0.1185
15479TIP3    H267929   1.836   5.068   5.596  3.4217  0.3131  0.4697
15480TIP3   OH267930   1.946   4.866  13.554  0.3374  0.2330 -0.0430
15480TIP3    H167931   2.006   4.826  13.616  1.2974  1.4265 -0.1853
15480TIP3    H267932   1.902   4.791  13.513 -1.0290 -0.5905  2.6837
15481TIP3   OH267933   0.516   2.993   3.541  0.5428  0.6120  0.1734
15481TIP3    H167934   0.547   3.060   3.480  2.9301  0.2562  0.8969
15481TIP3    H267935   0.579   2.921   3.532 -0.1895 -0.2572  1.6173
15482TIP3   OH267936   3.016   2.157   0.818  0.0550  0.0723 -0.1841
15482TIP3    H167937   3.061   2.242   0.810  1.9943 -0.8933 -0.2433
15482TIP3    H267938   3.033   2.114   0.734 -1.0353 -0.3312 -0.2055
15483TIP3   OH267939   2.368   5.585  16.121 -0.0242 -0.5054  0.3497
15483TIP3    H167940   2.364   5.601  16.216  0.8702  0.8949  0.1927
15483TIP3    H267941   2.446   5.532  16.109 -0.1277 -0.6688  0.4027
15484TIP3   OH267942   2.251   2.373  15.134 -0.3841  0.5591 -0.0867
15484TIP3    H167943   2.335   2.408  15.165 -0.6500  0.2027  1.0879
15484TIP3    H267944   2.264   2.278  15.133 -0.6154  0.5305 -0.4021
15485TIP3   OH267945   4.319   3.213  16.228  0.0917 -0.4583 -0.0259
15485TIP3    H167946   4.227   3.188  16.236 -0.8593  2.5263 -0.4066
15485TIP3    H267947   4.345   3.179  16.142 -0.5073 -1.6469  0.2331
15486TIP3   OH267948   4.277   2.136  11.305  0.7017 -0.0015 -0.0720
15486TIP3    H167949   4.258   2.192  11.230 -1.2204 -0.1278  0.2911
15486TIP3    H267950   4.320   2.059  11.267  1.0969  0.5940 -0.8543
15487TIP3   OH267951   2.994   2.613  12.381 -0.2573  0.2865  0.2048
15487TIP3    H167952   2.915   2.559  12.380 -0.9577  1.2810  0.4067
15487TIP3    H267953   3.041   2.585  12.460  1.0844 -2.3230 -1.3521
15488TIP3   OH267954   5.345   0.073   2.569 -0.7163  0.1920  0.2131
15488TIP3    H167955   5.305  -0.008   2.601 -2.0721  0.1796 -1.3934
15488TIP3    H267956   5.398   0.046   2.494 -2.8132  0.9546 -1.6531
15489TIP3   OH267957   6.652   5.086   0.696 -0.4754 -0.3703 -0.0485
15489TIP3    H167958   6.730   5.041   0.731 -1.3016 -0.8925  1.1728
15489TIP3    H267959   6.684   5.129   0.617  0.8789 -1.2462 -0.0244
15490TIP3   OH267960   2.548   3.245   6.537 -0.0667  0.7392  0.1038
15490TIP3    H167961   2.556   3.262   6.443 -0.8236  0.7884  0.0462
15490TIP3    H267962   2.608   3.307   6.577  0.7479  0.2903 -0.3725
15491TIP3   OH267963   5.215   3.391   2.919 -0.1705  0.2447  0.6948
15491TIP3    H167964   5.181   3.383   3.008  0.9600 -1.2792  1.0349
15491TIP3    H267965   5.293   3.336   2.918  0.4530  1.0911 -0.9508
15492TIP3   OH267966   4.986   6.315  13.076  0.3186 -0.1957  0.3615
15492TIP3    H167967   4.892   6.298  13.078  0.1286  0.8187  0.8179
15492TIP3    H267968   4.993   6.410  13.081  1.3738 -0.2703  0.5004
15493TIP3   OH267969   3.590   5.001  14.229 -0.4641 -0.1716  0.2587
15493TIP3    H167970   3.677   5.003  14.189  0.0928  0.2938  1.4483
15493TIP3    H267971   3.588   4.919  14.278 -0.6151 -0.0602  0.4381
15494TIP3   OH267972   1.386   6.397  13.787 -0.1622  0.2329  0.1887
15494TIP3    H167973   1.448   6.461  13.751 -0.7623  1.5196  1.3653
15494TIP3    H267974   1.301   6.423  13.752 -0.4052  0.0155  0.6125
15495TIP3   OH267975   6.713   1.963   4.955  0.5521 -0.5705 -0.4449
15495TIP3    H167976   6.695   2.043   5.003  0.1553 -0.5856 -0.5626
15495TIP3    H267977   6.735   1.899   5.023 -0.3815 -0.6946 -0.2327
15496TIP3   OH267978   5.792   1.786   2.538 -0.1008  0.0283 -0.8047
15496TIP3    H167979   5.716   1.744   2.579 -1.0207  2.8023  0.5264
15496TIP3    H267980   5.803   1.738   2.455 -2.5185 -1.2484 -0.4980
15497TIP3   OH267981   0.309   2.782   4.713  0.6899  0.4835  0.1434
15497TIP3    H167982   0.399   2.761   4.687  0.7737  0.4353  0.4766
15497TIP3    H267983   0.308   2.771   4.808  0.7278  1.9429  0.3422
15498TIP3   OH267984   2.973   0.749  11.666 -0.1749  0.5462  0.4126
15498TIP3    H167985   3.045   0.761  11.727  0.4753  3.2365 -0.7464
15498TIP3    H267986   2.914   0.823  11.683 -0.1633  1.1675 -1.8628
15499TIP3   OH267987   1.332   6.788   4.266 -0.0600  0.2633 -0.1302
15499TIP3    H167988   1.367   6.699   4.264  3.0748  1.3329  1.1270
15499TIP3    H267989   1.273   6.789   4.341  1.7105 -0.2379  1.3483
15500TIP3   OH267990   0.469   0.834  14.720 -0.2889  0.1456 -0.1201
15500TIP3    H167991   0.462   0.760  14.781 -1.3052  0.2906 -0.0418
15500TIP3    H267992   0.409   0.899  14.755  0.2443  0.8284 -0.4610
15501TIP3   OH267993   6.260   3.813  11.812 -0.0994  0.1406  0.4353
15501TIP3    H167994   6.335   3.814  11.873 -0.1944  1.1212  0.5624
15501TIP3    H267995   6.284   3.749  11.746  0.5244 -0.1087  0.8855
15502TIP3   OH267996   3.394   3.759   1.555  0.4397  0.2382  0.0201
15502TIP3    H167997   3.368   3.724   1.641 -0.7828 -1.0070 -0.8121
15502TIP3    H267998   3.477   3.714   1.536  0.9307  0.8223  0.7000
15503TIP3   OH267999   1.726   5.340   5.002  0.6953  0.2322 -0.1814
15503TIP3    H168000   1.807   5.299   4.970 -0.0560 -0.6710 -0.9846
15503TIP3    H268001   1.728   5.326   5.096  1.5920  0.4474 -0.1533
15504TIP3   OH268002   1.664   1.486   6.064 -0.1309  0.5310 -0.1744
15504TIP3    H168003   1.575   1.510   6.038 -1.4468 -1.1255  2.3590
15504TIP3    H268004   1.692   1.555   6.123  0.0611  0.7760 -0.5484
15505TIP3   OH268005   1.640   3.478  13.686 -0.1434  0.3004  0.1623
15505TIP3    H168006   1.700   3.439  13.623 -0.5709  0.6961 -0.4888
15505TIP3    H268007   1.664   3.437  13.770 -0.0319 -0.7419 -0.3620
15506TIP3   OH268008   4.447   1.852  16.593 -0.4331  0.3260 -0.3051
15506TIP3    H168009   4.494   1.770  16.608  0.2619  0.7733 -0.0134
15506TIP3    H268010   4.424   1.884  16.681 -2.0320 -0.2979 -0.4551
15507TIP3   OH268011   2.344   1.283   0.770  0.3565 -0.0634 -0.8250
15507TIP3    H168012   2.374   1.363   0.813  0.7511 -0.2292 -0.7843
15507TIP3    H268013   2.268   1.310   0.719 -0.4319  0.0475  0.3587
15508TIP3   OH268014   4.747   6.713   1.229  0.0289  0.2807  0.1976
15508TIP3    H168015   4.739   6.752   1.142  0.0553 -0.1352  0.0096
15508TIP3    H268016   4.840   6.697   1.240 -0.1651 -1.7586 -0.6273
15509TIP3   OH268017   6.341   3.707  10.851  0.1490  0.4830  0.7423
15509TIP3    H168018   6.252   3.730  10.877 -0.1736  0.7276 -0.4899
15509TIP3    H268019   6.398   3.750  10.915 -0.6010  0.9224  1.1209
15510TIP3   OH268020   1.366   4.358   3.673 -0.1705  0.7638 -0.1086
15510TIP3    H168021   1.383   4.440   3.719 -0.9290  0.5830  0.5097
15510TIP3    H268022   1.412   4.291   3.724  0.1017  0.7440 -0.3766
15511TIP3   OH268023   2.547   0.709  15.164  0.0808  0.2367 -0.1846
15511TIP3    H168024   2.611   0.712  15.235  1.5299 -1.4917 -1.3506
15511TIP3    H268025   2.576   0.638  15.108 -0.5603  2.0145 -2.9804
15512TIP3   OH268026   1.164   3.305   1.359 -0.6949 -0.7411  0.0348
15512TIP3    H168027   1.249   3.303   1.402 -0.8135 -0.7060  0.2734
15512TIP3    H268028   1.182   3.338   1.271 -0.6038  0.2758  0.4228
15513TIP3   OH268029   2.264   6.484  13.495 -0.4539 -0.3179 -0.1147
15513TIP3    H168030   2.248   6.572  13.529  0.1256 -0.8682  1.7036
15513TIP3    H268031   2.336   6.495  13.433 -1.1663  0.6435 -0.8081
15514TIP3   OH268032   3.957   4.311   6.441 -0.3156 -0.3056  0.1201
15514TIP3    H168033   3.877   4.276   6.480 -0.3850 -0.1176  0.1455
15514TIP3    H268034   4.026   4.288   6.502 -0.5544  0.8556  0.8600
15515TIP3   OH268035   6.019   5.607   6.077 -0.4159  0.5170  0.2773
15515TIP3    H168036   6.113   5.625   6.071 -0.1437 -0.0344  2.0310
15515TIP3    H268037   5.977   5.676   6.027  0.9083  1.0706 -0.1083
15516TIP3   OH268038   6.303   2.487   5.025  0.0556  0.1816 -0.6227
15516TIP3    H168039   6.266   2.451   5.106  1.4729  0.8024  0.3423
15516TIP3    H268040   6.377   2.539   5.054  1.4475 -0.6721 -2.4347
15517TIP3   OH268041   1.303   4.725   4.017 -0.2165  0.0106 -0.2212
15517TIP3    H168042   1.274   4.804   3.971 -2.1645  0.0311  0.9093
15517TIP3    H268043   1.222   4.688   4.053  0.9921 -0.9475  1.6723
15518TIP3   OH268044   0.594   0.683   5.284  0.2975 -0.9619  0.0128
15518TIP3    H168045   0.635   0.634   5.213 -0.7171 -1.7167 -0.0786
15518TIP3    H268046   0.558   0.616   5.343  0.4530 -0.3446  0.8389
15519TIP3   OH268047   3.816   0.682   4.005 -0.2099  0.1621 -0.3661
15519TIP3    H168048   3.862   0.765   4.000  0.6058 -0.2435  0.1068
15519TIP3    H268049   3.772   0.684   4.090  1.3046 -0.6077  0.4849
15520TIP3   OH268050   6.215   4.624  13.399 -0.2388  0.1875  0.5942
15520TIP3    H168051   6.185   4.612  13.489  1.7340 -3.0392  0.9806
15520TIP3    H268052   6.304   4.590  13.399  0.3138  1.4167 -2.2953
15521TIP3   OH268053   1.213   0.822   3.986 -0.3569  0.1011 -0.3301
15521TIP3    H168054   1.233   0.767   4.061 -0.7645  0.7560  0.2672
15521TIP3    H268055   1.190   0.761   3.916  0.2061 -0.5177  0.0175
15522TIP3   OH268056   2.971   2.586   4.115  0.4889 -0.5440 -0.1012
15522TIP3    H168057   3.060   2.578   4.151  1.5885  2.2788 -1.8521
15522TIP3    H268058   2.925   2.641   4.178  1.3691  1.5677 -1.2298
15523TIP3   OH268059   1.925   2.732   1.712 -0.0777  0.4895  0.2672
15523TIP3    H168060   1.903   2.662   1.773 -2.7656  0.1194 -0.9664
15523TIP3    H268061   1.948   2.687   1.631  0.7455  1.0269  0.1844
15524TIP3   OH268062   1.492   1.131   0.025  0.0541 -0.4800 -0.0234
15524TIP3    H168063   1.587   1.138   0.010  0.0375 -0.5110 -0.1495
15524TIP3    H268064   1.479   1.038   0.046  0.1427 -0.3447  0.6703
15525TIP3   OH268065   4.841   2.910   1.637  0.2547 -0.3515  0.4455
15525TIP3    H168066   4.882   2.944   1.558 -0.3197  0.6324  0.5612
15525TIP3    H268067   4.773   2.850   1.605 -0.3446  0.4605  0.1659
15526TIP3   OH268068   5.324   6.454   2.932  0.4346  0.1290 -0.5498
15526TIP3    H168069   5.229   6.448   2.923  0.4344  0.0608 -0.5024
15526TIP3    H268070   5.341   6.428   3.022  0.4553  0.5909 -0.4182
15527TIP3   OH268071   4.309   1.464   6.889  0.1959 -0.0512 -0.0285
15527TIP3    H168072   4.336   1.379   6.854  1.5684 -0.0884  1.0165
15527TIP3    H268073   4.309   1.522   6.813 -0.0272 -0.8197 -0.6282
15528TIP3   OH268074   1.766   5.868  12.448 -0.4339  0.3338 -0.4950
15528TIP3    H168075   1.711   5.800  12.410  0.2273 -1.1334  1.0799
15528TIP3    H268076   1.853   5.852  12.411 -0.5528  1.2324 -1.2071
15529TIP3   OH268077   4.878   3.355   5.447  0.0898 -0.1990  0.0538
15529TIP3    H168078   4.833   3.338   5.364  1.0784 -2.4141 -0.1013
15529TIP3    H268079   4.891   3.269   5.485 -0.8907  0.7955  2.8812
15530TIP3   OH268080   1.792   3.916  15.827  0.2193  0.5090  0.0927
15530TIP3    H168081   1.879   3.946  15.799 -0.5697  1.4912 -1.4347
15530TIP3    H268082   1.764   3.856  15.758 -1.7043  2.8480 -1.2874
15531TIP3   OH268083   5.228   6.044   0.014 -0.5879 -0.7708 -0.0990
15531TIP3    H168084   5.154   6.060  -0.046 -2.2709  1.7114  2.3634
15531TIP3    H268085   5.190   5.992   0.085  0.3366 -0.4236  0.6661
15532TIP3   OH268086   5.968   2.271   6.694 -0.3668  0.3813  0.4228
15532TIP3    H168087   6.013   2.322   6.626 -0.2908 -0.0106  0.1770
15532TIP3    H268088   5.883   2.251   6.656 -0.0909 -0.3738  0.1887
15533TIP3   OH268089   0.665   0.333   0.994 -0.0268  0.3638 -0.5803
15533TIP3    H168090   0.613   0.402   0.953  1.2410  0.1431 -2.6589
15533TIP3    H268091   0.700   0.374   1.074 -1.7284  1.1164 -0.1747
15534TIP3   OH268092   3.580   6.580   1.322 -0.1180 -0.0344  0.1985
15534TIP3    H168093   3.543   6.566   1.235 -1.3075 -0.8897  0.8034
15534TIP3    H268094   3.590   6.492   1.358 -0.4169  0.3387  1.2249
15535TIP3   OH268095   3.638   6.403  11.223 -0.0615  0.6001 -0.0477
15535TIP3    H168096   3.677   6.383  11.308 -1.7537 -0.1109  0.5917
15535TIP3    H268097   3.621   6.498  11.227  1.8329  0.9981 -0.4756
15536TIP3   OH268098   4.047   2.414  16.564 -0.4390 -0.2383  0.7959
15536TIP3    H168099   4.073   2.471  16.636  0.3579 -0.8472  0.9956
15536TIP3    H268100   4.115   2.347  16.560 -0.0537  0.1814 -0.9776
15537TIP3   OH268101   2.285   5.138   6.505 -0.2253  0.1903 -0.2574
15537TIP3    H168102   2.257   5.061   6.554 -0.3509 -0.4282 -1.2748
15537TIP3    H268103   2.290   5.208   6.571 -0.6176 -0.5532  0.5830
15538TIP3   OH268104   5.052   3.070   0.716  0.2343  0.2195  0.0915
15538TIP3    H168105   4.976   3.119   0.747 -0.4221 -1.6498  1.5814
15538TIP3    H268106   5.111   3.137   0.681 -0.2862  2.1795  2.6725
15539TIP3   OH268107   6.516   6.637  12.514  0.1013 -0.5509 -0.0557
15539TIP3    H168108   6.586   6.611  12.455  0.8112  0.3247  0.3767
15539TIP3    H268109   6.500   6.729  12.494  0.1302 -0.3288  0.8855
15540TIP3   OH268110   5.752   6.625  17.282 -0.1602 -0.7431  0.0757
15540TIP3    H168111   5.828   6.670  17.319 -0.6049 -0.5782  0.8036
15540TIP3    H268112   5.688   6.624  17.352 -0.5057 -1.6968 -0.2319
15541TIP3   OH268113   4.110   0.724  12.500 -0.2664 -0.5895 -0.2536
15541TIP3    H168114   4.082   0.633  12.503 -0.0346 -0.6927 -1.1410
15541TIP3    H268115   4.108   0.752  12.592 -0.3818 -1.4667  0.0227
15542TIP3   OH268116   3.938   0.171  13.426 -0.1393  0.1451 -0.2462
15542TIP3    H168117   3.865   0.220  13.389  0.0850  2.6770  2.4016
15542TIP3    H268118   4.016   0.223  13.404  0.3017  0.1226  1.1903
15543TIP3   OH268119   3.398   5.863   3.270  0.0940 -0.3361 -0.0892
15543TIP3    H168120   3.396   5.889   3.178  1.4728 -0.4107 -0.1673
15543TIP3    H268121   3.470   5.915   3.308 -1.0872  0.4384  1.1968
15544TIP3   OH268122   0.824   2.986   1.379  0.1831  0.0297 -0.1227
15544TIP3    H168123   0.843   3.039   1.302  0.6474  0.1696  0.0903
15544TIP3    H268124   0.766   3.040   1.432  1.2926  0.6417  0.4728
15545TIP3   OH268125   6.735   1.737   0.783 -0.6329  0.1585  0.4268
15545TIP3    H168126   6.653   1.746   0.734 -1.8354 -0.0566  2.2775
15545TIP3    H268127   6.723   1.793   0.860  0.2812 -1.1259  1.5592
15546TIP3   OH268128   0.433   5.915   0.536  0.0844 -1.2793 -0.1490
15546TIP3    H168129   0.501   5.939   0.473  0.5425 -1.1128  0.4037
15546TIP3    H268130   0.374   5.858   0.486  0.3099 -0.9645 -0.7911
15547TIP3   OH268131   4.614   6.106   1.732  0.2486  0.1934  0.1904
15547TIP3    H168132   4.619   6.171   1.661  0.8869  0.3107  0.3384
15547TIP3    H268133   4.643   6.154   1.810 -0.1130 -0.0316  0.4634
15548TIP3   OH268134   0.886   5.351  16.426  0.3035  0.4925  0.6499
15548TIP3    H168135   0.867   5.274  16.372 -1.3378  1.1456  0.2230
15548TIP3    H268136   0.887   5.317  16.516  0.3075 -0.1422  0.4152
15549TIP3   OH268137   2.825   6.563   7.026  1.1138 -0.7540  0.7727
15549TIP3    H168138   2.855   6.483   6.982  2.1664 -0.3133  0.6713
15549TIP3    H268139   2.860   6.635   6.973 -0.3276 -0.2110  0.5303
15550TIP3   OH268140   3.010   2.674   4.837  0.0733  0.3355 -0.0748
15550TIP3    H168141   3.053   2.716   4.762  2.4017  1.2393  1.6476
15550TIP3    H268142   3.027   2.581   4.825  2.6833  0.6612  0.5572
15551TIP3   OH268143   2.194   3.394   2.589 -0.0127 -0.1775  0.2876
15551TIP3    H168144   2.132   3.344   2.643  0.6107 -0.0591  1.1342
15551TIP3    H268145   2.268   3.335   2.577  1.3812  0.9930  2.5289
15552TIP3   OH268146   1.689   6.301   0.735  0.5964 -0.1260  0.5084
15552TIP3    H168147   1.702   6.240   0.807  1.9328 -0.1865  0.2439
15552TIP3    H268148   1.605   6.276   0.697  1.9298 -3.1161 -0.8100
15553TIP3   OH268149   3.665   2.517  16.031 -0.4205  1.3464 -0.0609
15553TIP3    H168150   3.749   2.496  15.992  0.4269 -0.1658  2.3416
15553TIP3    H268151   3.671   2.609  16.055  0.1847  1.4723 -0.6666
15554TIP3   OH268152   4.153   3.178   3.721 -0.2766  0.3278 -0.2978
15554TIP3    H168153   4.109   3.262   3.732  0.2253  0.6475 -0.7348
15554TIP3    H268154   4.158   3.164   3.627  0.9528  0.5078 -0.2702
15555TIP3   OH268155   2.770   1.523  15.850  0.0132 -0.0276  0.3995
15555TIP3    H168156   2.863   1.516  15.868  0.2319  0.8781 -0.3251
15555TIP3    H268157   2.749   1.443  15.801  0.8610  0.7138 -1.2350
15556TIP3   OH268158   5.312   2.715  13.579  0.1885 -0.0681  0.6032
15556TIP3    H168159   5.328   2.656  13.505  0.8942  1.4905 -0.5472
15556TIP3    H268160   5.298   2.657  13.653  1.2512 -1.6728 -0.3897
15557TIP3   OH268161   1.604   5.998  11.542  0.1769  0.1590 -0.5676
15557TIP3    H168162   1.668   6.062  11.575  0.0455  0.2273 -0.4424
15557TIP3    H268163   1.570   6.037  11.462  0.4518  0.0212 -0.7538
15558TIP3   OH268164   1.749   5.462   5.454 -0.5243 -0.0832  0.7154
15558TIP3    H168165   1.725   5.416   5.374  0.6460  0.1540  0.2109
15558TIP3    H268166   1.820   5.410   5.491  1.1733  1.5388 -0.1276
15559TIP3   OH268167   5.510   4.100   5.787 -0.0973  0.0353 -0.3700
15559TIP3    H168168   5.502   4.074   5.695  2.0579 -0.0993 -0.5701
15559TIP3    H268169   5.455   4.179   5.794  0.0573  0.3142 -1.8980
15560TIP3   OH268170   5.447   6.598   3.857 -0.5790  0.2739  0.1805
15560TIP3    H168171   5.410   6.657   3.791  0.8960 -0.4991 -1.4199
15560TIP3    H268172   5.384   6.600   3.929 -0.6796  3.6640  0.1660
15561TIP3   OH268173   1.326   6.821   0.372 -0.3406 -1.0833  0.0717
15561TIP3    H168174   1.325   6.896   0.432  3.3011 -2.4164  2.1802
15561TIP3    H268175   1.285   6.750   0.422 -2.2414 -0.9901 -1.2595
15562TIP3   OH268176   3.572   2.291  16.236 -0.3725 -0.1051  0.9104
15562TIP3    H168177   3.507   2.335  16.292 -0.3380  0.7952  0.2646
15562TIP3    H268178   3.554   2.324  16.148  0.2321 -0.7273  0.5452
15563TIP3   OH268179   1.015   4.201   2.632 -0.1840 -0.3080 -0.1596
15563TIP3    H168180   0.932   4.241   2.608  0.4487 -0.0020 -1.9224
15563TIP3    H268181   1.007   4.110   2.603  0.3306 -0.1088 -0.9547
15564TIP3   OH268182   1.495   3.890   1.145 -0.6023 -0.2252 -0.5420
15564TIP3    H168183   1.559   3.900   1.075 -0.2615  0.1405 -0.1825
15564TIP3    H268184   1.469   3.798   1.140  0.5604 -0.5984 -0.1704
15565TIP3   OH268185   1.064   6.438  16.698 -0.3465 -0.3215 -0.3338
15565TIP3    H168186   1.124   6.408  16.765 -0.8871 -1.6234 -0.4126
15565TIP3    H268187   1.118   6.488  16.637  0.4138 -0.4263  0.2511
15566TIP3   OH268188   2.469   2.472  12.966 -0.2783  0.2958  0.1723
15566TIP3    H168189   2.531   2.437  12.902  1.5905  0.5701  1.7622
15566TIP3    H268190   2.408   2.400  12.983  1.1274 -0.8709  0.4464
15567TIP3   OH268191   3.249   6.174  14.086 -0.0055 -0.1758 -0.4395
15567TIP3    H168192   3.193   6.135  14.018  0.7117 -0.6478 -0.7727
15567TIP3    H268193   3.266   6.102  14.147  1.0610 -0.3107 -0.8843
15568TIP3   OH268194   0.196   5.967  11.831  0.2176 -0.1010  0.4287
15568TIP3    H168195   0.171   6.050  11.872  1.8197 -0.0005  1.2451
15568TIP3    H268196   0.112   5.928  11.805 -0.5254  2.8024 -2.1727
15569TIP3   OH268197   4.606   4.872  16.998 -0.4221  0.3831 -0.0407
15569TIP3    H168198   4.583   4.922  17.076 -0.6468  1.0163 -0.5027
15569TIP3    H268199   4.658   4.932  16.945 -0.3290 -0.0147 -0.4060
15570TIP3   OH268200   2.291   2.901   3.726 -0.5074  0.0706  0.0194
15570TIP3    H168201   2.198   2.879   3.735 -0.3196 -1.0068 -0.4669
15570TIP3    H268202   2.300   2.930   3.635 -0.2613 -0.4441 -0.1264
15571TIP3   OH268203   2.625   4.437  12.632 -0.3292 -0.8242  0.2673
15571TIP3    H168204   2.710   4.459  12.671 -0.6323  3.5781 -1.0889
15571TIP3    H268205   2.648   4.397  12.548  0.3942 -0.6254  0.3564
15572TIP3   OH268206   3.101   6.233   3.703 -0.2164  0.0398 -0.3029
15572TIP3    H168207   3.044   6.310   3.711 -0.2407 -0.0727  0.8641
15572TIP3    H268208   3.184   6.267   3.672 -0.6421  0.3340 -1.1534
15573TIP3   OH268209   2.940   6.494  12.837 -0.0105 -0.2626 -0.1639
15573TIP3    H168210   2.923   6.431  12.766 -3.3091 -0.3375  0.5345
15573TIP3    H268211   3.013   6.456  12.885  0.3154 -1.7908 -1.7374
15574TIP3   OH268212   2.398   0.521  11.301  0.4305  0.7841  0.1909
15574TIP3    H168213   2.331   0.585  11.324  0.5840  0.4285  1.7293
15574TIP3    H268214   2.472   0.573  11.270 -0.7699  1.1493 -2.2204
15575TIP3   OH268215   2.588   5.220   2.676 -0.0539  0.5332 -0.2543
15575TIP3    H168216   2.567   5.312   2.692  0.0667  0.5860 -0.4022
15575TIP3    H268217   2.509   5.185   2.633 -0.4989  0.3145  0.7293
15576TIP3   OH268218   2.267   1.634  14.253  0.1500 -0.5738 -0.3318
15576TIP3    H168219   2.281   1.554  14.304 -0.2002  0.2035  1.0424
15576TIP3    H268220   2.210   1.688  14.308  2.2981  1.6342 -0.0841
15577TIP3   OH268221   4.319   0.739   1.257 -0.2020  0.3359  0.0255
15577TIP3    H168222   4.242   0.769   1.306  0.5562 -0.3105  1.7086
15577TIP3    H268223   4.384   0.807   1.273 -0.2245  0.5960 -0.9241
15578TIP3   OH268224   1.106   3.703   3.943 -0.3693  0.5940 -0.0968
15578TIP3    H168225   1.177   3.702   3.879 -1.5229  0.4716 -1.4090
15578TIP3    H268226   1.046   3.633   3.915 -2.7777  2.8987 -1.1385
15579TIP3   OH268227   2.467   1.483   1.828  0.4610  0.1843  0.2634
15579TIP3    H168228   2.497   1.411   1.771 -0.4097  0.8033 -1.0365
15579TIP3    H268229   2.383   1.452   1.862 -0.1032  0.7025 -0.6044
15580TIP3   OH268230   0.208   5.448  14.051 -0.0488 -0.2136 -0.2054
15580TIP3    H168231   0.221   5.540  14.073 -0.7392  0.1467 -1.2049
15580TIP3    H268232   0.191   5.405  14.135  2.5252  0.1223  0.5723
15581TIP3   OH268233   0.572   3.835  16.754 -0.1114 -0.5409  0.5596
15581TIP3    H168234   0.612   3.922  16.758 -0.2051 -0.4612 -0.1453
15581TIP3    H268235   0.646   3.776  16.742 -0.2380 -0.2754 -2.2433
15582TIP3   OH268236   3.786   0.271  16.228  0.4862  0.2443 -0.0970
15582TIP3    H168237   3.879   0.283  16.209  0.1593  2.4992 -0.6410
15582TIP3    H268238   3.742   0.331  16.167 -1.1386  1.4021  2.0744
15583TIP3   OH268239   3.316   6.559   4.885  0.1587 -0.6948  0.1642
15583TIP3    H168240   3.227   6.524   4.881  1.0367 -3.0509 -0.1459
15583TIP3    H268241   3.318   6.611   4.965 -1.1210 -1.7688  0.9336
15584TIP3   OH268242   6.547   5.687  14.153 -0.7220  0.5738  0.1444
15584TIP3    H168243   6.474   5.740  14.123 -0.8761  0.4302  0.2659
15584TIP3    H268244   6.625   5.737  14.127 -0.8636  0.8085  0.1688
15585TIP3   OH268245   1.496   5.771  14.560 -0.1203  0.1911  0.1400
15585TIP3    H168246   1.506   5.846  14.501  0.1638 -0.1032 -0.1982
15585TIP3    H268247   1.406   5.776  14.591  0.2867  1.4601  1.2238
15586TIP3   OH268248   0.561   2.692   5.130  0.2854  0.1207  0.0637
15586TIP3    H168249   0.484   2.660   5.083  0.7609 -0.8624 -0.0662
15586TIP3    H268250   0.555   2.650   5.216 -0.3323  1.5460  0.7447
15587TIP3   OH268251   1.493   6.515   5.718 -0.3829 -0.7044  0.1279
15587TIP3    H168252   1.431   6.562   5.662 -0.9877 -1.9051 -0.2468
15587TIP3    H268253   1.563   6.487   5.659 -0.0157 -0.2656  0.3523
15588TIP3   OH268254   5.042   3.971  12.427  0.4745  0.6527 -0.4884
15588TIP3    H168255   5.118   4.006  12.380  0.0774 -0.0083 -1.6646
15588TIP3    H268256   4.968   3.992  12.371 -0.0567  0.0961 -0.0038
15589TIP3   OH268257   0.274   4.216  14.129 -0.0328  0.4809  0.3483
15589TIP3    H168258   0.311   4.278  14.067 -1.3616  1.7707  0.8068
15589TIP3    H268259   0.184   4.246  14.144 -0.5410 -1.2336  1.0053
15590TIP3   OH268260   0.865   5.691   5.270 -0.2154  0.2657  0.1970
15590TIP3    H168261   0.802   5.758   5.246 -1.4786 -0.5614  1.0729
15590TIP3    H268262   0.850   5.620   5.208 -2.0488 -1.0170  1.9664
15591TIP3   OH268263   2.911   2.552  12.656 -0.0441  0.1793  0.3595
15591TIP3    H168264   2.958   2.547  12.739 -2.1644 -1.3989  1.5799
15591TIP3    H268265   2.882   2.643  12.651  0.7445  0.4808  0.9650
15592TIP3   OH268266   3.411   2.005   5.646  0.1703  0.5358  0.2758
15592TIP3    H168267   3.323   2.009   5.608  0.8980  1.2265 -1.4466
15592TIP3    H268268   3.400   1.954   5.726 -1.7347  0.3210 -0.0707
15593TIP3   OH268269   2.709   1.123   6.528 -0.1724  0.5355 -0.0369
15593TIP3    H168270   2.666   1.205   6.551 -0.7426  0.2056  0.1082
15593TIP3    H268271   2.654   1.086   6.459 -0.8524 -0.5014  1.0231
15594TIP3   OH268272   0.290   0.515  11.294  0.0019  0.0286 -0.0661
15594TIP3    H168273   0.261   0.514  11.385 -0.5889  0.1213 -0.2443
15594TIP3    H268274   0.252   0.596  11.257  1.0769  0.5243 -0.1368
15595TIP3   OH268275   2.195   0.573  16.696 -0.3732  0.2569 -0.0298
15595TIP3    H168276   2.126   0.620  16.650 -0.8381 -0.8233 -0.4891
15595TIP3    H268277   2.160   0.555  16.783  0.3102  1.8578  0.6085
15596TIP3   OH268278   5.810   5.024  10.897  0.0171  0.2405  0.2894
15596TIP3    H168279   5.904   5.022  10.877  0.0968 -1.5902  0.6435
15596TIP3    H268280   5.778   4.938  10.869 -1.2162  0.2125  1.6450
15597TIP3   OH268281   6.152   6.201   2.585 -0.1854  0.6977 -0.4732
15597TIP3    H168282   6.210   6.151   2.527 -1.0601 -0.6553 -0.2301
15597TIP3    H268283   6.119   6.272   2.530  0.7065  0.7292 -0.9837
15598TIP3   OH268284   6.607   1.131  13.508  0.2556  0.5750  0.2041
15598TIP3    H168285   6.637   1.222  13.502  0.6355  0.5400  1.3837
15598TIP3    H268286   6.687   1.080  13.520 -0.0603  0.2237  0.8663
15599TIP3   OH268287   0.518   0.103   2.470 -0.5927 -0.0190  0.0304
15599TIP3    H168288   0.511   0.144   2.384 -1.8183 -0.5011 -0.1170
15599TIP3    H268289   0.527   0.176   2.531 -0.9528  0.3877 -0.3986
15600TIP3   OH268290   4.245   5.269  10.569  0.5762 -0.2169 -0.5337
15600TIP3    H168291   4.272   5.197  10.626  0.9685  0.2716 -0.0933
15600TIP3    H268292   4.324   5.321  10.557  0.3127  0.1012 -0.9041
15601TIP3   OH268293   0.106   2.126  13.882  0.1429  0.5250  0.4017
15601TIP3    H168294   0.033   2.066  13.890 -0.4182  1.3294  1.5320
15601TIP3    H268295   0.141   2.109  13.794 -2.1837  1.0086 -0.7058
15602TIP3   OH268296   1.809   1.894  13.167 -0.0086  0.5672  0.1447
15602TIP3    H168297   1.759   1.817  13.138  1.3529 -0.4226  0.3546
15602TIP3    H268298   1.874   1.859  13.227  0.6178  1.8991  0.2699
15603TIP3   OH268299   6.614   5.865  16.216  0.5892 -0.3284 -0.8417
15603TIP3    H168300   6.639   5.866  16.123  1.1752 -2.5902 -0.7564
15603TIP3    H268301   6.686   5.820  16.260 -1.4967 -3.0725  0.0748
15604TIP3   OH268302   3.409   3.376   4.985  0.2785  0.2239  0.8809
15604TIP3    H168303   3.415   3.347   5.076  0.5831 -3.3095 -0.1112
15604TIP3    H268304   3.499   3.373   4.952  0.1893  1.5520  0.4430
15605TIP3   OH268305   1.479   4.384  16.740  0.4629 -0.0614 -0.3818
15605TIP3    H168306   1.428   4.318  16.787  1.5087  0.1146  1.0699
15605TIP3    H268307   1.569   4.351  16.745  0.8724  1.0207 -0.4445
15606TIP3   OH268308   1.531   5.201   1.355 -0.3557  0.4187 -0.0352
15606TIP3    H168309   1.486   5.129   1.400 -0.5453  0.8627  0.5019
15606TIP3    H268310   1.467   5.230   1.289 -0.2103 -0.0115 -0.3734
15607TIP3   OH268311   5.724   4.138   0.967  0.2699 -0.2561 -0.4861
15607TIP3    H168312   5.737   4.203   0.899 -1.1467  3.2799  2.2781
15607TIP3    H268313   5.631   4.115   0.961 -0.0197  0.5637  0.5548
15608TIP3   OH268314   2.863   3.541  11.871 -0.2063  0.1674  0.3475
15608TIP3    H168315   2.907   3.489  11.803 -0.8908 -1.1455  0.8570
15608TIP3    H268316   2.918   3.529  11.949 -0.5239 -0.0342  0.5404
15609TIP3   OH268317   3.642   3.423  12.828  0.2402  0.2708  0.2443
15609TIP3    H168318   3.735   3.405  12.811  0.0087 -0.8760  0.0689
15609TIP3    H268319   3.613   3.471  12.750  0.2913 -0.9071 -0.5360
15610TIP3   OH268320   3.239   6.570  12.532 -0.0533 -0.3187  0.0729
15610TIP3    H168321   3.271   6.489  12.573 -1.8930 -0.7811  0.6978
15610TIP3    H268322   3.204   6.621  12.605  1.6293  1.3609 -0.2347
15611TIP3   OH268323   4.930   6.006   1.523  0.5262  0.3442 -0.2931
15611TIP3    H168324   4.912   6.011   1.617  1.3301  0.0105 -0.1201
15611TIP3    H268325   4.972   5.921   1.510 -0.4632 -0.0387 -1.1141
15612TIP3   OH268326   6.450   3.977   0.442 -0.0272 -0.6337  0.5121
15612TIP3    H168327   6.441   3.949   0.533  0.8870 -1.1260  0.4698
15612TIP3    H268328   6.473   3.896   0.395  0.0306 -0.2866 -0.0593
15613TIP3   OH268329   1.455   0.755  16.073 -0.1799 -0.5299 -1.2668
15613TIP3    H168330   1.417   0.840  16.050 -2.2294 -0.9342  0.2793
15613TIP3    H268331   1.544   0.775  16.102 -0.6882  1.1232 -0.7497
15614TIP3   OH268332   1.280   5.446  13.896  0.4724 -0.6099  0.3989
15614TIP3    H168333   1.328   5.489  13.826  0.0024 -0.1736  0.3376
15614TIP3    H268334   1.189   5.475  13.884  0.6707  1.0336  2.3391
15615TIP3   OH268335   1.207   2.323   5.502 -0.5841  0.0270  0.0682
15615TIP3    H168336   1.227   2.415   5.515 -0.7973  0.5485 -2.6061
15615TIP3    H268337   1.118   2.312   5.535 -0.3629  0.6320  0.8912
15616TIP3   OH268338   1.197   1.937  11.953 -0.1614 -1.3366 -0.5320
15616TIP3    H168339   1.103   1.931  11.942  0.0303 -2.0283 -2.0519
15616TIP3    H268340   1.211   1.935  12.048 -1.7987  1.3765 -0.1263
15617TIP3   OH268341   6.646   0.372   1.242  0.3073 -0.6374 -0.1698
15617TIP3    H168342   6.583   0.344   1.308  1.5551  1.3884  2.0507
15617TIP3    H268343   6.729   0.334   1.269  0.4567 -1.7614 -2.0177
15618TIP3   OH268344   6.825   6.554  15.600 -0.1513 -0.0498 -0.3360
15618TIP3    H168345   6.865   6.486  15.654 -0.3786 -1.2030 -1.5457
15618TIP3    H268346   6.731   6.536  15.606 -0.2586  0.5999 -0.0982
15619TIP3   OH268347   5.254   1.207   0.353  0.4135  0.2662  0.3554
15619TIP3    H168348   5.264   1.134   0.415 -0.4887  0.5008  0.7948
15619TIP3    H268349   5.214   1.168   0.276 -0.3965  0.3441  0.7240
15620TIP3   OH268350   0.385   1.800   0.138  0.3512 -0.1650 -0.0496
15620TIP3    H168351   0.384   1.850   0.220 -0.0256 -0.3013  0.0297
15620TIP3    H268352   0.338   1.856   0.076 -0.2875 -0.5298  0.1040
15621TIP3   OH268353   2.178   5.255  14.793  0.1325  0.1624 -0.3836
15621TIP3    H168354   2.127   5.231  14.715  1.4780 -0.6030 -1.0670
15621TIP3    H268355   2.140   5.338  14.821 -3.0774 -1.5135  0.6234
15622TIP3   OH268356   1.214   4.021  13.960 -0.0520 -0.0916  0.6450
15622TIP3    H168357   1.227   3.964  14.036 -0.1566  0.0553  0.7748
15622TIP3    H268358   1.239   3.967  13.885  1.7299  0.3016  0.9006
15623TIP3   OH268359   0.922   5.176  15.445 -0.2008  0.6580  0.0076
15623TIP3    H168360   0.889   5.120  15.516 -2.0858 -0.3817 -1.6052
15623TIP3    H268361   1.002   5.132  15.415 -0.7537 -0.2728 -0.1319
15624TIP3   OH268362   1.666   2.454  13.810  0.1441  0.4454 -0.0554
15624TIP3    H168363   1.703   2.532  13.769  2.5662 -1.0954 -1.0523
15624TIP3    H268364   1.729   2.430  13.877 -0.5224 -0.6892  0.1923
15625TIP3   OH268365   4.517   2.327  16.896  0.2951 -0.6214  0.0510
15625TIP3    H168366   4.497   2.294  16.984  1.9100 -0.2157  0.5999
15625TIP3    H268367   4.590   2.273  16.865 -0.2648 -0.7707 -1.0653
15626TIP3   OH268368   6.473   1.501  14.265  0.3635 -0.1986  0.1276
15626TIP3    H168369   6.566   1.518  14.282  0.5030 -1.8605  1.4127
15626TIP3    H268370   6.460   1.411  14.297 -2.0179  0.5106  1.3819
15627TIP3   OH268371   6.327   5.329  15.598  0.1336  0.0548  0.3549
15627TIP3    H168372   6.312   5.391  15.526  1.2008  0.2705  0.2933
15627TIP3    H268373   6.304   5.244  15.561  1.0960  0.1049 -0.4147
15628TIP3   OH268374   2.139   5.971  12.176 -0.6133  0.1844 -0.4922
15628TIP3    H168375   2.228   5.972  12.142  0.1555  1.5256  1.3836
15628TIP3    H268376   2.089   5.922  12.111  1.8552 -2.4154 -0.6154
15629TIP3   OH268377   3.845   6.004   2.880 -0.0133  0.0475 -0.3539
15629TIP3    H168378   3.938   5.996   2.860  0.4091  0.4140  1.2597
15629TIP3    H268379   3.822   5.918   2.918  0.1974  0.5864  1.0689
15630TIP3   OH268380   1.402   5.413   2.829  0.3801  0.0085  0.4990
15630TIP3    H168381   1.373   5.346   2.890 -0.2970 -0.0364  0.1338
15630TIP3    H268382   1.421   5.489   2.884  0.6917 -0.3281  0.8631
15631TIP3   OH268383   5.983   5.866  15.239 -0.3766  0.3330  1.0815
15631TIP3    H168384   6.035   5.946  15.232 -3.4294  2.3439 -1.6989
15631TIP3    H268385   6.033   5.800  15.189  0.5030  1.5375  0.3189
15632TIP3   OH268386   1.264   4.358  15.595 -0.6262 -0.0352 -0.1083
15632TIP3    H168387   1.250   4.279  15.648 -1.0146 -0.4959 -0.8761
15632TIP3    H268388   1.215   4.426  15.640  0.4923  0.0116  1.0972
15633TIP3   OH268389   1.945   5.029   3.317  0.2000  0.3974 -0.3685
15633TIP3    H168390   1.891   4.951   3.330 -0.1695  0.8641  1.0336
15633TIP3    H268391   2.033   5.002   3.344  0.1789  0.3151 -0.3814
15634TIP3   OH268392   6.376   6.357   1.031 -0.4135 -0.0926  0.0880
15634TIP3    H168393   6.354   6.299   1.105 -1.3638 -1.1054 -0.9440
15634TIP3    H268394   6.317   6.330   0.961 -0.3069  1.6084 -0.7074
15635TIP3   OH268395   1.757   4.257   4.313 -0.2116 -0.7281 -0.1043
15635TIP3    H168396   1.848   4.244   4.341  0.4690  0.9609 -1.3614
15635TIP3    H268397   1.749   4.207   4.232  0.2228  0.6748 -1.0436
15636TIP3   OH268398   3.623   5.980  16.152  0.1394 -0.6451 -0.2890
15636TIP3    H168399   3.645   5.974  16.245  0.4177 -0.5375 -0.3456
15636TIP3    H268400   3.708   5.973  16.107 -0.0737 -1.5153 -0.5703
15637TIP3   OH268401   0.864   1.255   2.271  0.1379  0.0113  0.0812
15637TIP3    H168402   0.874   1.245   2.366 -0.3359  0.3800  0.1729
15637TIP3    H268403   0.801   1.188   2.246  0.0996  0.0552  0.0595
15638TIP3   OH268404   1.576   1.711   0.872  0.0203  0.0325 -0.1355
15638TIP3    H168405   1.609   1.639   0.925  1.0443  0.1565 -0.5797
15638TIP3    H268406   1.497   1.676   0.830  0.7473 -1.0001 -0.7011
15639TIP3   OH268407   0.275   1.040   4.260 -0.1971 -0.0322 -0.6112
15639TIP3    H168408   0.322   0.975   4.208 -0.2962 -0.3133 -0.3505
15639TIP3    H268409   0.339   1.070   4.324  0.2147  0.9949 -1.4709
15640TIP3   OH268410   5.811   2.384  12.828  0.2682  0.0283 -0.0803
15640TIP3    H168411   5.841   2.297  12.853 -0.0457 -0.4091 -1.1640
15640TIP3    H268412   5.722   2.389  12.861  0.7817  0.5391  1.3149
15641TIP3   OH268413   6.292   1.410   0.880 -0.0824  0.6364 -0.0364
15641TIP3    H168414   6.264   1.501   0.887 -1.2510  0.3028 -0.1151
15641TIP3    H268415   6.211   1.361   0.864  0.1178 -0.7004  2.4290
15642TIP3   OH268416   3.054   5.888   3.079  0.1497 -0.3903  0.1205
15642TIP3    H168417   3.094   5.807   3.049  0.6348 -0.4727  0.9837
15642TIP3    H268418   2.994   5.862   3.148 -0.9148 -0.1878 -0.6945
15643TIP3   OH268419   2.106   3.154  15.286  0.2721  0.0227  0.2630
15643TIP3    H168420   2.171   3.221  15.308  0.6291  0.2514 -1.3625
15643TIP3    H268421   2.077   3.177  15.197 -0.5230 -1.2541  0.1727
15644TIP3   OH268422   2.648   3.648   6.164 -0.5248  0.1993 -0.2409
15644TIP3    H168423   2.662   3.689   6.249  1.2722 -0.3339 -0.2318
15644TIP3    H268424   2.635   3.555   6.183  0.3283  0.0047 -0.5579
15645TIP3   OH268425   2.649   2.827  15.404  0.1599 -0.7245 -0.7931
15645TIP3    H168426   2.687   2.893  15.463  0.6648 -1.4676 -0.2701
15645TIP3    H268427   2.556   2.827  15.425  0.4689 -1.7039  0.7729
15646TIP3   OH268428   4.572   0.151  12.171  0.1547 -0.6371 -0.7471
15646TIP3    H168429   4.663   0.123  12.171  0.9714  1.8170 -1.6341
15646TIP3    H268430   4.522   0.069  12.166  2.2538 -2.0645  0.2267
15647TIP3   OH268431   6.814   2.737  10.551 -0.5226  0.0127  0.4323
15647TIP3    H168432   6.758   2.789  10.493 -3.3877 -1.6161  1.5196
15647TIP3    H268433   6.878   2.696  10.492 -1.3898  0.8077 -1.1321
15648TIP3   OH268434   5.895   0.577   6.615 -0.3003 -0.2167 -0.3666
15648TIP3    H168435   5.937   0.497   6.584 -0.2590 -0.3708  0.0848
15648TIP3    H268436   5.814   0.582   6.565 -0.8281 -1.1152  0.3816
15649TIP3   OH268437   2.856   5.531  12.369  0.6776 -0.1039 -0.3272
15649TIP3    H168438   2.843   5.594  12.298  0.7499  1.0463  0.6417
15649TIP3    H268439   2.913   5.576  12.431  0.0043 -0.7731  0.8186
15650TIP3   OH268440   1.538   1.840   4.267 -0.6437  0.1163  0.4112
15650TIP3    H168441   1.511   1.755   4.302  0.3936  0.0656  1.1432
15650TIP3    H268442   1.477   1.903   4.305 -1.7882 -0.3436 -0.5958
15651TIP3   OH268443   1.286   3.767   4.879  0.2530  0.0024  0.4112
15651TIP3    H168444   1.274   3.813   4.797  0.9372  0.6096  0.6511
15651TIP3    H268445   1.315   3.834   4.941 -1.8438 -0.0816  1.5881
15652TIP3   OH268446   1.411   2.517   6.560  0.5512  0.0762 -0.7242
15652TIP3    H168447   1.446   2.494   6.474  2.1298  2.1556 -0.7044
15652TIP3    H268448   1.478   2.490   6.622 -1.5734 -3.6601  0.2465
15653TIP3   OH268449   1.628   1.236   6.151 -0.2320 -0.3033 -0.3114
15653TIP3    H168450   1.638   1.323   6.113 -0.6653  0.2444  0.7623
15653TIP3    H268451   1.692   1.233   6.222 -1.2909 -0.2229  0.6932
15654TIP3   OH268452   1.679   4.471   4.010  0.1783 -0.1646  1.0560
15654TIP3    H168453   1.587   4.458   3.987 -0.1478  1.3642  1.3612
15654TIP3    H268454   1.717   4.383   4.009 -1.6813 -1.0699  2.6316
15655TIP3   OH268455   1.064   4.443   3.126  0.3532 -0.3303 -0.0828
15655TIP3    H168456   1.057   4.437   3.031  1.0360  0.4855 -0.2014
15655TIP3    H268457   1.008   4.518   3.149 -2.5304 -2.5118  0.5700
15656TIP3   OH268458   2.520   5.645  13.150  0.6482 -0.0859  0.1593
15656TIP3    H168459   2.542   5.626  13.059  1.9550 -2.3149  0.8514
15656TIP3    H268460   2.582   5.714  13.176  0.0871  0.7574 -0.6827
15657TIP3   OH268461   6.156   4.181  13.175  0.3698  0.0268  0.4229
15657TIP3    H168462   6.223   4.122  13.140  0.0581 -0.0931  0.0237
15657TIP3    H268463   6.119   4.134  13.250 -1.7274 -1.4858 -1.4518
15658TIP3   OH268464   3.484   2.784  14.509 -0.1516 -0.0172 -0.0252
15658TIP3    H168465   3.417   2.737  14.459  0.8341  0.7975 -2.2130
15658TIP3    H268466   3.536   2.715  14.549  0.8999 -0.8944 -2.6858
15659TIP3   OH268467   3.663   2.296   2.498 -0.5732  0.3564 -0.4670
15659TIP3    H168468   3.595   2.236   2.529 -0.0896 -0.0534 -0.1927
15659TIP3    H268469   3.744   2.246   2.504 -0.5130  0.0653 -2.9158
15660TIP3   OH268470   2.734   1.043   0.435 -0.2957 -0.4200 -0.2879
15660TIP3    H168471   2.729   0.990   0.515 -0.9676 -1.8326 -1.2191
15660TIP3    H268472   2.657   1.017   0.384  0.7110 -0.4166 -1.8950
15661TIP3   OH268473   0.281   4.290  15.372  0.1830  0.3563  0.1125
15661TIP3    H168474   0.358   4.265  15.321 -0.1883 -1.0941  0.2183
15661TIP3    H268475   0.306   4.275  15.463  0.2367  1.2248  0.2482
15662TIP3   OH268476   0.644   1.531   3.875 -0.2639 -0.3651  0.0224
15662TIP3    H168477   0.557   1.493   3.882 -1.5652  2.3447 -0.1795
15662TIP3    H268478   0.633   1.605   3.815  2.0305  0.4400  0.4997
15663TIP3   OH268479   6.823   6.293   1.676 -0.3892 -0.1684  0.2717
15663TIP3    H168480   6.797   6.228   1.741  2.1078 -0.7098  0.8202
15663TIP3    H268481   6.758   6.285   1.607 -0.7707 -2.4930  0.8137
15664TIP3   OH268482   4.531   4.306   1.698 -0.4965  0.4157 -0.2426
15664TIP3    H168483   4.589   4.235   1.668 -1.8042 -1.1180  0.6977
15664TIP3    H268484   4.457   4.303   1.637 -1.5169 -0.4165  0.9966
15665TIP3   OH268485   2.934   3.392  14.925 -0.2187  0.5028 -0.5207
15665TIP3    H168486   2.916   3.420  14.835  1.2157  1.4896 -0.5188
15665TIP3    H268487   2.903   3.301  14.928 -0.4129  0.5025 -1.9685
15666TIP3   OH268488   0.766   6.115   2.100 -0.0538 -0.1922  0.0833
15666TIP3    H168489   0.792   6.024   2.088 -0.6590 -0.3633  0.0421
15666TIP3    H268490   0.737   6.120   2.191 -0.0104 -0.0352  0.0900
15667TIP3   OH268491   6.578   5.478   4.614 -0.1374  0.0530 -0.3649
15667TIP3    H168492   6.522   5.501   4.688 -1.3496  0.9848 -1.5160
15667TIP3    H268493   6.666   5.469   4.652 -0.7127  0.5392  1.1622
15668TIP3   OH268494   6.048   5.721   2.774  0.3036 -0.0789 -0.8375
15668TIP3    H168495   5.991   5.726   2.850  0.8193  0.3448 -0.4720
15668TIP3    H268496   6.124   5.672   2.803 -0.2289 -1.3868 -1.5648
15669TIP3   OH268497   2.572   2.087  11.422  0.9234  0.8539  0.2956
15669TIP3    H168498   2.658   2.128  11.431  1.4620 -0.0284 -0.6035
15669TIP3    H268499   2.564   2.069  11.328  0.1048  0.1977  0.4806
15670TIP3   OH268500   4.501   5.104  13.748 -0.0780 -0.0225  0.3661
15670TIP3    H168501   4.589   5.080  13.775 -0.0277  0.6586  0.8450
15670TIP3    H268502   4.446   5.082  13.823 -0.4766 -1.3597 -0.2969
15671TIP3   OH268503   4.302   4.131   0.892 -0.2611  0.0299 -0.3773
15671TIP3    H168504   4.272   4.196   0.828 -0.1589  0.5183  0.0659
15671TIP3    H268505   4.398   4.139   0.890 -0.1891 -0.8428 -1.0774
15672TIP3   OH268506   4.856   5.357   0.279  0.4722 -0.1921  0.5474
15672TIP3    H168507   4.815   5.366   0.365  1.6320 -0.1175  1.1148
15672TIP3    H268508   4.906   5.276   0.285  1.5864  0.4640  0.3906
15673TIP3   OH268509   4.156   2.747   4.264  0.0349 -0.3056  0.3374
15673TIP3    H168510   4.180   2.686   4.333  0.5982  0.0513  0.4570
15673TIP3    H268511   4.159   2.695   4.184 -0.6140 -0.7184  0.5714
15674TIP3   OH268512   1.517   4.975   3.071  0.7433  0.4742  0.1841
15674TIP3    H168513   1.557   4.900   3.114  1.0400 -0.2963 -1.3715
15674TIP3    H268514   1.567   5.050   3.102 -1.7147  0.6467  4.5457
15675TIP3   OH268515   0.273   6.751   1.649 -0.2732  0.1602  0.5026
15675TIP3    H168516   0.210   6.679   1.656 -1.5137  1.2095  0.5131
15675TIP3    H268517   0.234   6.821   1.701  0.2237  1.3178 -0.6451
15676TIP3   OH268518   0.537   5.204   6.349  0.0977  0.1614  0.8285
15676TIP3    H168519   0.589   5.141   6.299  0.1349  0.6708  0.2190
15676TIP3    H268520   0.452   5.161   6.360  0.1306 -0.0054  0.4402
15677TIP3   OH268521   1.587   6.609  14.454  0.5816  0.2925  0.3836
15677TIP3    H168522   1.581   6.671  14.382  1.1139  1.2270  1.1212
15677TIP3    H268523   1.678   6.613  14.482  0.6077 -0.7707  0.5013
15678TIP3   OH268524   0.268   5.700  13.119  0.0412 -0.3135 -0.1527
15678TIP3    H168525   0.223   5.748  13.188  3.0890  0.3921  1.5629
15678TIP3    H268526   0.237   5.609  13.129 -3.0750  0.5268 -1.0778
15679TIP3   OH268527   2.648   0.811   5.448 -0.0621 -0.6817 -0.3549
15679TIP3    H168528   2.611   0.874   5.386 -0.4444 -1.5596 -1.0434
15679TIP3    H268529   2.573   0.771   5.490  0.1967  1.0174  1.8976
15680TIP3   OH268530   0.452   0.673  14.946  0.0664  0.5838 -0.1419
15680TIP3    H168531   0.536   0.650  14.986  0.1861 -1.5587 -1.4762
15680TIP3    H268532   0.407   0.590  14.935 -0.5329  1.1768 -3.1279
15681TIP3   OH268533   1.918   5.149   3.048  0.0105  0.1366 -0.6067
15681TIP3    H168534   1.914   5.108   3.134  0.0080  0.3310 -0.5132
15681TIP3    H268535   1.836   5.198   3.040 -0.6641 -1.0620 -1.3277
15682TIP3   OH268536   4.954   5.489   3.532  0.1094  0.4005  0.0372
15682TIP3    H168537   5.016   5.541   3.482  0.3518 -0.2188 -0.3213
15682TIP3    H268538   4.998   5.473   3.616  0.5118 -0.1598 -0.2689
15683TIP3   OH268539   2.534   5.919   4.444 -0.1168 -0.5109  0.3774
15683TIP3    H168540   2.444   5.920   4.474 -0.2557  1.3264  0.0206
15683TIP3    H268541   2.548   6.006   4.407  1.0866 -1.5182 -1.7211
15684TIP3   OH268542   4.934   2.353  11.327 -0.2413  0.1426  0.3578
15684TIP3    H168543   4.906   2.443  11.309  1.5606  0.4636 -1.0984
15684TIP3    H268544   4.885   2.300  11.264  2.1551  0.6952 -2.1403
15685TIP3   OH268545   3.863   5.729   4.817 -0.4760 -0.0850  0.0348
15685TIP3    H168546   3.857   5.815   4.774  2.2998 -0.2319 -0.8789
15685TIP3    H268547   3.816   5.740   4.899 -0.8390  2.0900 -0.3902
15686TIP3   OH268548   2.056   6.066   1.666  0.0487  0.1553  0.8915
15686TIP3    H168549   2.128   6.127   1.683  0.9383 -1.3338  2.9134
15686TIP3    H268550   1.978   6.120   1.669  0.9812  1.6093 -0.0226
15687TIP3   OH268551   1.543   1.415   2.027  0.2177  0.1069  0.5654
15687TIP3    H168552   1.599   1.416   1.950 -1.5713  0.6741 -0.7954
15687TIP3    H268553   1.576   1.343   2.080  1.0329 -0.7844 -1.0923
15688TIP3   OH268554   6.382   0.768  12.689 -0.2236 -0.2010 -0.1075
15688TIP3    H168555   6.319   0.841  12.696 -1.4749 -1.2228 -0.3496
15688TIP3    H268556   6.387   0.751  12.595 -0.8013 -1.1443  0.0259
15689TIP3   OH268557   3.697   6.799   3.772 -0.6830  0.3070  0.0826
15689TIP3    H168558   3.727   6.886   3.798 -0.5722  0.4622 -0.5589
15689TIP3    H268559   3.708   6.746   3.851 -0.5214  0.8103  0.4083
15690TIP3   OH268560   0.281   0.683   1.052 -0.1325  0.6967  0.3758
15690TIP3    H168561   0.319   0.650   0.971 -0.0256  0.5955  0.4679
15690TIP3    H268562   0.350   0.673   1.117  0.3374  2.2525  0.1482
15691TIP3   OH268563   2.590   4.713  12.761  0.0190  0.1912 -0.1544
15691TIP3    H168564   2.534   4.637  12.779 -0.6065 -0.0807 -2.8186
15691TIP3    H268565   2.670   4.696  12.811 -0.4021 -1.8467 -0.0722
15692TIP3   OH268566   3.283   1.182   3.914 -0.5745  0.5613 -0.0643
15692TIP3    H168567   3.341   1.146   3.980 -1.8012  1.3255  1.4969
15692TIP3    H268568   3.316   1.271   3.900 -1.2681  0.9600  0.7474
15693TIP3   OH268569   6.164   2.703   0.395  0.2975  0.6933  0.2093
15693TIP3    H168570   6.106   2.778   0.406  1.4944  1.5402  0.9728
15693TIP3    H268571   6.139   2.643   0.465  1.4967  1.8535  1.6971
15694TIP3   OH268572   1.796   3.713   2.819 -0.4506 -0.2310  0.3291
15694TIP3    H168573   1.701   3.727   2.819 -0.4432 -0.1596 -0.2048
15694TIP3    H268574   1.832   3.798   2.794 -0.1759  0.1268  1.8156
15695TIP3   OH268575   2.770   0.992  13.700  0.6521 -0.4809 -0.2227
15695TIP3    H168576   2.816   0.917  13.663  0.2879 -0.9807  0.3274
15695TIP3    H268577   2.689   0.998  13.649  1.1599  0.2199 -0.9939
15696TIP3   OH268578   5.899   4.101   0.236 -0.2211 -0.3329  0.4412
15696TIP3    H168579   5.805   4.086   0.249 -0.3906 -0.1200 -0.4495
15696TIP3    H268580   5.938   4.082   0.321 -0.6309 -4.0396 -0.0084
15697TIP3   OH268581   1.463   6.385  15.257 -0.1594  0.5161 -0.2077
15697TIP3    H168582   1.394   6.428  15.307 -0.2973  0.3355 -0.2424
15697TIP3    H268583   1.490   6.311  15.312  0.2908  0.8263 -0.0075
15698TIP3   OH268584   0.907   1.880  11.502  0.6899  0.0494 -0.0373
15698TIP3    H168585   0.870   1.942  11.566 -2.0433 -4.0321  2.8551
15698TIP3    H268586   0.989   1.851  11.541 -0.2667 -1.3526  1.0559
15699TIP3   OH268587   1.325   4.852  17.095 -0.4547 -0.2904  0.0302
15699TIP3    H168588   1.414   4.842  17.060 -0.1672  1.6189  0.0963
15699TIP3    H268589   1.325   4.800  17.175  1.7507  2.3053  1.9009
15700TIP3   OH268590   0.229   4.373  16.862  0.1139  0.0047  0.0334
15700TIP3    H168591   0.184   4.321  16.795  0.0547  0.2689 -0.1316
15700TIP3    H268592   0.248   4.456  16.819 -3.4154  1.7657  1.4798
15701TIP3   OH268593   3.859   3.059  13.806 -0.0386 -0.5722  0.6402
15701TIP3    H168594   3.785   3.103  13.850  0.0799  0.5379 -0.2237
15701TIP3    H268595   3.894   3.126  13.747  0.6269 -1.6240 -0.1713
15702TIP3   OH268596   1.936   2.153   0.968 -0.0103 -0.4532 -1.1285
15702TIP3    H168597   1.943   2.066   1.009  0.4929 -0.4606 -1.2276
15702TIP3    H268598   1.879   2.202   1.027  0.9269 -0.3716 -0.2575
15703TIP3   OH268599   3.968   2.587   0.238  0.2503  0.5436 -0.1119
15703TIP3    H168600   3.974   2.494   0.216  0.2440  0.8559 -1.5235
15703TIP3    H268601   3.945   2.630   0.156  1.8328  1.9773  0.1355
15704TIP3   OH268602   1.209   6.445   2.791  0.0953 -0.3921  0.0574
15704TIP3    H168603   1.206   6.498   2.871  0.2273 -1.8368  1.0459
15704TIP3    H268604   1.167   6.363   2.815  0.7128 -1.0924 -1.1847
15705TIP3   OH268605   0.023   6.350  11.700  0.0644  0.1713 -0.0294
15705TIP3    H168606   0.118   6.358  11.707  0.1354 -1.1118  0.9908
15705TIP3    H268607   0.008   6.258  11.674 -0.9300 -0.3249  2.0810
15706TIP3   OH268608   2.970   6.335   6.933  0.0049  0.2764  0.1660
15706TIP3    H168609   3.047   6.301   6.979 -0.1522  0.5762  0.6676
15706TIP3    H268610   2.995   6.335   6.841 -0.2896 -1.9820  0.0327
15707TIP3   OH268611   1.452   3.349   0.556  0.4717  0.3402 -0.3774
15707TIP3    H168612   1.503   3.278   0.596  0.0043  0.2245  0.0319
15707TIP3    H268613   1.423   3.313   0.472  0.3939  0.1095 -0.2544
15708TIP3   OH268614   3.037   6.485   5.829  0.2877 -0.0125 -0.6674
15708TIP3    H168615   3.122   6.520   5.855 -0.2092  1.2087 -0.6387
15708TIP3    H268616   2.991   6.559   5.790 -0.6555 -0.7316 -0.9656
15709TIP3   OH268617   3.676   6.054   1.558  0.5701  0.1462  0.5730
15709TIP3    H168618   3.610   6.070   1.625 -0.6508 -2.5542  0.1480
15709TIP3    H268619   3.759   6.077   1.599 -0.4004  1.3037  1.9686
15710TIP3   OH268620   3.708   2.874  14.777 -0.1944  0.6589  0.0187
15710TIP3    H168621   3.684   2.792  14.819 -0.3668  0.6753 -0.0474
15710TIP3    H268622   3.784   2.852  14.723 -0.5829  0.4220 -0.4310
15711TIP3   OH268623   6.499   3.770   3.720 -0.5425 -0.0921  0.1121
15711TIP3    H168624   6.443   3.692   3.728 -1.5345  0.6243  0.3075
15711TIP3    H268625   6.535   3.783   3.808 -0.0966 -0.5202 -0.0005
15712TIP3   OH268626   5.632   5.169  16.912 -0.1492 -0.0576  0.1800
15712TIP3    H168627   5.683   5.099  16.951  0.2616  1.0096  1.6434
15712TIP3    H268628   5.565   5.125  16.860  1.0068 -1.4952 -0.1497
15713TIP3   OH268629   6.781   0.876   4.554 -0.4329  0.0828 -0.1069
15713TIP3    H168630   6.722   0.878   4.629  2.1408  0.7422  2.0605
15713TIP3    H268631   6.783   0.784   4.528 -1.2904 -0.1827  0.6940
15714TIP3   OH268632   2.577   2.105   3.943 -0.1383 -0.8181  0.5337
15714TIP3    H168633   2.656   2.151   3.971  0.3300 -1.7361  0.7541
15714TIP3    H268634   2.606   2.051   3.870 -0.2436 -2.1946  1.4811
15715TIP3   OH268635   0.959   4.255  11.873 -0.0578  0.0044 -0.2130
15715TIP3    H168636   0.927   4.273  11.961  0.6281  1.3379 -0.2166
15715TIP3    H268637   0.970   4.160  11.871 -0.0832 -0.0456  1.1304
15716TIP3   OH268638   2.110   0.569   0.966 -0.1832 -0.7565 -0.0248
15716TIP3    H168639   2.045   0.544   0.901  1.1634 -0.6999 -1.4536
15716TIP3    H268640   2.194   0.558   0.921  0.7911 -0.6101  1.6784
15717TIP3   OH268641   2.904   6.259   2.731 -0.6098  0.1844  0.1017
15717TIP3    H168642   2.934   6.175   2.765 -0.8109  0.5712  1.2832
15717TIP3    H268643   2.835   6.237   2.669 -1.4766 -0.4835  1.2778
15718TIP3   OH268644   6.767   0.035  11.828 -1.1706  0.0783 -0.1514
15718TIP3    H168645   6.836   0.084  11.783  0.0178 -0.0508  1.4312
15718TIP3    H268646   6.780  -0.055  11.797 -1.2805  0.2158 -0.6121
15719TIP3   OH268647   1.917   0.829  15.768 -0.1312  0.2203  0.4197
15719TIP3    H168648   1.893   0.917  15.796  1.3171  0.5576  0.7109
15719TIP3    H268649   1.955   0.840  15.681 -1.4845 -0.3647 -0.2653
15720TIP3   OH268650   0.236   3.310  16.936 -0.3419 -0.4529 -0.5250
15720TIP3    H168651   0.192   3.390  16.907 -0.9036 -0.6651 -0.2715
15720TIP3    H268652   0.290   3.338  17.009  2.4179  0.4345 -2.7401
15721TIP3   OH268653   1.330   1.092   2.935 -0.7880 -0.2700  0.4328
15721TIP3    H168654   1.296   1.111   2.848 -0.6101  2.1878  0.8379
15721TIP3    H268655   1.424   1.080   2.922 -0.8892 -0.8622  0.1856
15722TIP3   OH268656   4.416   5.910  12.867 -0.0170 -0.4566 -0.0707
15722TIP3    H168657   4.490   5.850  12.858 -0.1098 -0.4786 -0.7595
15722TIP3    H268658   4.377   5.888  12.952  0.7497 -0.4582  0.2913
15723TIP3   OH268659   4.550   6.527  16.430  0.7307 -0.1690  0.0539
15723TIP3    H168660   4.541   6.596  16.365 -0.1040 -0.8745 -0.6189
15723TIP3    H268661   4.595   6.568  16.503 -0.6236  1.3693  0.0818
15724TIP3   OH268662   3.327   2.510  11.424  0.2258 -0.1981  0.0346
15724TIP3    H168663   3.352   2.602  11.425  0.5251 -0.2766  0.9523
15724TIP3    H268664   3.394   2.467  11.371  2.2110 -0.4150  2.4876
15725TIP3   OH268665   6.260   6.672  16.750  0.3095  0.2728 -0.2221
15725TIP3    H168666   6.226   6.643  16.834  2.3591  0.3594  0.6931
15725TIP3    H268667   6.303   6.594  16.713  1.9760  0.9530  0.2037
15726TIP3   OH268668   4.302   0.493   5.275  0.0338  0.3126 -0.1225
15726TIP3    H168669   4.296   0.584   5.306 -0.6613  0.5683 -0.9628
15726TIP3    H268670   4.388   0.489   5.231  0.6140  0.2023  0.9882
15727TIP3   OH268671   2.293   2.930  13.272 -0.2545  0.1059 -0.5317
15727TIP3    H168672   2.244   2.848  13.271  0.8057 -0.6111  1.2563
15727TIP3    H268673   2.317   2.943  13.364 -0.4022  2.4470 -0.7517
15728TIP3   OH268674   6.722   5.209  13.248 -0.2635  0.8115  0.0615
15728TIP3    H168675   6.655   5.269  13.216 -1.6604 -0.4881  0.4169
15728TIP3    H268676   6.727   5.226  13.342  0.6797  1.6134 -0.1172
15729TIP3   OH268677   5.985   5.693  11.805 -0.1974  0.3722 -0.0042
15729TIP3    H168678   5.918   5.625  11.811 -0.2518  0.2029 -1.9842
15729TIP3    H268679   6.059   5.650  11.762 -0.2076  1.4980 -1.2256
15730TIP3   OH268680   0.554   2.859  14.632  0.6766 -0.1957  0.2496
15730TIP3    H168681   0.620   2.839  14.698  0.7467  0.4275  0.3680
15730TIP3    H268682   0.591   2.931  14.581  0.5320 -0.5302 -0.3389
15731TIP3   OH268683   1.982   6.453  12.512 -0.4988  0.1741 -0.2624
15731TIP3    H168684   2.044   6.384  12.491  0.3398  0.0781  2.2369
15731TIP3    H268685   1.901   6.427  12.468  1.2213  0.5484 -4.0213
15732TIP3   OH268686   0.873   5.219  17.197 -0.4770 -0.5307 -0.6860
15732TIP3    H168687   0.790   5.254  17.229 -0.5869 -1.8114  0.5540
15732TIP3    H268688   0.849   5.164  17.122 -1.1226 -2.6947  0.9899
15733TIP3   OH268689   6.758   1.946   5.419 -0.6018  0.9090 -0.0552
15733TIP3    H168690   6.758   1.972   5.511 -0.2279 -0.2419  0.2933
15733TIP3    H268691   6.665   1.939   5.396 -0.6974  1.3386  0.1935
15734TIP3   OH268692   0.516   1.511   0.194 -0.0282  0.0481  0.6535
15734TIP3    H168693   0.433   1.504   0.242 -0.3151  1.0738  0.3434
15734TIP3    H268694   0.490   1.539   0.106  0.6564  0.5796  0.6123
15735TIP3   OH268695   4.070   5.152   2.601 -0.0807  0.1630  0.0310
15735TIP3    H168696   3.982   5.186   2.584  1.6597  3.2445 -5.1603
15735TIP3    H268697   4.071   5.067   2.558 -0.8480 -0.7888  1.7532
15736TIP3   OH268698   2.091   1.487  15.791  0.5740 -0.1489 -0.0437
15736TIP3    H168699   2.174   1.442  15.773  1.4640 -0.1755  3.4602
15736TIP3    H268700   2.117   1.572  15.827 -1.0188  0.7398 -0.8674
15737TIP3   OH268701   5.656   0.971  16.350  0.2654  0.1668  0.9852
15737TIP3    H168702   5.606   1.052  16.340 -0.6795 -0.5696 -0.6317
15737TIP3    H268703   5.747   1.000  16.360  0.0968  1.4099 -0.6853
15738TIP3   OH268704   5.229   2.350  16.408 -0.0996  0.0527  0.6316
15738TIP3    H168705   5.289   2.425  16.405 -0.3967  0.2714 -0.7540
15738TIP3    H268706   5.287   2.274  16.417  0.3409  0.3229  0.1647
15739TIP3   OH268707   4.326   1.028  16.813  0.6109 -0.2087  0.8900
15739TIP3    H168708   4.390   1.070  16.870  2.4465 -1.7479  0.0848
15739TIP3    H268709   4.265   0.984  16.872  2.3935 -1.6730  1.7305
15740TIP3   OH268710   1.917   0.592   4.642  0.0362  0.3789 -0.3860
15740TIP3    H168711   1.904   0.517   4.584  3.0924 -0.2581 -0.4119
15740TIP3    H268712   1.894   0.668   4.588 -2.4267 -0.4153 -0.5809
15741TIP3   OH268713   1.584   4.847  11.201  0.1247 -0.4829  0.0137
15741TIP3    H168714   1.585   4.897  11.283  1.4947 -3.0673  1.7125
15741TIP3    H268715   1.675   4.824  11.186 -0.5024 -3.3825  0.0203
15742TIP3   OH268716   4.966   4.672  15.886 -0.2303 -0.3413 -0.8127
15742TIP3    H168717   4.943   4.765  15.886 -0.4779 -0.3847  0.6787
15742TIP3    H268718   5.009   4.658  15.802 -1.5403  0.7809 -1.7038
15743TIP3   OH268719   2.755   4.490   0.437 -0.1243 -0.2830  0.1917
15743TIP3    H168720   2.777   4.580   0.459  0.3720  0.5028 -3.0325
15743TIP3    H268721   2.835   4.441   0.455  0.1177  0.1966  0.4521
15744TIP3   OH268722   0.079   4.952   1.487  0.1544 -0.0203 -0.1844
15744TIP3    H168723   0.025   5.030   1.499 -0.2234 -0.1498 -1.0349
15744TIP3    H268724   0.017   4.880   1.484  0.5705 -0.5636  2.0719
15745TIP3   OH268725   4.915   4.968  14.097  0.4782  0.0545  0.2689
15745TIP3    H168726   5.004   4.933  14.088  0.7285  0.9359 -0.8981
15745TIP3    H268727   4.928   5.061  14.117 -0.1807  0.0048  0.9512
15746TIP3   OH268728   1.894   4.654  10.461  0.8732 -0.1550  0.2215
15746TIP3    H168729   1.973   4.620  10.505  0.2250  0.2965  1.8042
15746TIP3    H268730   1.884   4.742  10.496 -0.5501 -0.3445  0.3216
15747TIP3   OH268731   4.482   1.220  11.772  0.2333 -0.1112  0.4084
15747TIP3    H168732   4.397   1.186  11.742  0.4859 -0.1343 -0.2853
15747TIP3    H268733   4.460   1.302  11.816 -0.2902 -0.7486  1.3624
15748TIP3   OH268734   5.033   3.855  12.784 -0.2259  0.1381  0.5640
15748TIP3    H168735   5.067   3.918  12.848 -0.3487 -0.4824  1.2530
15748TIP3    H268736   5.109   3.803  12.760 -0.2295  0.2166  0.3844
15749TIP3   OH268737   5.070   6.099   5.638  0.1404 -0.3662  0.0067
15749TIP3    H168738   4.983   6.066   5.615  0.8655 -2.6168  0.1991
15749TIP3    H268739   5.076   6.085   5.733  0.4976  0.3611  0.0984
15750TIP3   OH268740   4.114   0.283   0.607 -0.4492  0.2475  0.6301
15750TIP3    H168741   4.072   0.223   0.669 -0.0546  1.3236  1.9845
15750TIP3    H268742   4.041   0.321   0.557 -0.9940  1.0274  1.9726
15751TIP3   OH268743   0.421   3.955   6.183 -0.0581 -0.3445 -0.0710
15751TIP3    H168744   0.497   3.910   6.221  0.4735 -0.0256 -0.7466
15751TIP3    H268745   0.348   3.895   6.199  0.7670 -1.8854 -1.6787
15752TIP3   OH268746   2.463   6.306  15.891 -0.3403  0.7107 -0.2431
15752TIP3    H168747   2.405   6.230  15.881  0.7118 -0.6234  2.6438
15752TIP3    H268748   2.413   6.367  15.946 -0.5289  1.4110 -1.1630
15753TIP3   OH268749   5.401   5.609   2.058 -0.4315  0.5066 -0.1050
15753TIP3    H168750   5.316   5.643   2.086 -1.0486 -0.6566 -0.5176
15753TIP3    H268751   5.424   5.544   2.124  0.3017  1.0108  0.1641
15754TIP3   OH268752   5.410   2.158  11.412 -0.6090 -0.1476  0.5065
15754TIP3    H168753   5.333   2.195  11.368 -1.1066 -0.4433  1.1161
15754TIP3    H268754   5.424   2.074  11.368 -0.8795 -0.2742  0.6572
15755TIP3   OH268755   6.028   5.526   0.697 -0.3769 -0.0832  0.2140
15755TIP3    H168756   5.957   5.494   0.642 -1.3269 -1.0163  1.8809
15755TIP3    H268757   6.072   5.447   0.728  1.0174  0.4636 -0.2938
15756TIP3   OH268758   1.308   6.533   0.808 -0.7423  0.3985  0.4282
15756TIP3    H168759   1.301   6.514   0.902 -1.0302  0.4877  0.4258
15756TIP3    H268760   1.263   6.460   0.766 -0.1087  0.0594  0.3339
15757TIP3   OH268761   3.292   3.276   4.487 -0.2322  0.2793  0.1913
15757TIP3    H168762   3.347   3.338   4.535  0.6267 -0.3902  0.1011
15757TIP3    H268763   3.239   3.331   4.429 -1.0757  1.0732  1.6617
15758TIP3   OH268764   3.418   1.633   0.629 -0.3241  0.0638 -0.6036
15758TIP3    H168765   3.399   1.618   0.722 -1.1264 -0.4526 -0.8318
15758TIP3    H268766   3.370   1.563   0.584  0.2726  0.1500 -1.3896
15759TIP3   OH268767   6.544   2.284  11.637 -0.8143 -0.0231  0.0417
15759TIP3    H168768   6.620   2.324  11.679 -1.7886  1.3390  0.6125
15759TIP3    H268769   6.470   2.310  11.692 -1.7209 -1.1947 -0.5686
15760TIP3   OH268770   1.958   1.569   0.914 -0.4129  0.1761  0.4312
15760TIP3    H168771   1.993   1.647   0.870 -1.0084  1.1023  1.5241
15760TIP3    H268772   1.881   1.545   0.863  0.0919 -0.0451 -0.2373
15761TIP3   OH268773   4.390   4.578  10.878  0.1833 -0.0507 -0.8067
15761TIP3    H168774   4.318   4.516  10.865  0.2957 -0.3671 -0.0207
15761TIP3    H268775   4.364   4.627  10.956  0.9621 -0.3897 -0.3231
15762TIP3   OH268776   4.393   6.166  16.487 -0.2739  0.1976 -0.2235
15762TIP3    H168777   4.459   6.201  16.427 -1.5653  2.0576 -0.6545
15762TIP3    H268778   4.309   6.192  16.448 -1.2294 -0.7457  1.1077
15763TIP3   OH268779   0.564   6.302  11.955 -0.4647  0.1568  0.0868
15763TIP3    H168780   0.479   6.301  12.000  0.6787 -0.4738  2.3617
15763TIP3    H268781   0.570   6.216  11.914 -0.4255 -0.2652  0.9544
15764TIP3   OH268782   5.403   0.908   0.185 -0.5447 -0.2202 -0.1917
15764TIP3    H168783   5.341   0.979   0.202  0.0636 -0.2176  2.4654
15764TIP3    H268784   5.372   0.836   0.239 -0.9698 -1.9789 -2.5967
15765TIP3   OH268785   2.479   6.639   3.910 -0.4911 -0.0591 -0.2572
15765TIP3    H168786   2.486   6.735   3.914  0.5082 -0.1520  0.6677
15765TIP3    H268787   2.557   6.607   3.955 -0.7999 -1.3222 -0.5717
15766TIP3   OH268788   0.092   4.651  12.543 -0.0654  0.3019 -0.4573
15766TIP3    H168789   0.121   4.721  12.485  1.9026  0.9480  1.1959
15766TIP3    H268790   0.159   4.583  12.535  0.4452  0.5583  1.2796
15767TIP3   OH268791   2.533   3.616   2.908 -0.4415  0.1043 -0.2027
15767TIP3    H168792   2.524   3.708   2.933 -1.2312  0.6359 -2.2295
15767TIP3    H268793   2.540   3.618   2.812  0.3960 -1.9006 -0.2335
15768TIP3   OH268794   6.498   2.879  13.705 -0.0452 -0.4601  0.3085
15768TIP3    H168795   6.419   2.930  13.724  0.9273  0.3804  2.4151
15768TIP3    H268796   6.513   2.828  13.785  1.9168 -0.0571  0.2370
15769TIP3   OH268797   2.631   5.248  14.496  0.5000  0.0293  0.2930
15769TIP3    H168798   2.573   5.278  14.426  0.8073 -0.0865 -0.0162
15769TIP3    H268799   2.642   5.325  14.552 -2.7200 -0.8134  2.3466
15770TIP3   OH268800   0.040   6.399   5.868  0.2750 -0.4022 -0.5735
15770TIP3    H168801   0.121   6.448   5.887 -0.3445  1.6389 -2.6483
15770TIP3    H268802   0.064   6.308   5.882  2.3119  0.2758  0.9394
15771TIP3   OH268803   0.013   4.935   2.802  0.1200 -0.1878 -0.3271
15771TIP3    H168804   0.100   4.942   2.761  0.7185  0.9361  1.0754
15771TIP3    H268805   0.011   4.846   2.838  0.3538 -0.5059 -1.0764
15772TIP3   OH268806   6.595   4.586   0.258 -0.0138 -0.6071  0.1845
15772TIP3    H168807   6.587   4.661   0.316  0.0675  1.0388 -1.7995
15772TIP3    H268808   6.679   4.546   0.281  0.0455  0.0335  1.1298
15773TIP3   OH268809   1.145   0.450  15.177  0.1562 -0.3528  0.2639
15773TIP3    H168810   1.066   0.472  15.225  0.7810  1.0280  0.7027
15773TIP3    H268811   1.140   0.500  15.096  0.6972 -0.0213  0.4243
15774TIP3   OH268812   4.008   3.142   1.129 -0.2656 -0.1232  0.1303
15774TIP3    H168813   3.950   3.158   1.203 -0.2220  1.3798 -0.1136
15774TIP3    H268814   3.951   3.146   1.052 -0.0392  0.2071 -0.0273
15775TIP3   OH268815   3.441   3.088  16.632 -0.2392 -0.2714  0.3697
15775TIP3    H168816   3.354   3.122  16.652  0.3341  1.0372  0.7465
15775TIP3    H268817   3.445   3.004  16.677 -1.2755 -0.3110  0.4026
15776TIP3   OH268818   0.032   0.803  12.991 -0.1503 -0.2626 -0.9759
15776TIP3    H168819   0.100   0.871  12.997 -0.4804  0.1626 -1.8604
15776TIP3    H268820   0.015   0.778  13.082  0.1914  0.6383 -0.6534
15777TIP3   OH268821   6.035   1.953   0.800 -0.2577 -0.6258  0.7442
15777TIP3    H168822   5.943   1.933   0.818 -0.7057 -0.1501 -0.8519
15777TIP3    H268823   6.069   1.986   0.883 -2.2977  1.8924  0.7137
15778TIP3   OH268824   0.168   3.591  13.852  0.5402  0.0796  0.3245
15778TIP3    H168825   0.174   3.504  13.891 -1.5008 -0.8414 -1.3006
15778TIP3    H268826   0.136   3.647  13.924 -1.7841 -1.2985  0.4631
15779TIP3   OH268827   0.653   1.139  12.903  0.4340 -0.3231 -0.0693
15779TIP3    H168828   0.679   1.047  12.895 -0.5903 -0.5898 -0.5306
15779TIP3    H268829   0.701   1.184  12.834 -0.6052 -0.8761 -1.1803
15780TIP3   OH268830   4.437   5.936  15.777  0.1830 -0.2575  0.0670
15780TIP3    H168831   4.455   6.004  15.711 -1.1610 -1.8053 -2.0431
15780TIP3    H268832   4.505   5.870  15.762 -0.2284 -0.6946  0.0951
15781TIP3   OH268833   0.294   3.016  15.188  0.7610 -0.2342  0.3260
15781TIP3    H168834   0.264   3.107  15.183  3.8270  0.9517  0.9696
15781TIP3    H268835   0.280   2.991  15.279 -0.3079 -0.5182  0.0927
15782TIP3   OH268836   3.109   6.787   4.615  0.2267 -0.2734 -0.0784
15782TIP3    H168837   3.114   6.879   4.639 -0.6888 -0.1072 -0.4757
15782TIP3    H268838   3.082   6.743   4.696  1.8299 -0.3652  0.4270
15783TIP3   OH268839   6.115   4.976   5.326  0.0477  0.1393  0.3036
15783TIP3    H168840   6.146   4.930   5.403  0.7220 -0.0517 -0.0710
15783TIP3    H268841   6.056   4.914   5.282 -0.0869  0.1319  0.4963
15784TIP3   OH268842   3.045   6.023   3.868  0.1090 -0.0262 -0.0047
15784TIP3    H168843   3.096   6.042   3.947 -1.9098  1.1666  1.0945
15784TIP3    H268844   3.054   6.101   3.814 -0.0840 -0.0502 -0.0725
15785TIP3   OH268845   5.786   5.848   2.848  0.4525 -0.0271 -0.2674
15785TIP3    H168846   5.700   5.854   2.892  0.3458  1.5735 -0.6118
15785TIP3    H268847   5.832   5.927   2.876  2.1588 -1.2513  0.5460
15786TIP3   OH268848   6.347   3.552   2.391  0.2245  0.4140 -0.5652
15786TIP3    H168849   6.442   3.565   2.385  0.6591 -1.7122  0.5549
15786TIP3    H268850   6.328   3.485   2.325 -0.3770  0.3644 -0.3450
15787TIP3   OH268851   1.119   6.683   1.144 -0.0293 -0.3650 -0.6091
15787TIP3    H168852   1.075   6.630   1.078 -0.4486  0.1740 -0.7644
15787TIP3    H268853   1.209   6.651   1.144  0.0087 -0.2830 -1.5359
15788TIP3   OH268854   3.756   4.958   3.173  0.2955 -0.0628  0.1449
15788TIP3    H168855   3.776   4.887   3.234  0.1456 -1.0666 -0.9383
15788TIP3    H268856   3.832   4.964   3.116  0.1977  0.4860  0.0644
15789TIP3   OH268857   3.126   0.490  17.058 -0.2980 -0.2063  0.4007
15789TIP3    H168858   3.154   0.576  17.089  0.2589 -0.7426  1.4443
15789TIP3    H268859   3.032   0.487  17.076  0.1586 -0.8918  3.1374
15790TIP3   OH268860   4.838   5.828  13.928  0.0168  0.0880 -0.7197
15790TIP3    H168861   4.783   5.750  13.937 -2.0558  1.5931  0.9433
15790TIP3    H268862   4.910   5.801  13.871 -1.8501 -2.3643 -2.1300
15791TIP3   OH268863   6.108   3.855   4.154  0.3040  0.1559 -0.8913
15791TIP3    H168864   6.152   3.788   4.207 -0.9468 -0.0787 -0.1258
15791TIP3    H268865   6.015   3.834   4.159 -0.2284  2.3553 -0.0051
15792TIP3   OH268866   1.093   2.490   0.936  0.5289  0.3385  0.4622
15792TIP3    H168867   1.035   2.415   0.948  1.1862 -0.0336  1.4395
15792TIP3    H268868   1.041   2.565   0.967  0.0801  0.2099  0.0251
15793TIP3   OH268869   3.388   0.117   6.711 -0.0055  0.0858 -0.2295
15793TIP3    H168870   3.391   0.152   6.622 -0.1961  1.7057  0.3756
15793TIP3    H268871   3.310   0.060   6.712 -0.0604  0.1428 -1.0544
15794TIP3   OH268872   5.007   6.660   2.834 -0.1302 -0.1472  0.6366
15794TIP3    H168873   4.987   6.646   2.926  2.1473  0.2943  1.2613
15794TIP3    H268874   4.999   6.755   2.822  0.2460 -0.1265  0.5486
15795TIP3   OH268875   4.644   0.498  11.299 -0.3385 -0.2468 -0.2985
15795TIP3    H168876   4.652   0.451  11.216 -2.5364 -0.2197 -0.5847
15795TIP3    H268877   4.630   0.589  11.274 -0.7728 -0.1982  0.1047
15796TIP3   OH268878   6.429   1.050   0.649  0.0325  0.2723  0.4100
15796TIP3    H168879   6.453   1.142   0.636  1.0211 -0.1781 -1.3481
15796TIP3    H268880   6.355   1.035   0.589 -0.5079  0.0521  1.1148
15797TIP3   OH268881   2.652   4.726  11.029  0.2817  0.3973  0.3952
15797TIP3    H168882   2.575   4.695  10.982  0.8084  0.8654 -0.8202
15797TIP3    H268883   2.645   4.686  11.116 -0.4126 -0.9774 -0.2651
15798TIP3   OH268884   4.594   3.458  10.856 -0.4431  0.1998  0.2370
15798TIP3    H168885   4.504   3.441  10.883 -1.9537  1.6284 -3.2051
15798TIP3    H268886   4.591   3.546  10.818  1.9924 -0.3950 -1.5726
15799TIP3   OH268887   5.684   0.993  13.536 -0.1685 -0.2123 -0.0535
15799TIP3    H168888   5.650   1.058  13.597 -1.1695 -1.5722  0.9290
15799TIP3    H268889   5.779   0.997  13.546 -0.2033  1.1885 -0.1501
15800TIP3   OH268890   5.418   5.555  12.277  0.6867 -0.0773  0.0459
15800TIP3    H168891   5.466   5.638  12.270  1.0279 -0.2578  0.2439
15800TIP3    H268892   5.482   5.488  12.252  1.1251 -0.4977  2.1259
15801TIP3   OH268893   6.658   4.153   4.169 -0.2795  0.2053 -0.2930
15801TIP3    H168894   6.569   4.171   4.138 -0.6952 -0.7064  0.3261
15801TIP3    H268895   6.695   4.239   4.188 -0.8011  0.6392 -1.1454
15802TIP3   OH268896   2.081   6.535   2.788  0.2487 -0.0635  0.2658
15802TIP3    H168897   2.139   6.485   2.730  0.1080 -0.7651  0.7136
15802TIP3    H268898   2.078   6.483   2.868  1.9556  1.7847  1.6445
15803TIP3   OH268899   0.767   2.978  14.496 -0.5042  0.0185  0.0711
15803TIP3    H168900   0.823   2.901  14.509 -0.1623  0.3191  0.4141
15803TIP3    H268901   0.800   3.018  14.415  0.0129  0.3771  0.4422
15804TIP3   OH268902   1.959   2.570   5.356 -0.2505  0.1165  0.2110
15804TIP3    H168903   2.022   2.583   5.285  0.5505 -1.8902  0.5073
15804TIP3    H268904   2.009   2.582   5.436 -1.1153  2.1904  0.5139
15805TIP3   OH268905   0.485   4.126   4.728  0.1175 -0.1093 -0.4040
15805TIP3    H168906   0.428   4.055   4.697 -0.0554 -0.0376 -0.2495
15805TIP3    H268907   0.464   4.200   4.671  0.0826 -0.0933 -0.3701
15806TIP3   OH268908   5.785   3.948   4.489  0.7301  0.4165  0.6353
15806TIP3    H168909   5.820   4.009   4.424  0.8422 -1.2653 -0.9474
15806TIP3    H268910   5.830   3.866   4.471 -0.6425 -0.5870  1.6150
15807TIP3   OH268911   1.991   4.448   3.158  0.9191  0.4607 -0.5964
15807TIP3    H168912   2.042   4.501   3.097  1.1401  1.9699  0.8134
15807TIP3    H268913   2.056   4.416   3.221  0.5551 -0.2136 -0.5594
15808TIP3   OH268914   2.779   6.775  14.152  0.0377 -0.0808 -0.2085
15808TIP3    H168915   2.844   6.832  14.112  0.5677 -0.5162  0.0132
15808TIP3    H268916   2.789   6.790  14.246 -0.0143 -0.3282 -0.1626
15809TIP3   OH268917   6.522   2.685   5.404 -0.5417 -0.0795  0.0664
15809TIP3    H168918   6.497   2.654   5.491 -0.5403  0.6862  0.3499
15809TIP3    H268919   6.615   2.708   5.412 -0.5856  0.1575 -0.0859
15810TIP3   OH268920   3.804   3.918  16.248 -0.0036  0.1185  0.1016
15810TIP3    H168921   3.716   3.882  16.249  0.4803 -1.2680 -1.9323
15810TIP3    H268922   3.840   3.897  16.334 -1.4353  0.2004  0.7478
15811TIP3   OH268923   3.527   3.585   2.699 -0.6920 -0.1798 -0.0730
15811TIP3    H168924   3.510   3.491   2.708  1.2796 -0.4486  1.5371
15811TIP3    H268925   3.484   3.624   2.775 -2.3045  0.3881 -1.2325
15812TIP3   OH268926   3.917   1.494  15.492  0.0915  0.4378  0.0580
15812TIP3    H168927   3.957   1.564  15.439  0.5077 -0.2973 -0.6224
15812TIP3    H268928   3.873   1.438  15.428  0.3966 -0.3370  0.5128
15813TIP3   OH268929   1.007   5.536   1.349 -0.4833  0.6354 -1.0346
15813TIP3    H168930   1.094   5.566   1.375 -0.9330 -0.1488  1.6735
15813TIP3    H268931   1.022   5.454   1.302  0.2253 -0.6487  1.2719
15814TIP3   OH268932   5.407   1.472   0.693  0.1513  0.0646 -0.5341
15814TIP3    H168933   5.313   1.485   0.684  0.1126 -1.0847 -2.4117
15814TIP3    H268934   5.445   1.509   0.614  1.2804  0.4384  0.1561
15815TIP3   OH268935   4.918   6.510   0.855  0.0955 -0.4845 -0.0370
15815TIP3    H168936   4.967   6.474   0.928  0.3019  1.9261  1.1178
15815TIP3    H268937   4.865   6.437   0.822  1.0905 -1.9864  1.5717
15816TIP3   OH268938   5.548   5.869  15.602 -0.6888  0.6781  0.5031
15816TIP3    H168939   5.468   5.909  15.569 -0.1753  0.9725 -0.4200
15816TIP3    H268940   5.592   5.939  15.650 -0.3741  0.8783 -0.0760
15817TIP3   OH268941   4.864   0.984  14.574 -0.2681 -0.2682  0.3001
15817TIP3    H168942   4.943   0.953  14.619  0.7590  0.0905 -1.2076
15817TIP3    H268943   4.795   0.974  14.640  1.1506  0.1924  1.9599
15818TIP3   OH268944   0.497   3.211  16.569  0.3565 -0.0372  0.0694
15818TIP3    H168945   0.441   3.153  16.519  1.2159  0.1427 -1.1559
15818TIP3    H268946   0.443   3.289  16.585  0.8522  1.0921 -3.0304
15819TIP3   OH268947   0.286   0.269   2.174  0.2934  0.1468 -0.1008
15819TIP3    H168948   0.306   0.314   2.092  0.5022  0.5445  0.1660
15819TIP3    H268949   0.334   0.318   2.241  0.5481 -0.4912  0.1919
15820TIP3   OH268950   1.105   4.877   4.939 -1.2471  0.4843 -0.2538
15820TIP3    H168951   1.047   4.813   4.898  0.0389 -0.1716 -1.1229
15820TIP3    H268952   1.062   4.900   5.021 -2.9766  0.4079 -1.0993
15821TIP3   OH268953   4.791   1.391  11.152  0.0285 -0.5671 -0.7430
15821TIP3    H168954   4.847   1.467  11.137  0.0583 -0.7265 -1.4421
15821TIP3    H268955   4.827   1.323  11.095  0.8227 -1.5325  0.8191
15822TIP3   OH268956   1.529   0.033   1.216 -0.7237 -0.1290 -0.1433
15822TIP3    H168957   1.623   0.016   1.212 -0.2815  1.8486  0.5397
15822TIP3    H268958   1.495  -0.033   1.275  0.4272 -0.2519  0.4089
15823TIP3   OH268959   2.657   4.196  17.285  0.4400 -0.1454  0.1988
15823TIP3    H168960   2.597   4.270  17.290  0.2582 -0.3124  0.5390
15823TIP3    H268961   2.699   4.205  17.200 -0.7431 -0.5361 -0.4637
15824TIP3   OH268962   2.513   6.541  13.339  0.5649  0.3911 -0.5172
15824TIP3    H168963   2.575   6.475  13.372 -0.9775  0.1079  2.1068
15824TIP3    H268964   2.566   6.619  13.324  2.0425 -0.7393 -1.4986
15825TIP3   OH268965   2.817   3.492  11.420 -0.4014  0.4161 -0.0695
15825TIP3    H168966   2.859   3.555  11.362 -0.0764 -0.5518 -0.9172
15825TIP3    H268967   2.726   3.488  11.389 -0.6122  0.9918  0.4514
15826TIP3   OH268968   2.299   6.598  17.180  0.0380  0.6014  0.4280
15826TIP3    H168969   2.316   6.584  17.273 -0.1095 -1.9966  0.1246
15826TIP3    H268970   2.204   6.604  17.173 -0.0528 -0.7644  0.2934
15827TIP3   OH268971   6.328   1.298  16.392  0.7688  0.9662  0.0378
15827TIP3    H168972   6.253   1.264  16.344  1.5211 -0.0048 -0.4973
15827TIP3    H268973   6.339   1.387  16.361 -1.0024  1.6323  1.1615
15828TIP3   OH268974   5.756   4.283  13.708  0.1163  0.2986 -0.0792
15828TIP3    H168975   5.812   4.301  13.784  1.3944  0.6627 -1.0606
15828TIP3    H268976   5.803   4.214  13.660  0.9612  2.1413 -2.1083
15829TIP3   OH268977   2.972   6.803  15.846  0.0527  0.1269  0.2328
15829TIP3    H168978   2.989   6.841  15.932 -1.4691  1.5559 -0.0516
15829TIP3    H268979   2.905   6.737  15.862  0.2589 -0.0889  0.2219
15830TIP3   OH268980   4.421   3.219  16.890 -0.7448  0.6306  0.0424
15830TIP3    H168981   4.331   3.217  16.860 -0.6411  1.0159 -0.2997
15830TIP3    H268982   4.422   3.286  16.958 -0.6716  0.7871 -0.1105
15831TIP3   OH268983   3.650   5.587   1.704 -0.3274 -0.2901 -0.2885
15831TIP3    H168984   3.605   5.587   1.788  0.8955  0.0436  0.3984
15831TIP3    H268985   3.722   5.649   1.715  1.5229 -2.2363 -0.6330
15832TIP3   OH268986   1.773   3.804  13.978 -0.1145 -0.2655  0.1135
15832TIP3    H168987   1.681   3.786  13.963  0.0603 -1.3796  0.3165
15832TIP3    H268988   1.819   3.738  13.926  0.5614 -0.1594  0.5630
15833TIP3   OH268989   4.729   2.522  16.815  0.2980 -0.3721  0.1924
15833TIP3    H168990   4.715   2.534  16.721  1.3734 -0.3142  0.0297
15833TIP3    H268991   4.646   2.484  16.847 -1.0891  2.0617 -0.2816
15834TIP3   OH268992   0.579   1.200  11.720 -0.3888  0.3233 -0.0902
15834TIP3    H168993   0.640   1.247  11.664 -0.5545 -0.6513 -1.1217
15834TIP3    H268994   0.515   1.266  11.748 -0.5609  0.7373 -1.4299
15835TIP3   OH268995   4.585   3.078   4.234 -0.9794  0.7230 -0.7276
15835TIP3    H168996   4.653   3.097   4.299 -1.8911  0.5466  0.3132
15835TIP3    H268997   4.519   3.028   4.283 -1.5583  0.3469 -1.8661
15836TIP3   OH268998   2.896   1.544  16.721 -0.1024  0.3061  0.2690
15836TIP3    H168999   2.893   1.603  16.796 -0.1729  2.1950 -1.1399
15836TIP3    H269000   2.810   1.501  16.721  0.2815 -0.5451  1.8367
15837TIP3   OH269001   1.248   3.870  13.725 -0.2516  0.2576  0.0093
15837TIP3    H169002   1.192   3.880  13.648  0.9231 -1.1866 -1.0892
15837TIP3    H269003   1.324   3.925  13.707 -0.7901  1.3599  1.0026
15838TIP3   OH269004   0.574   0.387   2.806  0.2190 -0.3248 -0.6877
15838TIP3    H169005   0.528   0.378   2.722  0.8381 -2.2144 -0.8725
15838TIP3    H269006   0.654   0.434   2.785 -0.3404  0.5866 -0.8504
15839TIP3   OH269007   4.579   3.495   4.352 -0.1651 -0.7965 -0.2165
15839TIP3    H169008   4.582   3.578   4.305 -1.7572 -0.4188  0.2866
15839TIP3    H269009   4.670   3.466   4.357  0.5065  1.2431  0.1525
15840TIP3   OH269010   2.619   5.385  11.217 -0.8919 -0.5309  0.4312
15840TIP3    H169011   2.595   5.367  11.126 -1.5677 -1.8639  0.8485
15840TIP3    H269012   2.679   5.459  11.212 -3.2029  1.3704 -0.8569
15841TIP3   OH269013   1.030   4.200   4.468 -0.2451 -0.0548 -0.0407
15841TIP3    H169014   1.082   4.279   4.452  1.0742 -0.5282  1.5587
15841TIP3    H269015   0.944   4.233   4.493 -0.2185  0.8129 -1.0388
15842TIP3   OH269016   5.686   5.090   6.525 -0.0057  0.5755 -0.0660
15842TIP3    H169017   5.769   5.135   6.537  0.1631 -0.1557  2.0488
15842TIP3    H269018   5.707   5.013   6.474  1.1456 -0.8094  2.3306
15843TIP3   OH269019   3.412   1.727  13.487 -0.1561 -0.0273  0.3362
15843TIP3    H169020   3.472   1.794  13.519  1.5915 -1.9484  1.3275
15843TIP3    H269021   3.385   1.680  13.566 -2.0910  0.0509 -0.2306
15844TIP3   OH269022   0.742   2.953   1.874  0.2192 -0.4969  0.0595
15844TIP3    H169023   0.808   2.986   1.935 -0.2229  0.0285  0.2593
15844TIP3    H269024   0.791   2.936   1.794  1.1147 -2.6680  0.9908
15845TIP3   OH269025   2.613   0.446  14.394  0.1801  0.1415 -0.5235
15845TIP3    H169026   2.562   0.490  14.326 -1.8800 -0.3169  0.6211
15845TIP3    H269027   2.687   0.504  14.411 -1.2734  2.1113 -0.5712
15846TIP3   OH269028   6.459   1.592  15.827  0.3626  0.3151  0.3597
15846TIP3    H169029   6.403   1.648  15.880  0.5407  0.3647  0.4967
15846TIP3    H269030   6.532   1.649  15.800  0.6591  0.0913  0.6862
15847TIP3   OH269031   2.583   4.972  14.558 -0.0412 -0.0523 -0.5608
15847TIP3    H169032   2.599   5.066  14.552  0.7333 -0.0320  1.2245
15847TIP3    H269033   2.613   4.948  14.646 -1.4278 -1.7372 -0.4906
15848TIP3   OH269034   0.644   6.286  12.446 -0.2715 -0.1174  0.0773
15848TIP3    H169035   0.603   6.207  12.410 -2.9272  1.0358  0.2952
15848TIP3    H269036   0.710   6.253  12.506 -2.3143 -2.3023  1.3196
15849TIP3   OH269037   0.437   6.607  12.874 -0.3139  0.2910  1.2329
15849TIP3    H169038   0.370   6.603  12.806  1.7303  2.4764 -1.1311
15849TIP3    H269039   0.397   6.657  12.945 -1.9331 -0.5379  0.9353
15850TIP3   OH269040   2.048   2.822   0.907  0.4892  0.1902  0.3284
15850TIP3    H169041   2.004   2.744   0.872  3.1679 -1.7105  0.9407
15850TIP3    H269042   2.113   2.788   0.969  1.8068  2.9143  0.5909
15851TIP3   OH269043   3.731   1.183  11.719 -0.1939 -0.3497 -0.3105
15851TIP3    H169044   3.692   1.182  11.806 -0.6196 -0.7881 -0.5019
15851TIP3    H269045   3.825   1.195  11.735 -0.0957 -1.6619  0.2796
15852TIP3   OH269046   1.730   4.671  16.535  0.0972 -0.1373  0.8652
15852TIP3    H169047   1.691   4.671  16.623  1.1084 -2.3666  1.3704
15852TIP3    H269048   1.770   4.585  16.526  0.1714  0.0865 -1.7521
15853TIP3   OH269049   3.722   3.434  13.695  0.1923  0.4061  1.0073
15853TIP3    H169050   3.676   3.463  13.616  1.5760 -0.5680 -0.2298
15853TIP3    H269051   3.679   3.351  13.718 -0.3784  0.8176  1.4452
15854TIP3   OH269052   3.030   0.615  15.734  0.5643  0.4251  0.1855
15854TIP3    H169053   2.954   0.564  15.762 -1.1670  1.0549 -2.9313
15854TIP3    H269054   3.013   0.704  15.767 -0.0121  0.5304 -0.3785
15855TIP3   OH269055   2.938   1.495   3.144  0.9654  0.3372 -0.3871
15855TIP3    H169056   2.957   1.442   3.221  0.4934  1.6499  0.6668
15855TIP3    H269057   2.941   1.585   3.175  1.9502  0.9681 -2.1703
15856TIP3   OH269058   4.984   4.979  16.885  0.5293 -0.1715  0.2055
15856TIP3    H169059   4.990   4.904  16.825 -1.1156 -0.9352  0.9181
15856TIP3    H269060   5.059   4.968  16.943 -0.0062 -1.6548  0.6780
15857TIP3   OH269061   3.309   4.429  13.256  0.0191 -0.3525  0.2956
15857TIP3    H169062   3.314   4.352  13.313  2.0967 -0.6269 -0.1724
15857TIP3    H269063   3.260   4.398  13.180  1.6663 -1.5771 -0.3339
15858TIP3   OH269064   3.874   1.242   2.018 -0.0442  0.3480  0.4201
15858TIP3    H169065   3.831   1.210   2.097 -0.0865  0.6645  0.5278
15858TIP3    H269066   3.818   1.313   1.987 -0.1331  0.0983 -0.0074
15859TIP3   OH269067   6.312   1.660   6.128  0.4882 -0.3591 -0.1409
15859TIP3    H169068   6.297   1.713   6.206 -1.7392 -0.1466 -0.6461
15859TIP3    H269069   6.398   1.621   6.142  0.9594  1.1433  1.5429
15860TIP3   OH269070   2.817   0.600   5.317 -0.2750 -0.3681 -0.0850
15860TIP3    H169071   2.748   0.667   5.317 -0.0110 -0.0896 -0.4566
15860TIP3    H269072   2.849   0.599   5.227  0.4775 -0.2164  0.1757
15861TIP3   OH269073   0.984   2.441  10.907  0.4234  0.8306  0.7194
15861TIP3    H169074   0.917   2.477  10.849  0.7496 -0.7690 -0.7247
15861TIP3    H269075   1.067   2.470  10.870  0.6178  2.8086  2.5042
15862TIP3   OH269076   0.622   2.708   2.000  0.0180 -0.3588  0.3767
15862TIP3    H169077   0.667   2.771   1.944 -0.4382 -0.6752 -0.3630
15862TIP3    H269078   0.646   2.623   1.964 -1.2173 -0.5362 -0.0881
15863TIP3   OH269079   4.914   4.268  12.904  0.2122 -0.1805 -0.0389
15863TIP3    H169080   4.982   4.332  12.886  0.2961 -0.6434 -1.4946
15863TIP3    H269081   4.845   4.287  12.840 -0.5692 -0.3884  0.7123
15864TIP3   OH269082   3.695   0.511   1.159  0.5040  0.6312  0.1998
15864TIP3    H169083   3.710   0.535   1.068  0.5844  0.8781  0.2776
15864TIP3    H269084   3.733   0.424   1.167 -0.7036  0.0256 -0.3447
15865TIP3   OH269085   2.250   2.689  12.973 -0.4225 -0.1217  0.0686
15865TIP3    H169086   2.327   2.633  12.987  1.0557  1.9516  0.7334
15865TIP3    H269087   2.187   2.659  13.038 -0.3617 -2.0842 -0.6982
15866TIP3   OH269088   4.695   6.158   3.776  0.1368  0.4091  0.7692
15866TIP3    H169089   4.636   6.207   3.719  1.6865 -0.8265 -2.0956
15866TIP3    H269090   4.776   6.210   3.777  1.9376 -1.9858 -2.6158
15867TIP3   OH269091   0.911   0.054  13.272 -0.2562  0.0207  0.3194
15867TIP3    H169092   0.981  -0.009  13.254 -0.8445 -1.2345  2.1534
15867TIP3    H269093   0.954   0.123  13.324 -0.0448  0.0841  0.0619
15868TIP3   OH269094   5.861   5.106  13.192 -0.3422 -0.4629 -0.4413
15868TIP3    H169095   5.829   5.068  13.274 -1.5019  0.3982 -0.4742
15868TIP3    H269096   5.790   5.093  13.129  0.1501 -0.2614 -1.0531
15869TIP3   OH269097   0.388   1.247  16.526 -0.3674  0.1061  0.2060
15869TIP3    H169098   0.331   1.202  16.464  0.5865  1.0564 -1.4438
15869TIP3    H269099   0.329   1.278  16.595 -2.0126  1.5834 -1.7164
15870TIP3   OH269100   0.817   5.353  16.779  0.7352  0.1619 -0.3018
15870TIP3    H169101   0.896   5.319  16.821  0.2355 -1.3412 -0.5266
15870TIP3    H269102   0.752   5.355  16.848  0.1076 -1.6469 -0.7982
15871TIP3   OH269103   5.134   2.741   3.658 -0.1747 -0.5398  0.0819
15871TIP3    H169104   5.048   2.724   3.697 -0.2901  1.9203  1.0839
15871TIP3    H269105   5.114   2.783   3.575  0.0661 -0.3082  0.1421
15872TIP3   OH269106   4.138   5.228   1.720 -0.4430  0.4014 -0.0653
15872TIP3    H169107   4.234   5.229   1.725 -0.5010  0.9249  1.1224
15872TIP3    H269108   4.110   5.205   1.808 -1.4382  1.2767 -0.1456
15873TIP3   OH269109   5.709   2.536   6.604 -0.3021 -0.2428  0.2325
15873TIP3    H169110   5.716   2.441   6.611 -0.1379 -0.2661 -0.2820
15873TIP3    H269111   5.615   2.552   6.594 -0.6111 -0.2006  2.5541
15874TIP3   OH269112   6.814   2.804   2.019 -0.3039  0.0596  0.2627
15874TIP3    H169113   6.868   2.765   1.949 -0.2122  0.0849  0.3189
15874TIP3    H269114   6.828   2.747   2.095 -1.2506 -0.5895 -0.0354
15875TIP3   OH269115   5.497   5.625   0.861 -0.1151  0.0322 -0.1678
15875TIP3    H169116   5.451   5.704   0.835  1.1032  1.0173  0.5098
15875TIP3    H269117   5.549   5.601   0.784 -1.0111 -0.5318 -0.6094
15876TIP3   OH269118   4.329   3.412   3.117  0.1350 -0.4612 -0.4727
15876TIP3    H169119   4.244   3.377   3.090  0.6240 -1.6422 -0.5545
15876TIP3    H269120   4.386   3.399   3.042  0.1643  1.2594 -0.7848
15877TIP3   OH269121   6.476   1.201  13.175  0.6744 -0.4373 -0.3314
15877TIP3    H169122   6.426   1.152  13.241  0.1535 -1.6043 -1.5633
15877TIP3    H269123   6.503   1.136  13.111 -0.1824  0.8609 -2.1179
15878TIP3   OH269124   2.983   1.170   4.303 -0.7801  0.0890  0.2420
15878TIP3    H169125   2.973   1.104   4.234 -0.3341 -1.9500  2.0329
15878TIP3    H269126   2.924   1.142   4.373 -0.2719  1.3788  1.2321
15879TIP3   OH269127   6.694   3.103  13.700  0.4507  0.4375 -0.0844
15879TIP3    H169128   6.736   3.097  13.614 -0.4915 -1.0219 -0.4827
15879TIP3    H269129   6.651   3.018  13.711 -0.0549  0.8754  1.5202
15880TIP3   OH269130   6.204   1.814  13.235  0.2465 -0.1511  0.0176
15880TIP3    H169131   6.141   1.768  13.292 -2.1494  1.8930 -0.8210
15880TIP3    H269132   6.221   1.752  13.164 -1.7940 -0.3841 -0.3495
15881TIP3   OH269133   4.635   0.670   4.170  0.3217  0.0794 -0.6160
15881TIP3    H169134   4.570   0.737   4.147 -0.7404 -0.7890 -0.2513
15881TIP3    H269135   4.651   0.624   4.088 -1.8100 -1.6001 -0.2017
15882TIP3   OH269136   5.521   0.559   6.232 -0.2259  0.0423 -0.3516
15882TIP3    H169137   5.470   0.479   6.238  2.6021 -1.7765  2.0432
15882TIP3    H269138   5.575   0.547   6.153  1.1455 -1.1178  0.7163
15883TIP3   OH269139   6.177   0.507  15.094  0.0562 -0.3487  0.6313
15883TIP3    H169140   6.201   0.577  15.033  0.2847 -0.5728  0.4607
15883TIP3    H269141   6.087   0.484  15.071  0.0017 -0.1560  0.6482
15884TIP3   OH269142   1.106   6.202  14.666 -0.3761  0.0191  0.0822
15884TIP3    H169143   1.180   6.166  14.717  0.1473  0.7853 -0.1146
15884TIP3    H269144   1.145   6.227  14.582 -1.2413 -1.2460 -0.7177
15885TIP3   OH269145   5.060   1.361  16.713  0.5272  0.9140 -0.1744
15885TIP3    H169146   5.074   1.301  16.640  0.7594  1.8555 -0.9326
15885TIP3    H269147   4.998   1.316  16.771 -0.2815  0.4662 -1.3554
15886TIP3   OH269148   4.809   0.902  10.826 -0.1229  0.3860 -0.1588
15886TIP3    H169149   4.858   0.949  10.758  2.6894  1.0263  2.0938
15886TIP3    H269150   4.739   0.962  10.852  0.9516  1.6522 -0.1037
15887TIP3   OH269151   5.253   1.279   5.465  0.2668 -0.1575 -0.0669
15887TIP3    H169152   5.267   1.189   5.495  1.2168  0.5987  1.9707
15887TIP3    H269153   5.276   1.278   5.373  0.6221 -1.9282  0.0120
15888TIP3   OH269154   6.634   3.470  12.740 -0.2239  0.0269  0.0342
15888TIP3    H169155   6.540   3.457  12.748 -0.2156  0.0719  0.2174
15888TIP3    H269156   6.667   3.388  12.705 -0.3806  0.1528 -0.4156
15889TIP3   OH269157   0.633   6.403   1.348  0.7010  0.1450  0.4542
15889TIP3    H169158   0.716   6.406   1.395  1.1910 -1.5260 -0.2523
15889TIP3    H269159   0.594   6.319   1.371 -0.3406  0.4787  0.0002
15890TIP3   OH269160   5.278   4.494  11.897 -0.6417 -0.5758 -0.3062
15890TIP3    H169161   5.302   4.567  11.840  1.2114 -1.8885 -1.3188
15890TIP3    H269162   5.195   4.462  11.861 -0.6882  0.0809 -0.7978
15891TIP3   OH269163   0.198   6.787   0.092  0.2304  0.1115 -0.3077
15891TIP3    H169164   0.221   6.871   0.051  3.3580  1.3844  3.4101
15891TIP3    H269165   0.111   6.802   0.127  0.9840  2.2217  0.8925
15892TIP3   OH269166   1.630   5.933   0.921 -0.0887 -0.0054 -0.1300
15892TIP3    H169167   1.558   5.913   0.981 -0.6750  1.7355 -0.1904
15892TIP3    H269168   1.633   5.859   0.861 -0.6137 -0.9745  1.0024
15893TIP3   OH269169   1.443   3.166   5.247 -0.3500 -0.2383  0.2235
15893TIP3    H169170   1.483   3.190   5.164 -0.0103 -0.7384  0.2382
15893TIP3    H269171   1.517   3.147   5.305 -0.5833  0.1261  0.6481
15894TIP3   OH269172   5.418   1.634   1.912 -0.1948 -0.2176 -0.1391
15894TIP3    H169173   5.460   1.655   1.828 -0.8702 -1.2581 -0.7568
15894TIP3    H269174   5.370   1.553   1.895 -0.3507 -0.4311  1.2621
15895TIP3   OH269175   5.716   0.329   1.558  0.7005  0.3587 -0.2012
15895TIP3    H169176   5.780   0.264   1.527  0.3798 -0.3957  0.6877
15895TIP3    H269177   5.770   0.399   1.595  1.0292 -0.3688  0.7345
15896TIP3   OH269178   1.390   1.826  11.799  0.3827  0.0172  0.0501
15896TIP3    H169179   1.382   1.896  11.734 -0.4353 -0.5254 -0.4586
15896TIP3    H269180   1.337   1.856  11.873 -0.3543 -0.2590 -0.3558
15897TIP3   OH269181   1.280   2.395   0.770 -0.0133  0.2719  0.3152
15897TIP3    H169182   1.208   2.436   0.817 -0.0307 -1.2213  1.6849
15897TIP3    H269183   1.354   2.455   0.783 -0.3576  0.5327  1.1359
15898TIP3   OH269184   6.681   1.577  11.508 -0.4117  0.0027 -0.1109
15898TIP3    H169185   6.689   1.611  11.597  0.8413  3.5019 -1.3955
15898TIP3    H269186   6.588   1.583  11.488 -0.6392 -0.3769  0.7639
15899TIP3   OH269187   0.963   0.081   4.049 -0.9591  0.4013 -0.4114
15899TIP3    H169188   0.924   0.168   4.045  2.7538  2.4006  1.2519
15899TIP3    H269189   0.934   0.045   4.133 -0.3588  1.2565  0.1734
15900TIP3   OH269190   1.251   5.380   2.003 -0.3986 -0.1672 -0.1550
15900TIP3    H169191   1.183   5.441   1.974  0.7052  0.5046 -1.4650
15900TIP3    H269192   1.241   5.305   1.945 -1.5473 -1.1646  1.2476
15901TIP3   OH269193   5.316   3.306   5.812 -0.0644  0.1789 -0.0733
15901TIP3    H169194   5.286   3.216   5.799 -1.3233  0.7484 -1.3473
15901TIP3    H269195   5.243   3.350   5.855  0.5637  0.6091  0.5865
15902TIP3   OH269196   3.448   3.667  12.114 -0.1312  0.5482 -0.3660
15902TIP3    H169197   3.446   3.757  12.148  1.6136  0.1759  0.8695
15902TIP3    H269198   3.396   3.617  12.177 -0.1559  0.5103 -0.4174
15903TIP3   OH269199   0.077   1.463   1.335  0.0182 -0.1810 -0.0329
15903TIP3    H169200   0.118   1.539   1.293 -2.0120  1.3097  0.5439
15903TIP3    H269201  -0.012   1.462   1.301 -0.0052 -2.3785 -0.0455
15904TIP3   OH269202   6.195   4.815  12.490 -0.0012  0.4829  0.4228
15904TIP3    H169203   6.283   4.831  12.523 -0.1042 -0.0921  0.9884
15904TIP3    H269204   6.138   4.864  12.549 -0.0800  0.7161  0.1585
15905TIP3   OH269205   6.622   4.099  11.724 -0.1109  0.5206  0.2217
15905TIP3    H169206   6.543   4.116  11.672  1.6233  1.4778 -2.2946
15905TIP3    H269207   6.680   4.051  11.664  0.9371 -0.9481  2.2792
15906TIP3   OH269208   4.147   3.052  15.242  0.0834 -0.1182  0.0932
15906TIP3    H169209   4.104   3.088  15.320  0.6736 -0.7862  0.7403
15906TIP3    H269210   4.239   3.072  15.253  0.6143 -2.6372  0.9943
15907TIP3   OH269211   5.696   1.710   3.112  0.2355 -0.0158  0.1453
15907TIP3    H169212   5.699   1.776   3.044  0.1132  0.0159  0.1705
15907TIP3    H269213   5.774   1.726   3.165 -0.4443  0.9051  0.8939
15908TIP3   OH269214   1.991   4.092   4.724 -0.1098 -0.4783 -0.7462
15908TIP3    H169215   1.949   4.007   4.712 -0.0592 -0.2221 -3.1548
15908TIP3    H269216   2.084   4.072   4.735  0.2636 -0.6979 -3.6633
15909TIP3   OH269217   0.159   0.595   2.552  0.5382  0.5855 -0.1205
15909TIP3    H169218   0.074   0.553   2.543  0.2768  0.7994  1.2022
15909TIP3    H269219   0.201   0.583   2.466  0.7625 -2.9146  0.3410
15910TIP3   OH269220   0.433   2.601   1.316  0.2820  0.5084  0.1005
15910TIP3    H169221   0.404   2.509   1.318  0.4246  0.3238 -2.5379
15910TIP3    H269222   0.361   2.647   1.273  0.1436  1.7210  1.5568
15911TIP3   OH269223   5.573   6.379   4.233 -0.2201  0.5071 -0.3665
15911TIP3    H169224   5.486   6.357   4.265 -0.9146  3.0609 -0.2879
15911TIP3    H269225   5.630   6.368   4.309 -0.5850 -0.4829 -0.2271
15912TIP3   OH269226   4.069   4.571   1.023 -0.6049 -0.2648  0.4537
15912TIP3    H169227   4.003   4.503   1.036 -0.8183  0.0649  1.0969
15912TIP3    H269228   4.038   4.646   1.074 -0.7238  0.5637 -0.7721
15913TIP3   OH269229   5.100   2.650   5.048 -0.3621 -0.7501  0.3570
15913TIP3    H169230   5.060   2.718   4.994  0.6247 -0.1526  0.3493
15913TIP3    H269231   5.027   2.597   5.079 -1.1879  0.5184  0.6368
15914TIP3   OH269232   1.290   1.629  16.926 -0.2229  0.3238 -0.0724
15914TIP3    H169233   1.355   1.679  16.976 -0.3049  1.0896 -0.7128
15914TIP3    H269234   1.236   1.696  16.883 -1.3607 -0.2978  0.3473
15915TIP3   OH269235   0.494   0.322  11.315 -0.4993 -0.5503 -0.1064
15915TIP3    H169236   0.511   0.287  11.228 -0.2053 -0.4001 -0.1113
15915TIP3    H269237   0.444   0.402  11.300  0.3878 -0.0042 -0.1905
15916TIP3   OH269238   0.383   4.262  13.267  0.5524  0.3206 -0.1485
15916TIP3    H169239   0.346   4.206  13.335  0.7596 -0.5427 -0.7302
15916TIP3    H269240   0.477   4.262  13.285  0.2742  3.6133  2.1588
15917TIP3   OH269241   3.649   5.604   3.254 -0.3764  0.1929  0.2341
15917TIP3    H169242   3.566   5.568   3.222 -0.0229  0.6096 -1.2088
15917TIP3    H269243   3.708   5.528   3.257  0.4625  0.5738 -3.1121
15918TIP3   OH269244   2.019   4.185  11.797 -0.4103  0.1413 -0.5844
15918TIP3    H169245   1.983   4.232  11.872  0.9974 -0.5964  0.5921
15918TIP3    H269246   2.064   4.109  11.834  1.3964  0.4095 -2.0455
15919TIP3   OH269247   3.286   1.435  10.914 -0.3589 -0.3180  0.1815
15919TIP3    H169248   3.377   1.462  10.925 -0.6902  0.4363  1.1057
15919TIP3    H269249   3.266   1.386  10.993 -0.6828 -0.7180 -0.1435
15920TIP3   OH269250   1.140   4.242   6.284  0.2590  0.1718  0.3406
15920TIP3    H169251   1.098   4.227   6.199  1.8349 -0.5131 -0.3550
15920TIP3    H269252   1.089   4.189   6.346 -1.0471  0.8558 -0.1024
15921TIP3   OH269253   5.908   6.479  13.088 -0.3980 -0.3724 -0.3724
15921TIP3    H169254   5.894   6.485  12.993  2.0244  1.3299 -0.7041
15921TIP3    H269255   5.825   6.509  13.126 -0.7137  0.9198 -1.9732
15922TIP3   OH269256   0.194   5.485   6.265 -0.0126 -0.1452  0.8609
15922TIP3    H169257   0.204   5.391   6.248 -0.2646 -0.3845  2.0059
15922TIP3    H269258   0.218   5.526   6.182 -1.5254 -1.2826 -0.1817
15923TIP3   OH269259   4.505   0.690  15.186  0.5288  0.1352  0.3246
15923TIP3    H169260   4.430   0.636  15.213  0.8471 -0.7221 -0.4547
15923TIP3    H269261   4.497   0.770  15.238  0.0068 -0.6305  1.4579
15924TIP3   OH269262   4.947   2.762  15.901 -0.7129 -0.0851  0.1579
15924TIP3    H169263   4.916   2.736  15.988 -3.5288  0.8923 -0.4354
15924TIP3    H269264   4.932   2.685  15.846  0.3354 -0.4390  0.3406
15925TIP3   OH269265   1.395   0.423   2.961  0.0384  0.5636  0.1711
15925TIP3    H169266   1.443   0.430   3.043  0.0564  1.0653  0.1198
15925TIP3    H269267   1.455   0.458   2.895  1.6387 -3.3261 -0.7325
15926TIP3   OH269268   3.458   1.029   0.312 -0.8763 -0.0027  0.2426
15926TIP3    H169269   3.377   1.020   0.262 -0.1233 -1.3527 -0.8033
15926TIP3    H269270   3.519   0.970   0.269  1.8936  3.7223 -1.4444
15927TIP3   OH269271   3.487   2.921  15.220 -0.2951  0.3922 -0.6879
15927TIP3    H169272   3.415   2.939  15.160  0.7860 -1.2636 -2.6520
15927TIP3    H269273   3.566   2.939  15.168  0.7390  1.3577  1.1141
15928TIP3   OH269274   3.801   5.042  14.452 -0.1717  0.0641 -0.5227
15928TIP3    H169275   3.758   5.127  14.444  1.3763  0.8043 -1.6343
15928TIP3    H269276   3.733   4.978  14.431 -1.5783  0.9429  1.1646
15929TIP3   OH269277   5.460   2.683   0.112 -0.5788 -0.4151 -0.3877
15929TIP3    H169278   5.456   2.700   0.206  2.6096 -0.6463 -0.1211
15929TIP3    H269279   5.422   2.762   0.072 -1.8845 -0.2677  1.0480
15930TIP3   OH269280   2.048   5.946   4.346  0.0713 -0.4277  0.2813
15930TIP3    H169281   2.124   5.947   4.405 -1.4816 -0.3476  2.3929
15930TIP3    H269282   2.055   5.862   4.300  1.3721 -0.4590  0.4967
15931TIP3   OH269283   2.358   6.029   2.493 -0.1353  0.4507  0.2444
15931TIP3    H169284   2.396   5.942   2.478  0.0396  0.2254  1.8083
15931TIP3    H269285   2.267   6.011   2.517 -0.9891  0.9216 -2.3058
15932TIP3   OH269286   5.470   2.672  12.299 -0.6288  0.0676 -0.5040
15932TIP3    H169287   5.491   2.668  12.393  1.6567  0.5325 -0.9367
15932TIP3    H269288   5.381   2.635  12.293 -0.7809 -0.1151  1.8057
15933TIP3   OH269289   2.375   1.724  15.412 -0.1375 -0.0430 -0.2335
15933TIP3    H169290   2.372   1.714  15.317 -0.2870  0.0711 -0.2413
15933TIP3    H269291   2.458   1.769  15.429  0.6553 -1.4601 -0.1811
15934TIP3   OH269292   3.687   4.700  14.941  0.0141  0.0379 -0.3513
15934TIP3    H169293   3.755   4.636  14.960 -1.2634 -0.8643  1.5258
15934TIP3    H269294   3.705   4.730  14.852  1.6525 -1.6431 -0.6308
15935TIP3   OH269295   5.429   1.963   3.822 -0.2701  0.0287 -0.0474
15935TIP3    H169296   5.416   1.893   3.885  0.3559 -0.4723 -0.4611
15935TIP3    H269297   5.447   1.918   3.739 -1.0718  0.6664 -0.5966
15936TIP3   OH269298   4.912   1.368  14.245  0.0336  0.0209 -0.1291
15936TIP3    H169299   4.946   1.278  14.243  0.3663  0.1502 -0.3745
15936TIP3    H269300   4.859   1.372  14.325  0.2078 -0.3254  0.0063
15937TIP3   OH269301   6.578   0.302   1.714  0.2146 -0.4066  0.3592
15937TIP3    H169302   6.643   0.371   1.700 -1.6993  1.6777  1.2780
15937TIP3    H269303   6.544   0.283   1.627 -1.9520  2.6973  0.3740
15938TIP3   OH269304   0.306   3.277   0.684 -0.6584 -0.9341  0.4608
15938TIP3    H169305   0.269   3.221   0.616 -0.0106 -1.7956  0.7957
15938TIP3    H269306   0.304   3.365   0.647 -1.6695 -1.1734 -0.0879
15939TIP3   OH269307   3.267   3.008  13.644 -0.3832  0.0884  0.2805
15939TIP3    H169308   3.330   2.967  13.585 -0.7316 -1.3264  0.8648
15939TIP3    H269309   3.285   3.102  13.636 -0.1777 -0.0785 -1.7852
15940TIP3   OH269310   6.594   6.080  16.411  0.2612  0.5656 -0.1175
15940TIP3    H169311   6.595   6.024  16.333  2.3127  0.2029  0.1233
15940TIP3    H269312   6.505   6.115  16.413  0.0815  0.4591 -2.5329
15941TIP3   OH269313   1.680   3.559  16.529  0.7336  0.2696 -0.1767
15941TIP3    H169314   1.687   3.481  16.584  1.6206  0.3632 -0.1458
15941TIP3    H269315   1.590   3.557  16.495  0.8085 -0.8677 -0.3332
15942TIP3   OH269316   5.835   3.804   5.679  0.1877  0.0197  0.3561
15942TIP3    H169317   5.804   3.854   5.603  1.3355 -1.4864 -1.1960
15942TIP3    H269318   5.782   3.724   5.679  0.0756  0.0869  1.2699
15943TIP3   OH269319   0.914   6.501  13.941  0.2249  0.4868  0.2168
15943TIP3    H169320   0.848   6.553  13.986 -0.6473 -0.1338 -0.3254
15943TIP3    H269321   0.978   6.480  14.009  0.4704  2.0330  0.5067
15944TIP3   OH269322   5.339   5.288   1.640 -0.6046  0.5797 -0.3258
15944TIP3    H169323   5.381   5.235   1.572  0.7784  0.0035  0.9022
15944TIP3    H269324   5.380   5.374   1.632  1.1112 -0.0418  1.0131
15945TIP3   OH269325   3.258   5.775  15.816 -0.3453 -0.3145  0.6108
15945TIP3    H169326   3.264   5.780  15.911 -0.6956 -0.0879  0.6232
15945TIP3    H269327   3.274   5.865  15.786 -1.2980 -0.1684  0.5202
15946TIP3   OH269328   5.437   1.610   6.533  0.0687 -0.3800 -0.4073
15946TIP3    H169329   5.452   1.523   6.571  1.9121  0.0476 -0.0520
15946TIP3    H269330   5.504   1.665   6.572  1.0686  0.4517 -3.0656
15947TIP3   OH269331   4.636   6.369   1.642  0.3161  0.0902 -0.8559
15947TIP3    H169332   4.605   6.431   1.709  0.6251 -0.5967 -0.0635
15947TIP3    H269333   4.626   6.417   1.559  0.1835  1.0570 -0.3001
15948TIP3   OH269334   4.228   4.479  13.355  0.0140 -0.0191  0.3317
15948TIP3    H169335   4.211   4.469  13.449  0.0500 -0.7169  0.2710
15948TIP3    H269336   4.269   4.396  13.330  0.2562  0.2726 -0.2460
15949TIP3   OH269337   0.552   5.972  11.975 -0.0953  0.0678  0.0176
15949TIP3    H169338   0.528   5.991  11.885 -0.6058  1.1845  0.3807
15949TIP3    H269339   0.612   5.897  11.968 -0.9069 -0.5083 -1.1575
15950TIP3   OH269340   3.687   0.323  13.050  0.4812  0.0080 -0.0079
15950TIP3    H169341   3.725   0.411  13.055  1.1040 -0.3213  1.8974
15950TIP3    H269342   3.759   0.267  13.023  0.2408 -0.0161 -0.6125
15951TIP3   OH269343   3.447   4.025  10.732 -0.0258  0.7192 -0.4380
15951TIP3    H169344   3.389   4.081  10.681 -0.3750 -1.0882 -2.1395
15951TIP3    H269345   3.391   3.987  10.799 -0.9093 -0.9865 -2.0465
15952TIP3   OH269346   3.165   3.066  12.556  0.7014 -0.1784  0.3947
15952TIP3    H169347   3.251   3.106  12.544  0.8157 -0.7718 -0.8587
15952TIP3    H269348   3.161   2.997  12.490 -1.9854  1.8823 -1.8294
15953TIP3   OH269349   0.239   3.599  10.900 -0.1574  0.7349 -0.0056
15953TIP3    H169350   0.265   3.607  10.808  1.4184  1.7042  0.4666
15953TIP3    H269351   0.208   3.509  10.909  2.1236 -0.2301 -0.9566
15954TIP3   OH269352   5.139   4.399  16.187 -0.2866 -0.3927  0.4903
15954TIP3    H169353   5.053   4.426  16.218 -0.0701  0.9729 -0.0341
15954TIP3    H269354   5.121   4.328  16.126 -1.3362  1.6580 -1.7608
15955TIP3   OH269355   6.029   3.634   4.908  0.4130  0.3297  0.6033
15955TIP3    H169356   6.043   3.603   4.819 -1.1410  2.3366 -0.3956
15955TIP3    H269357   6.117   3.653   4.941  1.0191 -0.6379 -0.4015
15956TIP3   OH269358   0.643   6.011   1.743  0.0657  0.2591  0.1657
15956TIP3    H169359   0.615   5.989   1.654  1.2748  1.8850 -0.6843
15956TIP3    H269360   0.623   6.104   1.752  1.8868  0.6404  0.7765
15957TIP3   OH269361   1.868   5.256   0.462 -0.5302 -0.2979 -0.0949
15957TIP3    H169362   1.802   5.230   0.398 -0.3482 -0.2997 -0.2801
15957TIP3    H269363   1.819   5.265   0.544 -0.9078  0.4412 -0.3913
15958TIP3   OH269364   1.004   5.389  12.414 -0.5553  0.0611  0.9502
15958TIP3    H169365   0.941   5.458  12.433 -0.8637 -0.1858  0.8436
15958TIP3    H269366   1.087   5.422  12.447 -0.6928  0.4963  0.8706
15959TIP3   OH269367   4.963   3.806   0.749 -0.2558  0.4476  0.3107
15959TIP3    H169368   4.878   3.800   0.794 -0.8501 -0.1252 -0.8401
15959TIP3    H269369   5.012   3.871   0.799 -1.7167  1.4851  0.4657
15960TIP3   OH269370   3.956   3.669   3.736 -0.3199 -0.0132 -0.2447
15960TIP3    H169371   4.030   3.629   3.691 -1.3610 -1.1118 -1.0889
15960TIP3    H269372   3.883   3.658   3.674 -1.7027 -1.1079  1.4892
15961TIP3   OH269373   4.349   5.074   2.815 -0.1202  0.3708 -0.1566
15961TIP3    H169374   4.431   5.110   2.847 -0.2091  1.6510 -1.3124
15961TIP3    H269375   4.283   5.139   2.838 -0.5826  0.0621 -0.5868
15962TIP3   OH269376   6.244   2.835   2.178  1.1144  0.3360 -0.3553
15962TIP3    H169377   6.300   2.767   2.216 -0.3343  0.3562  2.0816
15962TIP3    H269378   6.163   2.831   2.230  0.6862  3.4263 -0.5855
15963TIP3   OH269379   6.787   0.140   1.470 -0.2572  0.0067 -0.0296
15963TIP3    H169380   6.693   0.155   1.484 -0.3805  1.0058 -1.6990
15963TIP3    H269381   6.791   0.058   1.421 -0.1876 -0.4251  0.6781
15964TIP3   OH269382   2.792   5.841  11.218 -0.9884 -0.1393  0.2780
15964TIP3    H169383   2.845   5.773  11.176  1.6181  1.0515  1.4312
15964TIP3    H269384   2.766   5.899  11.146 -1.6037 -1.2551 -0.4324
15965TIP3   OH269385   5.908   2.086  13.335 -0.5558 -0.3873 -0.3574
15965TIP3    H169386   5.832   2.081  13.277  0.5665 -0.3581 -1.8866
15965TIP3    H269387   5.975   2.132  13.284  0.7277 -1.0201  0.6842
15966TIP3   OH269388   1.578   1.337   3.639  0.0453  0.2501  0.2321
15966TIP3    H169389   1.531   1.281   3.701  0.0304  2.4575  2.3279
15966TIP3    H269390   1.654   1.368   3.686  1.3298  0.1995 -1.6812
15967TIP3   OH269391   6.439   6.458   0.235 -0.2266  0.2750  0.3854
15967TIP3    H169392   6.499   6.383   0.239 -0.3973  0.0760 -0.5231
15967TIP3    H269393   6.495   6.534   0.251 -0.0081 -0.0221  1.0609
15968TIP3   OH269394   6.740   3.386  13.621 -0.0651  0.2750  0.6820
15968TIP3    H169395   6.680   3.370  13.548  0.9965 -0.7545 -0.0079
15968TIP3    H269396   6.736   3.305  13.673  0.6943  0.2005  0.6365
15969TIP3   OH269397   2.977   3.226  12.205  0.0931  0.1606 -0.5315
15969TIP3    H169398   2.951   3.318  12.195 -0.5397 -0.0582 -1.0576
15969TIP3    H269399   3.072   3.227  12.204  0.0922  0.8523 -0.1363
15970TIP3   OH269400   1.327   3.890  14.447  0.1113 -0.0089  0.1239
15970TIP3    H169401   1.333   3.817  14.385 -0.7567  0.1161 -0.1189
15970TIP3    H269402   1.240   3.882  14.485  0.3836  0.3261  0.8300
15971TIP3   OH269403   3.489   0.222   1.702  0.2597 -0.0066  0.6397
15971TIP3    H169404   3.583   0.223   1.683  0.2125  0.1738  0.4130
15971TIP3    H269405   3.457   0.307   1.671 -0.6869 -1.5014 -2.9118
15972TIP3   OH269406   4.402   3.391   5.038  0.0786  0.3191  0.0340
15972TIP3    H169407   4.325   3.345   5.005  1.2892 -1.2675 -0.6871
15972TIP3    H269408   4.436   3.440   4.964 -0.6275  1.6368  0.5449
15973TIP3   OH269409   4.149   0.754   1.860  0.0971 -0.4634 -0.3208
15973TIP3    H169410   4.241   0.779   1.872  0.1581 -1.2409  1.0639
15973TIP3    H269411   4.123   0.797   1.779  1.7568 -0.4323 -0.8783
15974TIP3   OH269412   6.500   1.555   2.429 -0.1448  0.2788 -0.5452
15974TIP3    H169413   6.553   1.479   2.454 -1.0722 -0.3269 -0.3752
15974TIP3    H269414   6.422   1.550   2.484 -1.7936 -0.5378 -2.8043
15975TIP3   OH269415   6.305   5.318  14.213  0.2334  0.6579  0.0348
15975TIP3    H169416   6.212   5.320  14.237  0.1091  0.8134 -0.4544
15975TIP3    H269417   6.309   5.256  14.140  0.1688  2.2481 -1.3806
15976TIP3   OH269418   3.497   3.057   0.531  0.0499  0.1302 -0.1491
15976TIP3    H169419   3.540   2.977   0.501  0.0342  0.1356 -0.1850
15976TIP3    H269420   3.566   3.107   0.574 -0.3577 -0.8608  1.7832
15977TIP3   OH269421   4.183   6.622  12.775  0.5085  0.1704 -0.0232
15977TIP3    H169422   4.202   6.610  12.682 -0.1192  0.0565 -0.1402
15977TIP3    H269423   4.189   6.534  12.812  1.5584  0.3258  0.2048
15978TIP3   OH269424   4.993   5.561  10.599  0.5004  0.1691 -0.1092
15978TIP3    H169425   4.928   5.623  10.632  0.2131 -0.0686 -0.2168
15978TIP3    H269426   4.942   5.498  10.548  0.9671  0.6483 -1.1826
15979TIP3   OH269427   2.370   2.046  16.296 -0.6015  1.1311  0.0704
15979TIP3    H169428   2.424   2.046  16.218  0.7799  2.0151  0.9834
15979TIP3    H269429   2.410   2.111  16.354 -0.5795 -0.6324  2.1850
15980TIP3   OH269430   4.587   4.865  15.797  0.3911 -0.5892 -0.6892
15980TIP3    H169431   4.558   4.836  15.710  0.4069 -2.3520 -0.1527
15980TIP3    H269432   4.523   4.931  15.823  0.4008 -0.0067 -2.0385
15981TIP3   OH269433   3.284   0.910   2.272  0.4044  0.6489  0.4535
15981TIP3    H169434   3.353   0.971   2.246  1.6999 -1.0871 -0.4386
15981TIP3    H269435   3.327   0.849   2.332 -0.7579  0.4206  1.0785
15982TIP3   OH269436   5.339   4.519   1.383 -0.2164  0.1621 -0.3025
15982TIP3    H169437   5.360   4.469   1.304 -0.1914 -0.1819 -0.0804
15982TIP3    H269438   5.260   4.568   1.361 -0.3210 -0.0831 -0.4744
15983TIP3   OH269439   6.142   6.110   4.249  0.0708  0.4824 -0.1347
15983TIP3    H169440   6.115   6.132   4.339 -1.3161 -0.2804 -0.3346
15983TIP3    H269441   6.233   6.082   4.258  0.2052  1.1955  0.9086
15984TIP3   OH269442   0.310   6.667  11.033 -0.0854  0.4611 -0.0536
15984TIP3    H169443   0.327   6.573  11.024  0.3109  0.5760 -0.5636
15984TIP3    H269444   0.335   6.704  10.948  0.5926  1.1470  0.4327
15985TIP3   OH269445   4.316   0.471  10.808 -0.3704  0.0533 -0.6695
15985TIP3    H169446   4.334   0.450  10.899  2.4216 -0.8581 -1.3341
15985TIP3    H269447   4.306   0.386  10.765  0.6255  0.3731 -1.5833
15986TIP3   OH269448   0.868   4.677   4.906 -0.1497 -0.0528 -0.0028
15986TIP3    H169449   0.918   4.595   4.905 -1.4193 -0.8496 -0.7471
15986TIP3    H269450   0.815   4.673   4.827 -0.0195  1.6556 -0.2002
15987TIP3   OH269451   1.848   1.689   3.812 -0.0139  0.3709 -0.3452
15987TIP3    H169452   1.926   1.715   3.860 -1.0264  0.2782  1.4778
15987TIP3    H269453   1.813   1.770   3.776  1.7711  0.2128 -2.6836
15988TIP3   OH269454   4.704   0.745   0.029  0.6012 -1.0452 -0.2653
15988TIP3    H169455   4.698   0.839   0.048  0.3133 -1.1625  0.2368
15988TIP3    H269456   4.779   0.714   0.080  1.0360 -0.9933 -0.8506
15989TIP3   OH269457   4.212   1.286   1.107  0.4008 -0.1961  0.3514
15989TIP3    H169458   4.289   1.270   1.161  0.0041  0.9033  1.2889
15989TIP3    H269459   4.243   1.342   1.036  0.8220 -1.2435 -0.3088
15990TIP3   OH269460   6.500   5.475  11.649 -0.2429  0.5142  0.8949
15990TIP3    H169461   6.506   5.498  11.742  2.8721  0.1620  0.8859
15990TIP3    H269462   6.569   5.526  11.607 -1.6093  0.6828 -1.2850
15991TIP3   OH269463   6.263   1.756  13.661 -0.0072  1.0997 -0.3334
15991TIP3    H169464   6.335   1.697  13.680 -0.2832  0.8689  0.0151
15991TIP3    H269465   6.302   1.826  13.608  0.1813  0.2678 -1.3118
15992TIP3   OH269466   0.891   3.194  16.957  0.0815 -0.5589  0.2142
15992TIP3    H169467   0.897   3.136  16.882 -2.5641 -1.4192  0.5658
15992TIP3    H269468   0.923   3.142  17.031 -0.5036 -0.9152  0.2201
15993TIP3   OH269469   5.829   0.157   6.703  0.0712  0.3861  0.2629
15993TIP3    H169470   5.734   0.150   6.694  0.1460 -0.9504  0.2306
15993TIP3    H269471   5.842   0.226   6.767 -0.9394  0.3737  0.4995
15994TIP3   OH269472   1.392   1.963  16.933 -0.5163  0.0165  0.2439
15994TIP3    H169473   1.475   2.002  16.904 -0.5250 -0.2230 -0.1129
15994TIP3    H269474   1.402   1.953  17.027  0.6119 -1.7449 -0.0274
15995TIP3   OH269475   0.862   0.882  11.050 -0.6292  0.1112 -0.0257
15995TIP3    H169476   0.815   0.961  11.077 -1.9284 -0.3420 -0.8672
15995TIP3    H269477   0.856   0.883  10.954  1.2140  0.0939 -0.1788
15996TIP3   OH269478   0.547   1.430  16.102  0.2175  0.0829 -0.1532
15996TIP3    H169479   0.537   1.341  16.070 -1.1805  0.6794 -1.5042
15996TIP3    H269480   0.641   1.441  16.114  0.3481 -1.8119  0.8443
15997TIP3   OH269481   0.536   6.346  15.367 -0.2980 -0.2654  0.1057
15997TIP3    H169482   0.522   6.375  15.457 -1.2169 -1.5143  0.3867
15997TIP3    H269483   0.630   6.357  15.353 -0.2549  0.6268  0.9521
15998TIP3   OH269484   5.781   5.431  11.045 -0.3311  0.0325 -0.0048
15998TIP3    H169485   5.824   5.498  11.098 -0.7664 -1.0685  1.8454
15998TIP3    H269486   5.712   5.397  11.101  0.3520 -2.4749 -0.5505
15999TIP3   OH269487   2.598   1.230   0.145  0.1961  0.1950  0.8931
15999TIP3    H169488   2.537   1.167   0.184 -3.5547  2.9248 -0.0452
15999TIP3    H269489   2.574   1.314   0.182  0.2816  2.0808 -2.8309
16000TIP3   OH269490   0.508   5.857   3.772 -0.0164  0.3127 -0.3850
16000TIP3    H169491   0.597   5.841   3.741  0.4793 -1.1566  1.6157
16000TIP3    H269492   0.479   5.773   3.805 -1.3914  1.2219  0.8467
16001TIP3   OH269493   0.512   6.727   5.660 -0.0533 -0.0455  0.1574
16001TIP3    H169494   0.536   6.654   5.717  0.5619 -0.2199 -0.3199
16001TIP3    H269495   0.458   6.688   5.592  1.5809 -0.3603 -1.0042
16002TIP3   OH269496   3.932   4.569   1.417  0.3154 -0.2983 -0.0492
16002TIP3    H169497   3.876   4.512   1.470  1.2006 -1.3257 -0.1930
16002TIP3    H269498   3.962   4.514   1.345  0.2674  0.6861 -0.8504
16003TIP3   OH269499   2.760   4.735   0.226 -0.1978 -0.2065 -0.0430
16003TIP3    H169500   2.688   4.725   0.288 -1.8018 -1.7735 -2.0169
16003TIP3    H269501   2.826   4.671   0.255 -0.5327 -0.3036  0.5179
16004TIP3   OH269502   1.809   3.283   0.854  0.2504 -0.0836  0.2996
16004TIP3    H169503   1.882   3.236   0.893 -0.4590 -1.9247 -0.4665
16004TIP3    H269504   1.798   3.243   0.768 -0.9217  0.9594 -0.0689
16005TIP3   OH269505   2.407   0.207   1.383 -0.1458 -0.3235  0.1313
16005TIP3    H169506   2.416   0.287   1.435 -2.6499  0.2019 -0.1072
16005TIP3    H269507   2.366   0.144   1.442 -3.0992  0.2999 -1.0438
16006TIP3   OH269508   2.917   2.074  17.007  0.2826  0.4817  0.4392
16006TIP3    H169509   2.833   2.113  16.985  0.9252  0.3172 -2.6757
16006TIP3    H269510   2.974   2.149  17.025 -0.0255  0.6620  0.6802
16007TIP3   OH269511   5.947   2.617   1.884 -0.3726  0.3383 -0.1498
16007TIP3    H169512   5.994   2.640   1.804  0.8262 -3.4266 -0.7416
16007TIP3    H269513   5.870   2.674   1.884  1.3014  2.8413 -2.0915
16008TIP3   OH269514   0.173   1.358  12.837 -0.1009  0.7340  0.3288
16008TIP3    H169515   0.177   1.450  12.862 -1.2072  0.7265  0.5796
16008TIP3    H269516   0.211   1.355  12.749 -1.8299  1.7558 -0.5023
16009TIP3   OH269517   4.302   4.059  16.786 -0.4736 -0.5100  0.0834
16009TIP3    H169518   4.377   4.041  16.729  0.6391 -0.4970  1.5010
16009TIP3    H269519   4.264   4.140  16.751  1.6261  0.8370  0.7315
16010TIP3   OH269520   5.918   3.468   4.319  0.2005  0.1071  0.6830
16010TIP3    H169521   5.924   3.447   4.226 -3.1018 -0.0071  0.3877
16010TIP3    H269522   5.895   3.561   4.321  1.3613  0.3960  1.4717
16011TIP3   OH269523   4.596   2.050   1.883  0.1048 -0.7845 -0.4634
16011TIP3    H169524   4.530   2.086   1.823 -0.5289 -0.8589  0.1761
16011TIP3    H269525   4.659   2.122   1.895 -1.2589  0.2321  0.9773
16012TIP3   OH269526   5.270   0.032  16.274 -0.2456  0.2815 -0.0928
16012TIP3    H169527   5.206   0.075  16.331 -1.3202 -1.1568 -0.1482
16012TIP3    H269528   5.303   0.102  16.219  0.5885  1.6702  2.0358
16013TIP3   OH269529   4.790   1.245   3.070 -0.4412  0.4398  0.0681
16013TIP3    H169530   4.793   1.192   3.150 -2.4644 -0.1567 -0.1861
16013TIP3    H269531   4.751   1.328   3.099 -2.0379 -0.1033 -0.3968
16014TIP3   OH269532   4.609   5.689   3.608 -0.3808  0.4278 -0.0060
16014TIP3    H169533   4.555   5.766   3.622  1.0326  1.1743  1.7141
16014TIP3    H269534   4.625   5.654   3.696  2.4204  0.6279 -0.3447
16015TIP3   OH269535   1.872   1.832  10.960 -0.2034 -0.1407 -0.2187
16015TIP3    H169536   1.847   1.743  10.936 -0.8944  0.2708 -1.0816
16015TIP3    H269537   1.826   1.848  11.043 -0.3222 -0.4748 -0.2168
16016TIP3   OH269538   1.889   4.620  13.984  0.0087  0.5219  0.1022
16016TIP3    H169539   1.978   4.583  13.980 -0.9033 -1.7452 -0.6562
16016TIP3    H269540   1.871   4.631  14.077  0.7635  0.1619  0.2982
16017TIP3   OH269541   4.993   1.696  16.608  0.2505 -0.7186  0.1926
16017TIP3    H169542   5.014   1.614  16.653 -0.4310 -0.8873  0.2127
16017TIP3    H269543   5.051   1.760  16.648  0.1011 -0.9956  0.8686
16018TIP3   OH269544   2.882   3.961   5.712 -0.3185 -0.3103 -0.0623
16018TIP3    H169545   2.788   3.977   5.700  0.2301  1.3603 -2.8655
16018TIP3    H269546   2.894   3.964   5.807 -3.1768 -1.3058  0.4475
16019TIP3   OH269547   3.516   5.883   1.744  0.4562 -0.0658 -0.5063
16019TIP3    H169548   3.467   5.825   1.802  0.3741 -0.8574 -1.3414
16019TIP3    H269549   3.602   5.842   1.736  0.7309  0.4651 -0.3180
16020TIP3   OH269550   6.127   0.416   3.125  0.4072 -0.5722  0.3864
16020TIP3    H169551   6.054   0.403   3.065 -1.4214  2.4110  1.7592
16020TIP3    H269552   6.136   0.332   3.171 -1.2155 -1.4284 -0.7768
16021TIP3   OH269553   2.615   6.452  10.740 -0.0200 -0.1785  0.0989
16021TIP3    H169554   2.670   6.380  10.770 -0.3759 -0.3603  0.3226
16021TIP3    H269555   2.588   6.426  10.651 -0.9665 -0.8065  0.5511
16022TIP3   OH269556   0.491   1.565   5.445 -0.0604 -0.2020 -0.1300
16022TIP3    H169557   0.463   1.517   5.522  1.7962  1.3150  1.5930
16022TIP3    H269558   0.585   1.551   5.440  0.2447  1.7107 -0.6433
16023TIP3   OH269559   3.001   3.388   4.436 -0.4775  0.7287 -0.6722
16023TIP3    H169560   2.932   3.329   4.405 -1.3556  0.0255  2.3169
16023TIP3    H269561   2.954   3.469   4.459 -0.1368  0.6843  0.2079
16024TIP3   OH269562   3.549   1.868  13.076  0.3929 -0.4128 -0.2913
16024TIP3    H169563   3.577   1.790  13.028 -0.0640 -0.8272  0.1069
16024TIP3    H269564   3.568   1.847  13.168 -0.2444 -0.2792 -0.1256
16025TIP3   OH269565   1.850   2.282  13.393  0.2448 -0.1369  0.1317
16025TIP3    H169566   1.814   2.249  13.311  1.7318  0.4315 -0.7750
16025TIP3    H269567   1.928   2.229  13.408 -1.2710 -1.9455  2.5206
16026TIP3   OH269568   2.970   2.131   4.425 -0.1969  0.2930  0.1767
16026TIP3    H169569   2.932   2.045   4.406  0.3145  0.0307  0.3225
16026TIP3    H269570   2.948   2.184   4.348 -1.4898  0.3736  0.5773
16027TIP3   OH269571   3.781   2.669  16.815  0.1730 -0.3825 -0.2094
16027TIP3    H169572   3.716   2.687  16.747  0.3690  0.8433 -0.0981
16027TIP3    H269573   3.739   2.604  16.871  0.2251 -1.8562 -1.7826
16028TIP3   OH269574   5.431   4.514   0.799 -0.0011  0.4372  0.1461
16028TIP3    H169575   5.460   4.485   0.713  2.3762 -0.9426  1.3224
16028TIP3    H269576   5.413   4.608   0.788 -0.6511  0.1086 -2.0143
16029TIP3   OH269577   2.201   3.012   2.319 -0.2752 -0.3604  0.4809
16029TIP3    H169578   2.109   3.015   2.292  0.1403 -0.8483 -1.1363
16029TIP3    H269579   2.220   3.099   2.352 -1.9878 -0.9564  3.3447
16030TIP3   OH269580   6.683   1.541   1.181  0.5762 -0.4055 -0.3777
16030TIP3    H169581   6.597   1.505   1.205 -0.6351  2.4632  0.0244
16030TIP3    H269582   6.666   1.634   1.166  4.0890  0.9797  2.6487
16031TIP3   OH269583   1.546   2.793   4.583 -0.3238 -0.0222 -0.1052
16031TIP3    H169584   1.576   2.880   4.610  1.7459 -0.5403 -0.5659
16031TIP3    H269585   1.452   2.793   4.603 -0.6977  2.7820 -1.3387
16032TIP3   OH269586   4.756   1.618  17.111  0.0669  0.1728 -0.3390
16032TIP3    H169587   4.788   1.557  17.045  0.9666  0.0194  0.2260
16032TIP3    H269588   4.661   1.607  17.109 -0.1088  1.5228 -2.9026
16033TIP3   OH269589   2.410   5.061   2.535 -0.5431  0.4448  0.3940
16033TIP3    H169590   2.318   5.072   2.560 -1.0372 -1.0603 -0.6243
16033TIP3    H269591   2.413   5.086   2.442  0.0085  0.2166  0.3459
16034TIP3   OH269592   6.430   0.315  15.063  0.3657 -0.1686 -0.0749
16034TIP3    H169593   6.440   0.247  14.997 -1.4082 -1.3926  0.8729
16034TIP3    H269594   6.391   0.389  15.016 -3.7911 -2.0629  0.0677
16035TIP3   OH269595   4.730   2.358   2.352 -0.4596 -0.1322 -0.1356
16035TIP3    H169596   4.740   2.279   2.405 -1.4289  0.3049  0.7372
16035TIP3    H269597   4.726   2.429   2.416  3.0569  1.0075 -0.9547
16036TIP3   OH269598   2.908   2.692  15.712 -0.1378  0.3142  0.9653
16036TIP3    H169599   2.990   2.683  15.762  0.2768  0.4025  0.3082
16036TIP3    H269600   2.936   2.702  15.621 -0.9315 -1.5999  0.4615
16037TIP3   OH269601   5.200   0.989  15.992  0.5026  0.1492 -0.1201
16037TIP3    H169602   5.265   1.057  15.976  1.3185  0.0883  2.4665
16037TIP3    H269603   5.251   0.914  16.023 -0.5880 -0.8040 -0.5845
16038TIP3   OH269604   1.576   2.144  14.389 -0.0326 -0.0963 -0.7707
16038TIP3    H169605   1.632   2.121  14.315  0.7886 -0.0203 -0.1873
16038TIP3    H269606   1.518   2.069  14.400  0.3974 -0.4628 -0.9718
16039TIP3   OH269607   2.306   2.515   3.257  0.6463 -0.0830 -0.4980
16039TIP3    H169608   2.249   2.592   3.258  0.3903 -0.2381 -1.5822
16039TIP3    H269609   2.376   2.536   3.318 -0.0427  0.5257  0.0991
16040TIP3   OH269610   4.795   4.783   2.079  0.4325 -0.7587 -0.1729
16040TIP3    H169611   4.703   4.771   2.104  0.7340 -2.0466  0.4032
16040TIP3    H269612   4.812   4.876   2.093 -0.5330 -0.6851  0.5877
16041TIP3   OH269613   5.857   1.953  14.568  0.5316 -0.2428 -0.2242
16041TIP3    H169614   5.917   1.879  14.556 -0.4831 -1.2337  0.7429
16041TIP3    H269615   5.802   1.929  14.642  0.1108  1.4498  0.0605
16042TIP3   OH269616   2.636   1.098  13.947  0.6808 -0.0035  0.6840
16042TIP3    H169617   2.640   1.045  14.027 -0.7900  0.2180  0.9371
16042TIP3    H269618   2.725   1.099  13.914  1.4012  0.1772  2.5173
16043TIP3   OH269619   2.204   5.716  15.396 -0.0807 -0.9088 -0.2551
16043TIP3    H169620   2.109   5.726  15.392 -0.0632 -1.0301 -1.2605
16043TIP3    H269621   2.224   5.645  15.334  0.6615 -0.8711 -0.0746
16044TIP3   OH269622   5.453   1.222  13.075  1.0406  0.5200 -0.6227
16044TIP3    H169623   5.545   1.237  13.052  0.7021  2.7017 -0.7838
16044TIP3    H269624   5.407   1.300  13.043 -0.8461 -0.4158 -0.3521
16045TIP3   OH269625   5.711   1.223   3.270  0.2764  0.5559  0.8227
16045TIP3    H169626   5.655   1.241   3.346 -1.8466 -1.3382 -0.1811
16045TIP3    H269627   5.712   1.127   3.263 -0.0332  0.6999 -1.8433
16046TIP3   OH269628   4.921   3.088   4.083 -0.0514  0.6780 -0.4638
16046TIP3    H169629   4.849   3.149   4.062  0.2156  1.0088 -0.4346
16046TIP3    H269630   4.970   3.133   4.152  0.9799  1.0860 -1.4266
16047TIP3   OH269631   1.743   1.826   0.332 -0.4404  0.4038 -0.2032
16047TIP3    H169632   1.774   1.780   0.254 -1.8679 -0.9857 -0.0090
16047TIP3    H269633   1.820   1.873   0.365  0.6083 -0.3479 -1.4816
16048TIP3   OH269634   1.481   5.032   5.060  0.0836  0.0257 -0.3769
16048TIP3    H169635   1.422   5.107   5.072 -3.1441 -2.5188  1.3859
16048TIP3    H269636   1.492   5.025   4.965 -0.0081  2.3125 -0.6071
16049TIP3   OH269637   3.113   5.959  12.420 -0.0762  0.1192 -0.4284
16049TIP3    H169638   3.109   6.048  12.455  0.6985  0.5363 -1.3644
16049TIP3    H269639   3.041   5.954  12.358 -0.9617 -0.3645  0.6124
16050TIP3   OH269640   2.904   5.774   2.674 -0.7989 -0.2103  0.0698
16050TIP3    H169641   2.997   5.779   2.649 -0.5514 -0.2822  0.9335
16050TIP3    H269642   2.861   5.837   2.616  0.0350  0.9788  0.6702
16051TIP3   OH269643   5.935   1.408  10.689  0.0258  0.3873  0.3694
16051TIP3    H169644   5.922   1.347  10.616 -0.3423  1.0238 -0.1129
16051TIP3    H269645   5.864   1.471  10.680  0.2245  0.7134  1.0374
16052TIP3   OH269646   2.279   6.691  12.631 -0.4599  0.6419 -0.0516
16052TIP3    H169647   2.345   6.755  12.605  0.2084  0.0225  0.1089
16052TIP3    H269648   2.234   6.732  12.705 -2.2172  2.3122 -1.9362
16053TIP3   OH269649   6.341   5.014   2.903  0.3707 -0.4513 -0.2204
16053TIP3    H169650   6.344   5.066   2.823  2.0854 -0.5125 -0.2513
16053TIP3    H269651   6.434   5.000   2.925 -0.0435 -2.4748  0.4395
16054TIP3   OH269652   5.285   0.712   6.556  0.2743 -0.4760 -0.8522
16054TIP3    H169653   5.346   0.750   6.618  0.0394  0.7188 -1.3243
16054TIP3    H269654   5.274   0.621   6.585 -1.0398  0.4300  1.7758
16055TIP3   OH269655   3.944   2.446  11.595  0.0729 -0.6246 -0.1134
16055TIP3    H169656   3.909   2.491  11.518 -1.7579 -0.3297  0.8347
16055TIP3    H269657   3.980   2.517  11.649  0.8588 -0.7702 -0.4380
16056TIP3   OH269658   0.201   5.168  13.311  0.0893 -0.5219 -0.0922
16056TIP3    H169659   0.121   5.120  13.291 -0.0446  0.2681 -1.4888
16056TIP3    H269660   0.172   5.245  13.359 -0.1782  0.5896 -1.9704
16057TIP3   OH269661   3.777   2.051   5.427  0.3501 -0.0812 -0.5212
16057TIP3    H169662   3.748   1.960   5.432 -2.1270  0.6708  0.2939
16057TIP3    H269663   3.716   2.093   5.366  2.0149  0.8830 -1.6055
16058TIP3   OH269664   0.960   5.457   0.099  0.4087  0.3600 -0.3973
16058TIP3    H169665   0.876   5.416   0.123  0.8090 -1.4406 -1.8632
16058TIP3    H269666   0.945   5.492   0.011  1.3495 -0.5267 -0.9315
16059TIP3   OH269667   5.488   0.129  16.631 -0.0720  0.1771 -0.0192
16059TIP3    H169668   5.446   0.160  16.712 -1.7414 -0.4521 -0.5896
16059TIP3    H269669   5.574   0.098  16.659  0.4770  2.4318  1.0634
16060TIP3   OH269670   1.454   3.286   4.040  0.3525  0.1080  0.6511
16060TIP3    H169671   1.532   3.293   3.985  0.7503  0.7144  1.2687
16060TIP3    H269672   1.413   3.372   4.034  1.0821  0.6151  2.2610
16061TIP3   OH269673   4.959   0.102  16.853  0.6573  0.0747  0.0235
16061TIP3    H169674   4.868   0.131  16.855  0.2755 -1.0924  1.3664
16061TIP3    H269675   4.953   0.006  16.845  1.8073  0.1051 -1.6152
16062TIP3   OH269676   5.493   3.501   3.766 -0.5308 -0.4748 -0.1045
16062TIP3    H169677   5.561   3.455   3.718  0.0928 -0.3946  0.6790
16062TIP3    H269678   5.492   3.589   3.727  1.2371  0.1678  1.1945
16063TIP3   OH269679   1.815   4.868   1.147 -0.3382 -0.2993  0.4574
16063TIP3    H169680   1.886   4.870   1.082 -2.1304 -0.5683 -1.6391
16063TIP3    H269681   1.822   4.952   1.193  2.0598 -0.8436  1.1874
16064TIP3   OH269682   2.265   3.407  15.459 -0.0443  0.0249 -0.3877
16064TIP3    H169683   2.196   3.472  15.468  0.0316 -0.0722  1.1001
16064TIP3    H269684   2.327   3.428  15.529  1.5483  0.2283 -1.7973
16065TIP3   OH269685   4.125   1.141   4.424  0.1257  0.2141 -0.7840
16065TIP3    H169686   4.104   1.211   4.486  0.3020 -0.3056 -0.1202
16065TIP3    H269687   4.217   1.155   4.402  0.8398 -1.1104  1.1224
16066TIP3   OH269688   4.066   3.865   5.147 -0.1483  0.1511  0.5343
16066TIP3    H169689   3.998   3.811   5.105 -0.4447  1.9039 -1.3960
16066TIP3    H269690   4.126   3.887   5.076  1.0136  0.8169  1.6821
16067TIP3   OH269691   3.403   4.085  14.113 -0.3797  0.3001 -0.4554
16067TIP3    H169692   3.440   4.018  14.055  1.7998  1.7153 -0.8148
16067TIP3    H269693   3.314   4.097  14.081 -1.3619 -3.3092  0.4617
16068TIP3   OH269694   0.593   5.311  15.223  0.1975  0.3267  0.0424
16068TIP3    H169695   0.659   5.378  15.239 -0.8982  1.0389  1.9919
16068TIP3    H269696   0.635   5.229  15.248  0.5904  0.6746  0.5352
16069TIP3   OH269697   1.093   5.844   2.043  0.1942  0.5966  0.5674
16069TIP3    H169698   1.127   5.920   2.091 -0.8241  0.8094  0.9796
16069TIP3    H269699   1.018   5.879   1.994 -0.6982 -0.2699  1.2785
16070TIP3   OH269700   2.013   0.847  15.525  0.1565 -0.3746  0.2261
16070TIP3    H169701   2.097   0.880  15.556 -0.3257  0.0880  1.0738
16070TIP3    H269702   2.032   0.812  15.438  1.2925 -0.5907  0.5401
16071TIP3   OH269703   6.291   4.582  10.942 -0.4269  0.3552  0.0561
16071TIP3    H169704   6.211   4.531  10.929 -0.4904  0.3327  0.5307
16071TIP3    H269705   6.361   4.526  10.907 -0.5529  0.1391  0.1506
16072TIP3   OH269706   2.875   4.559   2.926 -0.0600  0.0736 -0.3219
16072TIP3    H169707   2.936   4.508   2.979 -1.0523 -0.0641  0.7252
16072TIP3    H269708   2.825   4.494   2.877  0.3570  0.1703 -0.8898
16073TIP3   OH269709   3.704   2.521  11.745 -0.1890  0.4080 -0.3348
16073TIP3    H169710   3.739   2.500  11.832 -0.0487  0.0059 -0.4855
16073TIP3    H269711   3.779   2.514  11.686 -0.2699  0.7397 -0.4844
16074TIP3   OH269712   2.904   2.861  13.573 -0.5555  0.7219  0.5773
16074TIP3    H169713   2.889   2.783  13.627 -1.3345 -0.3626 -1.1299
16074TIP3    H269714   2.937   2.827  13.490  1.7039  2.4260  0.6737
16075TIP3   OH269715   2.841   1.072  15.498 -0.4287 -0.3187 -0.3776
16075TIP3    H169716   2.747   1.069  15.481 -1.4148 -0.0471  3.7452
16075TIP3    H269717   2.859   0.991  15.546  0.9460  0.5633  0.6899
16076TIP3   OH269718   1.898   1.310  13.989  0.2035 -0.3745 -0.8265
16076TIP3    H169719   1.974   1.258  14.017 -1.0310 -2.4200 -1.0312
16076TIP3    H269720   1.908   1.394  14.034  2.5116 -0.6146 -0.7756
16077TIP3   OH269721   6.031   1.202  17.038  0.2238  0.6453  0.0924
16077TIP3    H169722   5.948   1.217  16.994 -1.0769 -1.9799  1.4205
16077TIP3    H269723   6.019   1.242  17.125 -0.3447 -1.1117  0.8674
16078TIP3   OH269724   0.051   2.692   1.758  0.2619  0.0884  0.3688
16078TIP3    H169725  -0.040   2.716   1.776  0.5373  0.4951  1.3102
16078TIP3    H269726   0.060   2.699   1.663 -1.2846 -2.1244 -0.0212
16079TIP3   OH269727   2.928   4.263  12.186 -0.7323 -0.1429 -0.3054
16079TIP3    H169728   2.845   4.240  12.144 -0.6109 -0.7775 -0.2106
16079TIP3    H269729   2.923   4.224  12.273 -0.5533  0.2815 -0.1015
16080TIP3   OH269730   0.414   0.155   4.485 -0.1328  0.1514 -0.2994
16080TIP3    H169731   0.423   0.248   4.504  0.4042  0.4765 -2.0066
16080TIP3    H269732   0.458   0.111   4.558 -1.6199  1.1450  1.2817
16081TIP3   OH269733   5.433   0.950   3.305 -0.0059 -0.2706 -0.2618
16081TIP3    H169734   5.469   0.980   3.222  2.7641 -1.8837  0.2156
16081TIP3    H269735   5.510   0.938   3.361 -1.7652  0.8716  2.6195
16082TIP3   OH269736   0.556   0.838  14.423 -0.0413  0.0697  0.2747
16082TIP3    H169737   0.603   0.758  14.401  0.6995  0.3344  0.8315
16082TIP3    H269738   0.610   0.908  14.385  0.9922  0.5034  2.3606
16083TIP3   OH269739   3.476   1.516  12.684  0.1281  0.4603  0.1027
16083TIP3    H169740   3.411   1.464  12.731 -0.1889  1.3787  0.7154
16083TIP3    H269741   3.540   1.541  12.751  0.5888  0.3751 -0.2986
16084TIP3   OH269742   4.012   0.353  14.798 -0.0493 -0.1420 -0.3002
16084TIP3    H169743   4.030   0.355  14.892  0.0630  0.1338 -0.3260
16084TIP3    H269744   3.993   0.261  14.779  0.7342 -0.3441 -0.1579
16085TIP3   OH269745   1.960   0.802  17.189  0.1251 -0.0320  0.1154
16085TIP3    H169746   1.880   0.801  17.136 -1.0429 -0.8737  1.7860
16085TIP3    H269747   1.955   0.884  17.238 -1.1988 -1.2573  2.2173
16086TIP3   OH269748   6.450   0.147  11.270  0.9735  0.0056 -0.9824
16086TIP3    H169749   6.356   0.144  11.254  0.3552  0.8596  1.8399
16086TIP3    H269750   6.476   0.235  11.245  0.2164  1.0104  1.4822
16087TIP3   OH269751   4.524   6.252   2.772 -0.2864  0.3479 -0.7945
16087TIP3    H169752   4.519   6.346   2.756 -0.8620  1.0217  2.5300
16087TIP3    H269753   4.441   6.217   2.742 -0.2348  0.9411 -1.6679
16088TIP3   OH269754   6.529   6.013  14.179 -0.2912  0.5242  0.0835
16088TIP3    H169755   6.494   6.086  14.129 -0.1673  0.4473 -0.1174
16088TIP3    H269756   6.458   5.949  14.182 -0.2739  0.4982 -0.0577
16089TIP3   OH269757   4.181   1.253  12.739 -0.5985 -0.2179  0.2014
16089TIP3    H169758   4.155   1.289  12.824 -0.1253 -1.0199  0.6957
16089TIP3    H269759   4.187   1.330  12.682  1.3469  0.6498  1.4779
16090TIP3   OH269760   3.279   5.098  11.446  0.5663  0.1456 -0.2493
16090TIP3    H169761   3.198   5.143  11.423  0.6847 -0.3272 -1.6715
16090TIP3    H269762   3.347   5.165  11.441  0.7014 -0.1016 -2.0813
16091TIP3   OH269763   3.494   0.276  12.603  0.1920 -0.3081  0.0225
16091TIP3    H169764   3.455   0.189  12.597  0.3065 -0.4413  1.0915
16091TIP3    H269765   3.579   0.267  12.559  0.5500 -0.9609  0.8124
16092TIP3   OH269766   1.456   2.236  17.088  0.6416 -0.2697  0.0975
16092TIP3    H169767   1.407   2.223  17.169 -0.3418 -1.7377 -0.6804
16092TIP3    H269768   1.525   2.171  17.091  0.6765 -0.2471 -0.1808
16093TIP3   OH269769   6.771   4.394  14.646 -0.4430 -0.3984 -0.4070
16093TIP3    H169770   6.859   4.357  14.640 -1.6857 -4.2234  1.7055
16093TIP3    H269771   6.755   4.402  14.740 -3.2494 -2.5488 -0.5705
16094TIP3   OH269772   0.643   5.016  11.021  0.8313  0.2130  0.0649
16094TIP3    H169773   0.591   4.937  11.008 -3.0921  2.5183  0.3266
16094TIP3    H269774   0.621   5.045  11.109  1.3567  2.1584 -0.4106
16095TIP3   OH269775   1.772   0.708  13.796 -0.0136 -0.1068 -0.0742
16095TIP3    H169776   1.867   0.713  13.792 -0.0760  0.5176 -1.3296
16095TIP3    H269777   1.742   0.765  13.725 -1.3021 -1.0089 -0.2976
16096TIP3   OH269778   1.727   6.143   3.197  0.2282 -0.2328  0.2886
16096TIP3    H169779   1.799   6.083   3.180  0.6948 -0.8230  3.6323
16096TIP3    H269780   1.651   6.103   3.154  1.3517 -0.9386 -1.1080
16097TIP3   OH269781   1.915   4.915  10.546  0.3680  1.0871 -0.0964
16097TIP3    H169782   2.004   4.928  10.514  0.4413  2.8143  0.7192
16097TIP3    H269783   1.869   4.996  10.524 -0.9402  0.3227 -0.2669
16098TIP3   OH269784   4.965   3.154  11.251 -0.0197  0.0464 -0.6282
16098TIP3    H169785   4.904   3.120  11.186 -1.6034  1.6992 -0.0953
16098TIP3    H269786   5.046   3.169  11.203  0.3096 -2.8994 -1.1943
16099TIP3   OH269787   6.066   6.607  12.811  0.6451 -0.0031 -0.1537
16099TIP3    H169788   6.058   6.605  12.716  1.3919 -1.1061 -0.2122
16099TIP3    H269789   6.050   6.517  12.839  2.1226 -0.0641  0.6046
16100TIP3   OH269790   2.796   0.133  12.032 -0.5535  0.1639  0.0194
16100TIP3    H169791   2.706   0.106  12.012 -0.0719 -0.7218 -1.0510
16100TIP3    H269792   2.849   0.058  12.008  0.3704  0.1139  2.0279
16101TIP3   OH269793   5.853   4.591   5.638 -0.4724  0.6222  0.1098
16101TIP3    H169794   5.778   4.532   5.626 -1.5181  1.9471 -0.2423
16101TIP3    H269795   5.905   4.550   5.707 -2.2970  0.3646  1.4301
16102TIP3   OH269796   4.284   5.674  13.118 -0.0090 -0.3504  0.0013
16102TIP3    H169797   4.367   5.674  13.166  1.4763  1.9230 -2.3090
16102TIP3    H269798   4.259   5.766  13.113 -2.4434 -0.9503  0.1686
16103TIP3   OH269799   1.904   6.209   2.207 -0.3356 -0.2046 -1.0998
16103TIP3    H169800   1.887   6.117   2.225 -1.5152  0.0662 -0.7478
16103TIP3    H269801   1.980   6.230   2.260 -1.0839 -0.5596  0.1657
16104TIP3   OH269802   0.196   1.130  13.761  0.0337 -0.6156  0.3685
16104TIP3    H169803   0.170   1.197  13.824  3.1001  2.1996 -1.0174
16104TIP3    H269804   0.288   1.113  13.781  0.3977 -1.5286 -1.7816
16105TIP3   OH269805   4.719   4.648  16.848  0.0805 -0.3439 -0.0818
16105TIP3    H169806   4.688   4.735  16.824 -1.3432 -1.0849 -1.0339
16105TIP3    H269807   4.755   4.660  16.936 -2.3611  0.7419  0.8761
16106TIP3   OH269808   6.166   5.485  16.507 -0.2836  0.0333  0.2257
16106TIP3    H169809   6.149   5.575  16.534 -0.7355 -0.8010  3.0913
16106TIP3    H269810   6.079   5.448  16.491 -0.1689 -0.1813  0.0928
16107TIP3   OH269811   2.147   1.646   3.069 -0.4190 -0.4337  0.2346
16107TIP3    H169812   2.071   1.598   3.037  0.4213 -1.7754  0.1751
16107TIP3    H269813   2.202   1.579   3.110  1.8598  0.0142 -1.8331
16108TIP3   OH269814   5.518   4.706   6.097 -0.0695  0.4198  0.3196
16108TIP3    H169815   5.484   4.642   6.034  0.2173  0.4659  0.1162
16108TIP3    H269816   5.565   4.653   6.161  1.8717  0.5466 -0.9152
16109TIP3   OH269817   0.945   1.281  15.357  0.1420  0.0085  0.0365
16109TIP3    H169818   0.897   1.213  15.405 -2.3822  1.5070 -0.1450
16109TIP3    H269819   1.036   1.253  15.358 -0.5751 -2.5017  1.3866
16110TIP3   OH269820   2.635   5.817  15.276  0.0418  0.3074  0.2509
16110TIP3    H169821   2.604   5.743  15.329  0.5149  0.0860  0.2224
16110TIP3    H269822   2.636   5.891  15.337  0.8628 -0.0097  0.6472
16111TIP3   OH269823   1.691   1.820  11.193  0.5901 -0.0013  0.0743
16111TIP3    H169824   1.663   1.730  11.180 -0.2772  0.2430  0.1561
16111TIP3    H269825   1.767   1.814  11.250  0.8760 -0.7102 -0.3746
16112TIP3   OH269826   2.254   4.657  14.442  0.1863 -0.2389 -0.0886
16112TIP3    H169827   2.296   4.631  14.524 -0.7919  1.6325  1.0827
16112TIP3    H269828   2.311   4.726  14.408 -0.0100 -0.2307 -0.3949
16113TIP3   OH269829   4.897   4.197   6.225 -0.0334 -0.2617  0.5870
16113TIP3    H169830   4.904   4.275   6.280  2.0534  0.1915 -0.2021
16113TIP3    H269831   4.808   4.166   6.238 -0.3932  1.2854  2.2262
16114TIP3   OH269832   6.721   2.822   2.308 -0.4761  0.5470  0.4014
16114TIP3    H169833   6.809   2.799   2.338 -0.0961  1.7699  0.2759
16114TIP3    H269834   6.665   2.755   2.346  0.6968 -1.3523 -0.9893
16115TIP3   OH269835   2.758   3.330   1.686  0.8893  0.1019  0.3087
16115TIP3    H169836   2.763   3.422   1.660  1.4478  1.0038  3.1857
16115TIP3    H269837   2.800   3.282   1.614  1.9206  2.2590 -0.6130
16116TIP3   OH269838   4.323   2.352   1.472 -0.4413 -0.1620  0.1360
16116TIP3    H169839   4.261   2.425   1.466 -2.7623 -1.8082  2.2396
16116TIP3    H269840   4.268   2.274   1.478  1.8507 -1.7794  1.6247
16117TIP3   OH269841   2.191   0.951  13.843 -0.8931 -1.0501  0.2111
16117TIP3    H169842   2.201   0.856  13.850 -0.1824 -0.9541  0.6758
16117TIP3    H269843   2.139   0.964  13.764 -1.6036 -1.8539  0.5260
16118TIP3   OH269844   2.782   0.745   4.992  0.2252  0.2721 -0.4220
16118TIP3    H169845   2.850   0.770   5.055 -0.4841 -2.8666  1.8433
16118TIP3    H269846   2.716   0.815   4.999  0.9566  0.8569  1.0621
16119TIP3   OH269847   0.469   4.825  14.427  0.2040 -0.0938 -0.1351
16119TIP3    H169848   0.481   4.919  14.438  0.1532  0.1094 -1.5955
16119TIP3    H269849   0.406   4.817  14.355  1.0882 -1.2397 -0.8220
16120TIP3   OH269850   6.397   4.137   5.474 -1.0643  0.5397 -0.9790
16120TIP3    H169851   6.415   4.061   5.528 -1.6434  0.1271 -1.3486
16120TIP3    H269852   6.369   4.101   5.390 -0.1644  1.1661 -1.5609
16121TIP3   OH269853   2.680   3.376   4.011  0.1911 -0.2535  0.1950
16121TIP3    H169854   2.774   3.392   4.002  0.3124 -0.8180  0.4088
16121TIP3    H269855   2.674   3.287   4.045 -0.3901  0.1982  1.3307
16122TIP3   OH269856   1.857   6.578   1.540  0.1229 -0.3446 -0.6517
16122TIP3    H169857   1.820   6.605   1.624  0.7749 -0.6527 -0.2543
16122TIP3    H269858   1.793   6.516   1.505 -1.9198  2.3781 -2.0721
16123TIP3   OH269859   4.433   4.731   3.304  0.3031  0.0964 -0.5578
16123TIP3    H169860   4.461   4.650   3.346 -0.1441  0.1362 -0.1804
16123TIP3    H269861   4.510   4.760   3.254  0.4227 -0.6170 -0.7919
16124TIP3   OH269862   4.588   6.777  12.900 -0.1785 -0.3391  0.7072
16124TIP3    H169863   4.542   6.693  12.892 -0.8835 -0.0108  1.1508
16124TIP3    H269864   4.656   6.761  12.965  1.5344 -1.3171 -1.2409
16125TIP3   OH269865   3.622   4.505   0.099 -0.4745  0.0367 -0.6277
16125TIP3    H169866   3.644   4.520   0.007  0.3446 -0.3113 -0.4915
16125TIP3    H269867   3.670   4.427   0.124 -0.4881  0.2699  0.1723
16126TIP3   OH269868   1.599   4.716   6.920 -0.2127 -0.0144  0.3376
16126TIP3    H169869   1.649   4.797   6.929 -1.8539  0.9315  1.5631
16126TIP3    H269870   1.517   4.743   6.879 -0.5355 -1.1657  0.2060
16127TIP3   OH269871   2.786   6.626  16.449 -0.5010 -0.3893  0.1722
16127TIP3    H169872   2.735   6.695  16.493 -1.7254 -0.3622 -1.2187
16127TIP3    H269873   2.745   6.544  16.477  0.2414 -0.5316  0.9210
16128TIP3   OH269874   3.360   1.471   2.151 -0.4822  0.3595  0.3127
16128TIP3    H169875   3.312   1.524   2.215 -2.2582 -1.3944  0.5106
16128TIP3    H269876   3.452   1.497   2.163 -0.9741  1.4127  2.2696
16129TIP3   OH269877   5.220   2.519   0.528 -0.2340 -0.2211 -0.2572
16129TIP3    H169878   5.168   2.596   0.504 -0.7617 -0.6346 -0.4663
16129TIP3    H269879   5.165   2.445   0.503  0.5908 -0.6715 -0.7721
16130TIP3   OH269880   1.634   6.059   5.985  0.5323  0.2049  0.3882
16130TIP3    H169881   1.615   6.111   5.908  0.6826  1.0438  0.9061
16130TIP3    H269882   1.606   5.970   5.962 -0.8439  0.7378 -0.0710
16131TIP3   OH269883   6.777   1.237   0.395 -0.1955 -1.2176  0.6502
16131TIP3    H169884   6.719   1.286   0.336  0.1591 -0.3433  1.0188
16131TIP3    H269885   6.726   1.159   0.419 -0.7643 -1.0403  0.0524
16132TIP3   OH269886   5.521   0.900   3.984 -0.2785 -0.2731  0.1118
16132TIP3    H169887   5.523   0.989   4.017 -1.7965 -0.5439  1.0430
16132TIP3    H269888   5.612   0.880   3.962  1.0511 -0.1291  4.4611
16133TIP3   OH269889   5.704   5.374   1.581  0.2140  0.0022  0.1516
16133TIP3    H169890   5.658   5.309   1.528 -0.5292  0.7919 -0.1914
16133TIP3    H269891   5.637   5.410   1.639  0.7928 -0.0895  0.8986
16134TIP3   OH269892   1.489   5.430  13.284 -0.2649  0.3275  0.8574
16134TIP3    H169893   1.395   5.444  13.295 -0.3352 -0.0630  0.7423
16134TIP3    H269894   1.516   5.498  13.222 -0.6990 -0.3391 -0.0870
16135TIP3   OH269895   3.991   0.574  13.379 -0.4744 -0.2832 -0.8254
16135TIP3    H169896   3.936   0.621  13.442 -0.2133 -0.8411 -0.1655
16135TIP3    H269897   4.009   0.490  13.421 -1.4872 -1.2599 -2.2909
16136TIP3   OH269898   3.144   0.760  13.914 -0.0588 -0.4749  0.0951
16136TIP3    H169899   3.089   0.776  13.837 -1.9487 -3.5651  0.6352
16136TIP3    H269900   3.230   0.737  13.878 -0.4255 -0.2244 -0.9764
16137TIP3   OH269901   2.368   4.264  16.760 -0.2568  0.1202  0.6157
16137TIP3    H169902   2.408   4.177  16.749 -1.7094 -0.7116  1.4501
16137TIP3    H269903   2.414   4.302  16.835 -1.7959 -1.3919  2.4588
16138TIP3   OH269904   2.136   2.341   1.853 -0.2406 -0.0354 -0.4196
16138TIP3    H169905   2.121   2.401   1.926 -2.5472  0.1870 -1.0147
16138TIP3    H269906   2.223   2.304   1.870 -0.6857  0.0220  2.3922
16139TIP3   OH269907   6.102   4.185   3.200 -0.5588 -0.1152  0.0613
16139TIP3    H169908   6.152   4.146   3.128 -1.9535 -1.8114 -0.0402
16139TIP3    H269909   6.077   4.272   3.167  1.6851  0.5162 -0.1324
16140TIP3   OH269910   6.604   4.443   3.538  0.1359 -0.0427  0.5384
16140TIP3    H169911   6.657   4.523   3.544 -0.5879  0.3878  1.3672
16140TIP3    H269912   6.597   4.412   3.628 -1.5243  0.2443  0.5382
16141TIP3   OH269913   1.280   1.620  16.333 -0.7673 -0.1740  0.4354
16141TIP3    H169914   1.350   1.633  16.397 -1.8780  0.9225  1.4800
16141TIP3    H269915   1.213   1.571  16.380 -0.8191 -1.0157 -0.4813
16142TIP3   OH269916   0.733   0.896  14.712 -0.5085  1.2133  0.6264
16142TIP3    H169917   0.741   0.984  14.675 -2.5664  1.3814  0.4730
16142TIP3    H269918   0.641   0.872  14.698  0.4578 -1.8859 -1.3437
16143TIP3   OH269919   3.022   0.002  13.094 -0.4039 -0.7594 -0.0066
16143TIP3    H169920   3.072   0.072  13.135 -1.7155  0.6937 -0.7759
16143TIP3    H269921   3.070  -0.078  13.116  1.6883  0.4434  0.0943
16144TIP3   OH269922   2.324   0.849   3.238 -0.2564  0.5022  0.3507
16144TIP3    H169923   2.337   0.818   3.327  2.5946 -0.5510 -0.3226
16144TIP3    H269924   2.232   0.831   3.219 -1.3716  2.0777  3.4857
16145TIP3   OH269925   6.370   2.916  12.452 -0.9557 -0.1612  0.3474
16145TIP3    H169926   6.407   2.995  12.493 -1.2068  0.9040 -1.3735
16145TIP3    H269927   6.290   2.947  12.410 -2.1653 -1.7933  1.3664
16146TIP3   OH269928   2.659   3.438  13.185 -0.0003 -0.3794 -0.0741
16146TIP3    H169929   2.621   3.380  13.118  1.6912  0.1933 -1.6043
16146TIP3    H269930   2.667   3.523  13.141 -0.4696  0.4944  1.4568
16147TIP3   OH269931   2.003   6.703   4.582 -0.1318  0.2913  0.6701
16147TIP3    H169932   1.949   6.731   4.508 -1.8696  0.9837  2.1237
16147TIP3    H269933   1.977   6.611   4.595 -1.5453  0.8110  1.7852
16148TIP3   OH269934   1.452   0.665  14.101  0.5379  0.3237 -0.1471
16148TIP3    H169935   1.446   0.570  14.112 -1.1754  0.2777 -1.1264
16148TIP3    H269936   1.435   0.699  14.189  2.2309 -0.2571  0.4451
16149TIP3   OH269937   6.658   1.930  14.270  0.3080 -0.5398  0.3784
16149TIP3    H169938   6.749   1.907  14.249  0.3790  1.1379 -1.5266
16149TIP3    H269939   6.661   2.021  14.296 -0.6646 -0.9115  1.9172
16150TIP3   OH269940   0.144   1.987   3.633 -0.2815 -0.1303  0.2594
16150TIP3    H169941   0.194   1.915   3.594 -0.3141  0.4188 -0.8308
16150TIP3    H269942   0.101   2.030   3.559  0.4708  1.5823  0.7501
16151TIP3   OH269943   5.111   3.498   3.740 -0.0778  0.3368  0.0588
16151TIP3    H169944   5.200   3.463   3.751  0.2587  1.4751  1.1395
16151TIP3    H269945   5.061   3.457   3.810 -0.5619 -0.7152 -0.8730
16152TIP3   OH269946   6.301   0.700  14.581  0.1899  0.7028  0.0687
16152TIP3    H169947   6.256   0.661  14.506 -0.1567  2.5431 -0.7297
16152TIP3    H269948   6.384   0.653  14.587  0.7238  1.2356 -2.1937
16153TIP3   OH269949   1.362   2.403   3.475 -0.4633  0.1081 -0.9880
16153TIP3    H169950   1.314   2.362   3.403 -1.1777  0.3370 -0.6525
16153TIP3    H269951   1.375   2.493   3.446 -0.5014  0.1247 -0.9539
16154TIP3   OH269952   4.405   1.421  11.935 -0.1310 -0.0281  0.0841
16154TIP3    H169953   4.402   1.352  12.001  0.7467  0.7651  0.9807
16154TIP3    H269954   4.413   1.502  11.985 -2.3159  0.8714 -0.8911
16155TIP3   OH269955   4.935   6.029   1.826 -0.0055  0.0395 -0.0286
16155TIP3    H169956   4.900   6.023   1.915 -1.7530 -0.8446 -0.7258
16155TIP3    H269957   4.937   6.123   1.808  0.2772  0.2257  0.8939
16156TIP3   OH269958   3.939   5.257   5.453 -0.2704 -0.2677  0.2429
16156TIP3    H169959   3.915   5.164   5.462  1.1815 -0.8415 -1.1837
16156TIP3    H269960   4.003   5.272   5.523  0.7423 -0.8451 -0.5276
16157TIP3   OH269961   3.186   2.641  10.969  0.4525  0.3403 -0.3944
16157TIP3    H169962   3.195   2.592  10.887 -0.4952  0.1400 -0.3881
16157TIP3    H269963   3.273   2.678  10.984  0.9158 -0.4959 -0.9306
16158TIP3   OH269964   1.071   4.933  12.704 -0.4920 -0.4241  0.8827
16158TIP3    H169965   1.152   4.887  12.723 -0.5159 -0.4031  1.0393
16158TIP3    H269966   1.055   4.916  12.611 -1.1424 -1.7488  1.2124
16159TIP3   OH269967   3.163   1.453   1.940  0.1325  0.3260 -0.0657
16159TIP3    H169968   3.104   1.526   1.958  0.6768  0.4520  1.3030
16159TIP3    H269969   3.231   1.461   2.006 -0.1511 -1.8158  0.5445
16160TIP3   OH269970   6.341   5.457   0.669 -0.2646 -0.5423  0.4656
16160TIP3    H169971   6.348   5.376   0.619 -1.2818 -1.1825  1.3075
16160TIP3    H269972   6.332   5.525   0.603 -0.3669 -1.2255 -0.2441
16161TIP3   OH269973   6.061   0.246   0.030 -0.8977 -0.6633 -0.3253
16161TIP3    H169974   6.087   0.292   0.110  1.7232 -0.6152 -1.1046
16161TIP3    H269975   6.004   0.307  -0.016  0.5140  0.8104 -0.1811
16162TIP3   OH269976   2.598   4.871   4.644  0.0389  0.2054 -0.1109
16162TIP3    H169977   2.620   4.787   4.604  1.1055 -0.3913  1.6163
16162TIP3    H269978   2.504   4.867   4.661 -0.4672  0.5271 -2.5678
16163TIP3   OH269979   5.564   0.226  15.278 -0.3718  0.4518 -0.2564
16163TIP3    H169980   5.640   0.247  15.224  0.1513  0.2584  0.3870
16163TIP3    H269981   5.572   0.284  15.354 -1.0408  0.6473 -0.3261
16164TIP3   OH269982   4.335   2.692   6.269  0.6086 -0.4762  0.5778
16164TIP3    H169983   4.281   2.729   6.338  1.9482  2.2257  0.3266
16164TIP3    H269984   4.423   2.726   6.286  0.6150  2.4722 -3.6405
16165TIP3   OH269985   2.085   1.836  16.931  0.3019  0.5068  0.2279
16165TIP3    H169986   2.080   1.777  17.005  0.9752 -0.0133 -0.1310
16165TIP3    H269987   2.027   1.798  16.865  3.0259 -1.5258 -1.1844
16166TIP3   OH269988   0.432   5.125   3.429 -0.6606  0.1381 -0.4494
16166TIP3    H169989   0.469   5.094   3.345  0.2415 -1.4943  0.4978
16166TIP3    H269990   0.502   5.179   3.466 -1.4670  1.7523 -1.1845
16167TIP3   OH269991   5.609   0.391  15.722 -0.1115  0.3779 -0.2266
16167TIP3    H169992   5.600   0.461  15.657 -0.8380  0.8576  0.3741
16167TIP3    H269993   5.527   0.342  15.717  0.1035  0.0072 -0.1406
16168TIP3   OH269994   1.605   1.893  16.223  0.5026 -0.3121 -0.3449
16168TIP3    H169995   1.684   1.919  16.270  2.2863  0.7305 -3.5841
16168TIP3    H269996   1.561   1.976  16.204  0.7939 -0.5001 -1.9697
16169TIP3   OH269997   4.616   1.437  13.298 -0.3833  0.2040  0.6917
16169TIP3    H169998   4.701   1.466  13.266  0.2442 -0.6792  1.5075
16169TIP3    H269999   4.573   1.518  13.327  0.0132  0.7031 -0.0733
16170TIP3   OH270000   6.647   0.539   5.397 -0.1693  0.3793 -0.3852
16170TIP3    H170001   6.698   0.619   5.407  1.8743 -0.7919 -0.7764
16170TIP3    H270002   6.637   0.505   5.486 -0.0476  0.4974 -0.3261
16171TIP3   OH270003   6.654   2.082  11.831 -0.5472  0.0858  0.0662
16171TIP3    H170004   6.621   2.156  11.780 -0.7855  0.7718  1.1813
16171TIP3    H270005   6.743   2.068  11.797 -0.9937 -0.0273 -1.0961
16172TIP3   OH270006   4.077   1.811  15.328 -0.3270 -0.2123 -0.6789
16172TIP3    H170007   4.007   1.846  15.383 -1.2038  0.6727 -2.2739
16172TIP3    H270008   4.140   1.884  15.321  0.8728 -1.0453  0.8559
16173TIP3   OH270009   1.810   6.676  11.733  0.4309  0.4225 -0.5018
16173TIP3    H170010   1.860   6.672  11.815  0.4297  1.8619 -0.4046
16173TIP3    H270011   1.779   6.586  11.719  0.2213  0.2015  1.2025
16174TIP3   OH270012   3.701   3.211  11.702  0.4613 -0.5199 -0.2166
16174TIP3    H170013   3.750   3.130  11.686 -0.3223 -1.3280  1.1819
16174TIP3    H270014   3.612   3.190  11.676  0.3862  0.1336 -0.4965
16175TIP3   OH270015   5.282   4.144   1.553 -0.3401  0.1612 -0.1893
16175TIP3    H170016   5.254   4.092   1.477  0.1960  1.4068 -1.2792
16175TIP3    H270017   5.361   4.190   1.523 -0.3749  1.0269  0.9714
16176TIP3   OH270018   3.998   1.607   5.764  0.9784  0.6567  0.0249
16176TIP3    H170019   4.041   1.670   5.821  1.7578 -0.7478  1.0286
16176TIP3    H270020   3.926   1.572   5.816  1.2776 -0.1471 -0.0889
16177TIP3   OH270021   1.790   1.641  12.491 -0.1148  0.0716  0.4822
16177TIP3    H170022   1.710   1.662  12.538 -0.3684 -0.7015  0.4132
16177TIP3    H270023   1.762   1.629  12.400 -0.2832 -2.0888  0.7673
16178TIP3   OH270024   3.879   1.424  12.758 -0.3816  0.3993  0.2170
16178TIP3    H170025   3.821   1.355  12.727  0.5225  0.1733 -1.0569
16178TIP3    H270026   3.935   1.382  12.823  0.9547 -0.4449 -1.3881
16179TIP3   OH270027   5.627   1.654   4.428  0.2871  0.2974  0.1314
16179TIP3    H170028   5.591   1.681   4.513 -1.0424  0.5748 -0.4982
16179TIP3    H270029   5.722   1.666   4.437 -0.0527  3.2269  0.5790
16180TIP3   OH270030   0.463   0.853   1.701 -0.4791  0.5895 -0.3807
16180TIP3    H170031   0.450   0.758   1.705 -0.8854  0.6699  0.3999
16180TIP3    H270032   0.395   0.889   1.758 -0.3710  1.3575 -0.7231
16181TIP3   OH270033   2.496   3.427  13.417  0.1918 -0.1897 -0.1477
16181TIP3    H170034   2.420   3.372  13.396  0.3662 -0.1301 -0.9807
16181TIP3    H270035   2.529   3.455  13.331 -0.7837  2.4670  0.2500
16182TIP3   OH270036   1.362   0.526   5.916  0.2483 -0.0738  0.1897
16182TIP3    H170037   1.327   0.438   5.935 -1.4814  0.5715  0.1664
16182TIP3    H270038   1.455   0.519   5.935 -0.1690 -1.4241  2.0554
16183TIP3   OH270039   0.114   3.342  15.691  0.3224 -0.3765 -0.2789
16183TIP3    H170040   0.055   3.346  15.615  0.7611 -2.6713 -0.8133
16183TIP3    H270041   0.195   3.304  15.657  1.4828  0.9486  0.8537
16184TIP3   OH270042   5.004   1.887   1.939 -0.1295 -0.3425  0.0257
16184TIP3    H170043   5.046   1.860   2.021 -0.4001  1.5497  0.8382
16184TIP3    H270044   5.069   1.867   1.871  0.7059 -0.5757  0.8637
16185TIP3   OH270045   5.540   0.613   5.784 -0.1985 -0.6165 -0.1077
16185TIP3    H170046   5.459   0.563   5.773 -0.2587 -0.6551  0.4487
16185TIP3    H270047   5.607   0.563   5.738 -0.6976 -0.0139 -1.5337
16186TIP3   OH270048   3.280   5.891   5.177  0.7983 -0.4098 -0.2508
16186TIP3    H170049   3.332   5.902   5.098  1.2777  0.2273  0.1439
16186TIP3    H270050   3.343   5.903   5.249  0.4082 -1.1525  0.2256
16187TIP3   OH270051   4.416   3.011   1.111 -0.5264  0.3263  0.5754
16187TIP3    H170052   4.484   3.020   1.178  0.2182  0.2751 -0.1623
16187TIP3    H270053   4.454   3.048   1.032 -1.0815 -0.3719 -0.0351
16188TIP3   OH270054   5.799   1.982   2.156 -0.1782  0.3562 -0.2482
16188TIP3    H170055   5.837   1.988   2.243 -1.9381 -2.8918  0.9292
16188TIP3    H270056   5.874   1.987   2.097  1.1287  2.0093  1.4244
16189TIP3   OH270057   4.708   3.546  16.483  0.1889 -0.3596  0.3673
16189TIP3    H170058   4.700   3.594  16.401 -1.1145  1.2127  1.3300
16189TIP3    H270059   4.747   3.462  16.459  1.3677  0.6764 -1.5868
16190TIP3   OH270060   2.969   3.788  11.638  0.2532  0.0108  1.0014
16190TIP3    H170061   2.968   3.818  11.547 -1.1649  0.5346  1.1607
16190TIP3    H270062   2.983   3.693  11.632 -0.1872 -0.0109  0.2145
16191TIP3   OH270063   6.558   6.676   1.580 -0.2468  0.1174 -0.2473
16191TIP3    H170064   6.523   6.587   1.572  0.5518 -0.3058  0.7212
16191TIP3    H270065   6.575   6.703   1.490  0.5996 -1.1783 -0.5144
16192TIP3   OH270066   5.929   4.969   4.572 -0.3629  0.2712 -0.2036
16192TIP3    H170067   6.022   4.985   4.557 -0.2892 -0.1344 -0.1718
16192TIP3    H270068   5.885   5.027   4.510 -0.0810  0.0232 -0.6412
16193TIP3   OH270069   1.382   1.899  17.234  0.2213  0.2205 -0.2793
16193TIP3    H170070   1.426   1.931  17.313 -1.8211  1.4558  0.4260
16193TIP3    H270071   1.336   1.820  17.263 -1.4176  1.2725  0.0973
16194TIP3   OH270072   1.592   1.912   2.973 -0.1418  0.2601  0.3206
16194TIP3    H170073   1.533   1.955   3.034 -2.7721 -2.8729  0.2408
16194TIP3    H270074   1.618   1.831   3.017  0.8177 -0.3570 -1.2789
16195TIP3   OH270075   6.572   6.577   0.726  0.5313 -0.3808 -0.3247
16195TIP3    H170076   6.577   6.661   0.680  0.5923 -0.7316 -0.9748
16195TIP3    H270077   6.527   6.597   0.807  2.6961  0.7681  0.6900
16196TIP3   OH270078   2.689   2.422  15.055 -0.4132  0.3179 -0.1875
16196TIP3    H170079   2.744   2.369  14.998  0.1384  1.0308 -0.3351
16196TIP3    H270080   2.749   2.458  15.120 -0.3744  2.4050 -1.3024
16197TIP3   OH270081   1.217   2.111  12.229  0.6709  0.1483  0.5499
16197TIP3    H170082   1.129   2.146  12.214  0.7172  0.9257  1.8787
16197TIP3    H270083   1.202   2.033  12.281  0.7281 -0.2322  0.0016
16198TIP3   OH270084   2.062   3.600  11.086  0.1944  0.0972 -0.9510
16198TIP3    H170085   2.048   3.509  11.113 -1.4263  0.3599 -0.7760
16198TIP3    H270086   2.155   3.605  11.066  0.6620 -1.1687  0.6652
16199TIP3   OH270087   5.468   2.479  12.779  0.1042  0.5034 -0.2587
16199TIP3    H170088   5.372   2.483  12.779 -0.0240 -1.1935  1.3769
16199TIP3    H270089   5.490   2.429  12.857  2.3285  0.5248 -0.8013
16200TIP3   OH270090   1.435   4.859   5.673 -0.6170 -0.1783  0.2514
16200TIP3    H170091   1.469   4.787   5.621 -0.9434 -0.2128  0.0869
16200TIP3    H270092   1.392   4.916   5.610 -0.3227  0.1869  0.3739
16201TIP3   OH270093   6.020   0.816   5.933  0.4399 -0.1894  0.1464
16201TIP3    H170094   6.062   0.735   5.902  3.4141  1.5882 -0.8423
16201TIP3    H270095   5.982   0.855   5.854 -1.0262 -0.6009  0.6279
16202TIP3   OH270096   6.693   3.785   1.383 -0.1002  0.1779 -0.0499
16202TIP3    H170097   6.738   3.870   1.381  1.9434 -0.8131  0.7795
16202TIP3    H270098   6.760   3.722   1.355 -0.6566 -1.4957  2.1291
16203TIP3   OH270099   1.127   4.151   3.569  0.4039  0.4647  0.2163
16203TIP3    H170100   1.141   4.244   3.583  1.4932  0.4447 -0.5339
16203TIP3    H270101   1.214   4.118   3.545  0.1426 -0.8413  0.9811
16204TIP3   OH270102   4.353   6.824  12.477 -0.3514 -0.1813 -0.2396
16204TIP3    H170103   4.317   6.835  12.389  0.4787 -0.2088 -0.5899
16204TIP3    H270104   4.447   6.810  12.464 -0.3935 -1.4788  0.5559
16205TIP3   OH270105   2.633   6.293   2.172 -0.4230  0.3524  0.1622
16205TIP3    H170106   2.675   6.317   2.089 -2.2538  4.1748  0.1131
16205TIP3    H270107   2.591   6.208   2.154  1.7793 -0.4491 -1.7535
16206TIP3   OH270108   5.356   6.670  13.765  0.1372 -0.5746 -0.1822
16206TIP3    H170109   5.261   6.674  13.752  0.1215 -1.0972 -0.2339
16206TIP3    H270110   5.388   6.618  13.691  0.5664  0.3418 -0.6674
16207TIP3   OH270111   2.728   2.676   3.017  0.4485  0.0872 -0.2110
16207TIP3    H170112   2.799   2.621   2.985  1.1644  0.4334  0.7503
16207TIP3    H270113   2.719   2.745   2.951  1.1327  0.1487 -0.2389
16208TIP3   OH270114   3.723   5.218   2.263 -0.3813 -0.2752  0.2675
16208TIP3    H170115   3.770   5.221   2.346 -0.3625 -2.4801  0.3946
16208TIP3    H270116   3.656   5.287   2.270  0.4136  0.3837  1.5899
16209TIP3   OH270117   1.689   2.589   3.328  0.2010  0.3331  0.0111
16209TIP3    H170118   1.654   2.524   3.268 -0.4274 -0.0075  0.7294
16209TIP3    H270119   1.778   2.606   3.296  0.6429 -1.3899  0.2237
16210TIP3   OH270120   3.246   4.883   4.650  0.1799 -0.3471  0.6598
16210TIP3    H170121   3.162   4.845   4.675  0.2089 -1.3157 -0.5865
16210TIP3    H270122   3.228   4.975   4.635 -0.5539 -0.4558  0.8379
16211TIP3   OH270123   6.740   2.416   6.240  0.0733 -0.1336  0.0934
16211TIP3    H170124   6.778   2.391   6.324 -1.5885  1.3543  1.3519
16211TIP3    H270125   6.652   2.377   6.241  0.2569 -0.6249 -1.2461
16212TIP3   OH270126   6.593   2.980  11.340  0.3037 -0.3390  0.6066
16212TIP3    H170127   6.576   2.898  11.293  0.5598  0.3012 -0.6327
16212TIP3    H270128   6.566   2.961  11.430  1.0153 -2.0143  0.5154
16213TIP3   OH270129   4.463   1.293  16.903 -0.0248  0.4878  0.5148
16213TIP3    H170130   4.410   1.287  16.983 -0.7332 -0.4762 -0.0081
16213TIP3    H270131   4.527   1.222  16.912 -0.0338  0.4513  0.2847
16214TIP3   OH270132   4.209   3.673   1.385 -0.3458  0.2094  0.0771
16214TIP3    H170133   4.222   3.749   1.442  1.9459 -0.2690  0.2952
16214TIP3    H270134   4.117   3.677   1.360 -0.7408  1.9809  1.5995
16215TIP3   OH270135   1.586   3.430  13.369  0.0392 -0.3162  0.0347
16215TIP3    H170136   1.592   3.435  13.274 -0.7923 -1.2671 -0.0770
16215TIP3    H270137   1.625   3.346  13.392 -0.8899 -0.6574  0.4116
16216TIP3   OH270138   2.645   1.050  14.813 -0.6083 -0.4311 -0.7855
16216TIP3    H170139   2.728   1.009  14.838 -0.6924 -2.0858 -2.8555
16216TIP3    H270140   2.578   0.992  14.850 -0.7329 -1.9059 -3.1051
16217TIP3   OH270141   4.897   1.652  11.032 -0.2131 -0.2916  0.1648
16217TIP3    H170142   4.969   1.589  11.033  0.9685  1.0211  1.3257
16217TIP3    H270143   4.921   1.714  10.964 -0.2818  0.1194  0.5149
16218TIP3   OH270144   6.069   5.096   2.242  0.1417  0.4312  0.0104
16218TIP3    H170145   5.984   5.060   2.269  0.3059 -0.4164 -0.5564
16218TIP3    H270146   6.133   5.034   2.279  0.5472  1.3357  0.8584
16219TIP3   OH270147   0.652   1.324   6.734  0.0103  0.2046 -0.2660
16219TIP3    H170148   0.637   1.244   6.785  0.3415  0.6343  0.5189
16219TIP3    H270149   0.668   1.392   6.799  0.4664  0.7655 -0.9474
16220TIP3   OH270150   0.543   1.929   4.234  0.1912  0.2411  0.2438
16220TIP3    H170151   0.567   1.913   4.143  1.6929  0.4114  0.5834
16220TIP3    H270152   0.601   1.873   4.285 -0.2883  0.5156  1.1273
16221TIP3   OH270153   0.078   0.052   3.069  0.2262  0.3521  0.8768
16221TIP3    H170154   0.123  -0.003   3.006  0.3061  1.1744  0.2011
16221TIP3    H270155   0.028   0.114   3.016 -1.8545 -0.6368  1.6106
16222TIP3   OH270156   4.201   1.710   0.903 -0.2053  0.4931 -0.6925
16222TIP3    H170157   4.214   1.616   0.896 -0.0662  0.3420  1.1343
16222TIP3    H270158   4.117   1.726   0.859 -0.3118 -0.4982 -0.8697
16223TIP3   OH270159   1.353   2.608  12.122  0.3326 -0.5307  0.0685
16223TIP3    H170160   1.423   2.667  12.147 -0.3411  0.7424 -0.9150
16223TIP3    H270161   1.329   2.636  12.034 -0.4894 -1.8289 -0.1484
16224TIP3   OH270162   4.717   3.519   3.938 -0.3078  0.2095 -0.4976
16224TIP3    H170163   4.626   3.539   3.919 -0.2575 -0.3717 -1.4077
16224TIP3    H270164   4.760   3.518   3.852  0.2042 -1.1868 -0.2519
16225TIP3   OH270165   3.731   5.244   6.031 -0.7400 -0.3444 -0.4347
16225TIP3    H170166   3.822   5.240   6.003 -0.4818  3.0521 -0.4657
16225TIP3    H270167   3.730   5.202   6.118  0.7991 -0.4916 -0.4737
16226TIP3   OH270168   4.711   1.247  13.522  0.6837  0.5851  0.5210
16226TIP3    H170169   4.632   1.256  13.576 -0.4579  0.6961 -1.0834
16226TIP3    H270170   4.690   1.294  13.441  1.1136 -2.0701 -1.2547
16227TIP3   OH270171   6.325   5.862  14.141 -0.1041  0.5200  0.4042
16227TIP3    H170172   6.244   5.847  14.190 -0.6449  0.7674 -0.3938
16227TIP3    H270173   6.303   5.836  14.052  1.1642 -0.8980  0.4672
16228TIP3   OH270174   6.278   1.105  14.149  0.1101  0.2704  1.4683
16228TIP3    H170175   6.215   1.151  14.095 -1.5087 -1.8428  1.4111
16228TIP3    H270176   6.350   1.167  14.161 -0.7717  1.8287 -0.6678
16229TIP3   OH270177   6.620   5.694  13.041 -0.2070 -0.7872  0.0465
16229TIP3    H170178   6.653   5.686  12.952 -0.2491  0.4099 -0.0883
16229TIP3    H270179   6.585   5.607  13.062 -1.5555 -0.6921 -1.6349
16230TIP3   OH270180   6.070   5.762   0.816  0.3989  0.7145  0.0434
16230TIP3    H170181   6.042   5.676   0.785  2.2023 -0.7438  2.1201
16230TIP3    H270182   6.065   5.819   0.739 -0.3936 -1.3332 -1.5054
16231TIP3   OH270183   1.171   6.636  15.131  0.2313 -0.4222 -0.2801
16231TIP3    H170184   1.172   6.632  15.035  0.0392 -0.7046 -0.2735
16231TIP3    H270185   1.118   6.713  15.151  0.8831  0.0609 -0.4049
16232TIP3   OH270186   2.950   4.522  16.143 -0.1389  0.8563 -0.0986
16232TIP3    H170187   3.010   4.552  16.211  0.2625  0.9780 -0.5020
16232TIP3    H270188   2.870   4.500  16.190  0.2248  0.6728  0.4488
16233TIP3   OH270189   1.208   0.366   3.952 -0.4068 -0.1953  0.3361
16233TIP3    H170190   1.181   0.384   4.042 -0.3398 -0.4638  0.4114
16233TIP3    H270191   1.302   0.349   3.958 -0.6275 -1.5137  0.4215
16234TIP3   OH270192   4.580   2.371   0.992  0.1071  0.3838  0.2434
16234TIP3    H170193   4.552   2.463   0.998  2.0017  0.9110  2.6143
16234TIP3    H270194   4.539   2.329   1.068  0.4676 -0.3765  0.0227
16235TIP3   OH270195   0.851   1.496   6.878  0.1354  0.1638  0.3145
16235TIP3    H170196   0.904   1.525   6.952 -0.3237 -1.2619  1.2500
16235TIP3    H270197   0.911   1.493   6.804  0.7265  1.1101  0.7387
16236TIP3   OH270198   6.175   3.463  11.781 -0.0152  0.0616  0.1876
16236TIP3    H170199   6.152   3.375  11.753  0.1384 -0.1548  0.7240
16236TIP3    H270200   6.220   3.450  11.865 -0.4608  0.6836  0.5337
16237TIP3   OH270201   4.646   4.355  14.881 -0.2128  0.4010  0.1426
16237TIP3    H170202   4.552   4.357  14.899 -0.4786 -2.2767 -0.4866
16237TIP3    H270203   4.657   4.414  14.807 -2.0647 -1.8340 -2.0787
16238TIP3   OH270204   3.139   3.874  14.700  0.4580 -0.4996  0.0067
16238TIP3    H170205   3.103   3.922  14.625  0.3123  0.7458  0.8498
16238TIP3    H270206   3.128   3.781  14.676 -0.9154 -0.1414 -0.8833
16239TIP3   OH270207   3.225   2.105   0.561  0.5586  0.5437  0.4181
16239TIP3    H170208   3.183   2.188   0.539  0.0811  0.4194  0.8546
16239TIP3    H270209   3.157   2.039   0.550  0.8799  0.2311  0.2669
16240TIP3   OH270210   0.464   4.031  13.975 -0.2375 -0.2466  0.1812
16240TIP3    H170211   0.462   3.939  14.002  0.9865 -0.7626 -1.3751
16240TIP3    H270212   0.379   4.065  14.002 -0.3984 -1.6025  1.5280
16241TIP3   OH270213   4.726   4.138   2.434 -0.0928 -0.0422 -0.4537
16241TIP3    H170214   4.716   4.080   2.509  2.0837  0.0699 -0.0118
16241TIP3    H270215   4.695   4.086   2.359 -0.7161 -0.7670  0.2990
16242TIP3   OH270216   4.443   3.326  13.322  0.1170 -0.1079 -0.2724
16242TIP3    H170217   4.486   3.402  13.361  2.1716 -1.3123 -0.0360
16242TIP3    H270218   4.513   3.281  13.274 -1.2880 -1.2495 -1.3253
16243TIP3   OH270219   6.812   3.029   4.373 -0.1529 -0.2163 -0.1702
16243TIP3    H170220   6.892   2.986   4.404  0.6427 -1.3449 -3.4310
16243TIP3    H270221   6.838   3.119   4.353 -0.7959  0.6848  2.5977
16244TIP3   OH270222   2.759   4.109   5.398 -0.3314  0.1102  0.6595
16244TIP3    H170223   2.727   4.019   5.404 -0.2592  0.1157  1.1550
16244TIP3    H270224   2.757   4.142   5.488  1.2639  0.0431  0.7415
16245TIP3   OH270225   4.491   1.068  15.192 -0.0904 -0.3753 -0.3089
16245TIP3    H170226   4.406   1.111  15.183 -0.9225 -1.6848  0.8579
16245TIP3    H270227   4.499   1.014  15.113 -0.0466  0.2093 -0.7117
16246TIP3   OH270228   6.320   0.215   2.873  0.6488 -0.5388 -0.6188
16246TIP3    H170229   6.390   0.183   2.930  0.2178 -0.1197  0.1488
16246TIP3    H270230   6.311   0.146   2.806  0.2961 -1.6443  0.5331
16247TIP3   OH270231   6.776   4.856   4.686 -0.1076 -0.7411 -0.6302
16247TIP3    H170232   6.687   4.833   4.658 -0.3299 -0.1328 -0.4287
16247TIP3    H270233   6.797   4.791   4.753 -0.8667 -0.1632  0.1873
16248TIP3   OH270234   6.780   1.049   1.585 -0.2532  0.8717  0.3726
16248TIP3    H170235   6.820   0.989   1.523  1.3481 -0.0781  2.2565
16248TIP3    H270236   6.814   1.135   1.560  2.2001  0.2200  1.2673
16249TIP3   OH270237   4.877   2.646   3.783 -0.0218 -0.0922  0.1355
16249TIP3    H170238   4.803   2.696   3.818 -0.0245  1.1913 -1.5738
16249TIP3    H270239   4.839   2.562   3.757 -0.4259 -0.2644  1.2385
16250TIP3   OH270240   6.595   5.983   3.047  0.1096 -0.1263  0.9416
16250TIP3    H170241   6.523   6.045   3.034  0.5441  0.1965 -0.0244
16250TIP3    H270242   6.559   5.917   3.105 -1.1255 -0.1880  0.1454
16251TIP3   OH270243   6.477   5.836   1.374  0.2740  0.0007  0.0650
16251TIP3    H170244   6.429   5.767   1.328  1.4172  0.3518 -1.7357
16251TIP3    H270245   6.555   5.850   1.321  0.6597  1.8389  1.0596
16252TIP3   OH270246   5.290   1.741  11.088  0.0514  0.0933 -0.1793
16252TIP3    H170247   5.204   1.780  11.105 -0.3315 -0.5223 -0.6413
16252TIP3    H270248   5.348   1.783  11.151 -0.7579 -0.0991  0.7208
16253TIP3   OH270249   2.439   6.425   1.422 -0.1300  0.3114 -0.3922
16253TIP3    H170250   2.476   6.453   1.338 -0.2753  0.7733 -0.3096
16253TIP3    H270251   2.369   6.489   1.438  0.9890  1.2764  0.8984
16254TIP3   OH270252   5.982   5.149  12.362 -0.3606 -0.0895  0.5562
16254TIP3    H170253   5.989   5.072  12.306  0.0633 -0.5736  1.2612
16254TIP3    H270254   5.947   5.115  12.445  1.0469  0.2391  1.3175
16255TIP3   OH270255   5.534   4.673  17.192 -0.4922 -0.2918 -0.4543
16255TIP3    H170256   5.474   4.599  17.200 -0.3478 -0.6901 -2.5315
16255TIP3    H270257   5.596   4.662  17.265 -2.2404 -0.4591  1.0828
16256TIP3   OH270258   1.182   5.608   2.782  0.1097 -0.0971 -0.1287
16256TIP3    H170259   1.259   5.554   2.800  0.0991  0.1741  0.8205
16256TIP3    H270260   1.212   5.673   2.719  0.6333 -0.0649  0.1490
16257TIP3   OH270261   2.448   0.186   6.012  0.2094 -0.3903  0.0431
16257TIP3    H170262   2.389   0.242   6.061  0.2171 -0.9724  0.7414
16257TIP3    H270263   2.390   0.128   5.961  0.1755 -0.8296  0.5761
16258TIP3   OH270264   1.867   6.770  13.601  0.2923 -0.4875  0.1186
16258TIP3    H170265   1.893   6.718  13.677 -0.9336  0.7187  1.4179
16258TIP3    H270266   1.926   6.845  13.602  0.3002 -0.4896 -0.1498
16259TIP3   OH270267   5.280   0.497   2.160  0.1474 -0.2691  0.3730
16259TIP3    H170268   5.306   0.575   2.208  0.0953 -2.0653  3.5506
16259TIP3    H270269   5.199   0.468   2.202  0.7639 -2.6559  0.0689
16260TIP3   OH270270   3.388   2.424  13.673 -0.1842  0.2163 -0.0039
16260TIP3    H170271   3.472   2.403  13.716 -0.1529  0.8992  0.2828
16260TIP3    H270272   3.323   2.375  13.723  0.0298 -0.2152 -0.1445
16261TIP3   OH270273   5.769   4.468   2.523 -0.7396  0.2679 -0.3671
16261TIP3    H170274   5.834   4.523   2.479  0.9053 -1.2182  0.1071
16261TIP3    H270275   5.751   4.397   2.462 -0.1795 -0.5532  0.3898
16262TIP3   OH270276   6.657   5.186  11.993  0.4863  0.4298  0.3369
16262TIP3    H170277   6.704   5.116  12.039  0.8413  0.1471 -0.4351
16262TIP3    H270278   6.725   5.232  11.944 -0.0177  0.0802 -0.7091
16263TIP3   OH270279   2.919   3.141   0.526  0.0232 -0.0950  0.1823
16263TIP3    H170280   2.920   3.208   0.595  0.6705  1.1765 -1.0228
16263TIP3    H270281   2.969   3.179   0.455 -0.8720 -1.2697 -1.1224
16264TIP3   OH270282   6.379   6.612   4.228  0.0468  0.0383 -0.0629
16264TIP3    H170283   6.447   6.663   4.184 -0.8660  1.3926  0.0299
16264TIP3    H270284   6.344   6.555   4.160  1.0005 -0.4053 -0.2027
16265TIP3   OH270285   4.138   5.809  15.806  0.0519  0.1322  0.2243
16265TIP3    H170286   4.153   5.903  15.793 -0.5907  0.3725  1.0476
16265TIP3    H270287   4.055   5.806  15.854  0.8305 -0.7746  1.5657
16266TIP3   OH270288   0.544   0.711   4.340 -0.2775 -0.1586 -0.0057
16266TIP3    H170289   0.515   0.644   4.278 -0.2182 -0.7129  0.5620
16266TIP3    H270290   0.584   0.779   4.285  0.7850 -1.1573 -0.5111
16267TIP3   OH270291   1.115   4.489   5.682  0.2268  0.2105  0.4180
16267TIP3    H170292   1.114   4.545   5.604  1.1265  0.5251  0.6226
16267TIP3    H270293   1.156   4.408   5.652 -0.2634 -0.0175  0.3464
16268TIP3   OH270294   5.446   0.794   0.607  0.2523  0.4272 -0.4712
16268TIP3    H170295   5.528   0.822   0.646  0.3841 -0.6914  0.0921
16268TIP3    H270296   5.394   0.760   0.680 -0.7114  1.0936 -0.8181
16269TIP3   OH270297   0.241   6.453  15.058 -0.2485  0.3845 -0.7823
16269TIP3    H170298   0.336   6.469  15.054  0.8317 -2.9175  3.7492
16269TIP3    H270299   0.230   6.363  15.027 -1.3234 -0.3547  1.5363
16270TIP3   OH270300   3.575   4.552   5.408  0.0344  0.3239  0.4705
16270TIP3    H170301   3.663   4.516   5.402 -0.1363 -0.0471  0.1852
16270TIP3    H270302   3.520   4.478   5.433  0.0868  0.9276  2.6665
16271TIP3   OH270303   3.383   0.525   1.137  0.1898  0.4656 -0.0383
16271TIP3    H170304   3.478   0.512   1.137 -0.0326 -1.7374 -1.4627
16271TIP3    H270305   3.367   0.584   1.063  0.2735 -1.5847 -1.7749
16272TIP3   OH270306   3.452   6.294   1.133 -0.3808 -0.3611  0.2228
16272TIP3    H170307   3.518   6.363   1.138 -0.6467 -0.1607  1.3208
16272TIP3    H270308   3.485   6.233   1.068  0.3598  0.2855 -0.0206
16273TIP3   OH270309   4.373   2.589   3.251  0.3266  0.8336  1.1379
16273TIP3    H170310   4.319   2.512   3.268  1.4336 -0.3953 -0.5639
16273TIP3    H270311   4.310   2.661   3.246 -1.1562 -0.4741 -0.2830
16274TIP3   OH270312   2.838   3.726   4.774  0.1298  0.0573 -0.2184
16274TIP3    H170313   2.873   3.719   4.863 -0.3587 -0.4050 -0.0584
16274TIP3    H270314   2.821   3.636   4.747 -0.7210  0.2591 -0.3801
16275TIP3   OH270315   3.059   0.222  14.143  0.0561  0.2906  0.1930
16275TIP3    H170316   3.000   0.170  14.087  1.3546 -0.7327 -0.2863
16275TIP3    H270317   3.147   0.194  14.117  0.7226  0.5218  2.0749
16276TIP3   OH270318   2.350   5.532   2.195  0.5580 -0.6532 -0.0090
16276TIP3    H170319   2.415   5.597   2.168  1.4084 -1.2382  0.6016
16276TIP3    H270320   2.387   5.491   2.273 -0.7957 -0.6209  0.6751
16277TIP3   OH270321   3.088   2.648   4.330 -0.4282  0.5212 -0.3284
16277TIP3    H170322   3.151   2.712   4.363 -0.3592  0.4509 -0.3256
16277TIP3    H270323   3.133   2.564   4.335 -0.4208  0.5082 -0.5861
16278TIP3   OH270324   1.074   3.177   4.790  0.3593  0.1866  0.5188
16278TIP3    H170325   1.166   3.154   4.779  1.0010  2.4153  0.6034
16278TIP3    H270326   1.040   3.114   4.852  2.0779 -0.1520  1.1636
16279TIP3   OH270327   1.998   4.691   0.049  0.0985 -0.2501 -0.1159
16279TIP3    H170328   2.032   4.627   0.112  0.5114  1.1675  1.1487
16279TIP3    H270329   1.917   4.724   0.089  0.5707  0.9537 -0.1135
16280TIP3   OH270330   0.773   4.510  14.178  0.2310 -0.6990 -0.1681
16280TIP3    H170331   0.733   4.429  14.209  1.1585 -1.5974 -1.2539
16280TIP3    H270332   0.867   4.498  14.191  0.3836  0.2030 -0.3368
16281TIP3   OH270333   4.000   0.957  15.550  0.2293  0.1386  0.1590
16281TIP3    H170334   4.019   0.884  15.610  0.0749 -1.3062 -1.4802
16281TIP3    H270335   3.925   1.001  15.591 -0.3093 -1.2133  0.7198
16282TIP3   OH270336   0.754   3.623  13.415 -0.5275 -0.2051 -0.2808
16282TIP3    H170337   0.835   3.675  13.416 -0.0968 -0.8730  0.6791
16282TIP3    H270338   0.771   3.554  13.351 -0.7360  0.2519 -0.8391
16283TIP3   OH270339   5.222   0.342  13.107  0.3995  0.4388 -0.4067
16283TIP3    H170340   5.224   0.293  13.025  0.0511 -0.5754  0.1837
16283TIP3    H270341   5.307   0.388  13.109  0.2254  0.8600 -1.5464
16284TIP3   OH270342   6.676   0.456   2.911  0.4270  0.0491  0.6612
16284TIP3    H170343   6.605   0.502   2.865  0.4807 -0.3493  0.1687
16284TIP3    H270344   6.640   0.438   2.998  0.1507  0.3941  0.6228
16285TIP3   OH270345   6.547   0.801   1.265 -0.9019  0.0793  0.3373
16285TIP3    H170346   6.543   0.857   1.342 -1.8519  0.2915  0.1428
16285TIP3    H270347   6.634   0.816   1.228 -2.3152  4.3537 -1.8679
16286TIP3   OH270348   2.126   4.269  16.059  0.3504  0.4585 -0.4923
16286TIP3    H170349   2.111   4.346  16.114  1.7505  0.4449 -0.0629
16286TIP3    H270350   2.081   4.289  15.977  2.1723  2.5510 -1.0640
16287TIP3   OH270351   5.368   0.858   5.259  0.1761  0.2176  0.0670
16287TIP3    H170352   5.324   0.899   5.333  1.1390  0.1837  0.6698
16287TIP3    H270353   5.425   0.792   5.297  2.2985  1.6193 -0.4785
16288TIP3   OH270354   4.411   0.805  13.254  0.1798 -0.0911  0.1709
16288TIP3    H170355   4.380   0.749  13.324 -0.7083  2.5203  2.0144
16288TIP3    H270356   4.335   0.817  13.196  0.7289 -1.7188 -0.9466
16289TIP3   OH270357   2.195   1.752  13.125 -0.7798 -0.2323  0.3632
16289TIP3    H170358   2.211   1.846  13.117 -4.4705  0.5227  0.0845
16289TIP3    H270359   2.125   1.745  13.190 -0.9678 -2.7224 -0.0145
16290TIP3   OH270360   1.289   6.366   1.023 -0.0871  0.0627 -0.3691
16290TIP3    H170361   1.343   6.288   1.018 -0.6465 -0.3354 -0.3353
16290TIP3    H270362   1.212   6.339   1.074 -0.1396  0.7184 -0.0849
16291TIP3   OH270363   2.285   0.453   4.674 -0.2817 -0.3501  0.3175
16291TIP3    H170364   2.246   0.538   4.652  1.8591  0.7685  0.4921
16291TIP3    H270365   2.330   0.427   4.593  0.7885 -0.2762  0.8744
16292TIP3   OH270366   1.305   1.137  12.266  0.2160  0.2116  0.1919
16292TIP3    H170367   1.289   1.073  12.196 -1.2392  0.3124  0.3894
16292TIP3    H270368   1.339   1.085  12.339 -1.2770 -0.4327  0.4705
16293TIP3   OH270369   4.635   4.926   5.125  0.3227 -0.3012 -0.2616
16293TIP3    H170370   4.587   4.966   5.197 -0.7647 -0.2354 -1.0121
16293TIP3    H270371   4.696   4.994   5.095 -0.5818  0.3476 -0.6603
16294TIP3   OH270372   5.891   5.581  14.551 -0.3315 -0.2619  0.4658
16294TIP3    H170373   5.947   5.520  14.599  0.9411 -1.2065 -2.0727
16294TIP3    H270374   5.803   5.546  14.562  0.2662 -2.0794 -0.1518
16295TIP3   OH270375   6.638   0.045   1.775  0.0858  0.6380  0.3915
16295TIP3    H170376   6.618   0.134   1.745 -0.4096  0.5744  0.5317
16295TIP3    H270377   6.610  -0.012   1.703  0.3900  0.5908  0.3077
16296TIP3   OH270378   4.771   0.830   2.602  0.1213 -0.3093  0.5566
16296TIP3    H170379   4.747   0.856   2.691  0.5600  2.0593  0.0468
16296TIP3    H270380   4.688   0.815   2.558 -0.0953 -1.7571  1.3938
16297TIP3   OH270381   3.541   4.968   3.923 -0.1816  0.4035  0.3408
16297TIP3    H170382   3.476   4.921   3.975 -0.6485  0.1873 -0.4163
16297TIP3    H270383   3.585   5.025   3.985 -0.1964 -0.4065  1.1154
16298TIP3   OH270384   2.450   5.591   1.461  0.0307  0.5737 -0.4272
16298TIP3    H170385   2.408   5.651   1.399  0.1652  1.9703  0.7541
16298TIP3    H270386   2.377   5.545   1.502 -0.1625  0.7941 -0.5142
16299TIP3   OH270387   0.914   0.958  13.270  0.1569  0.0856  0.2345
16299TIP3    H170388   0.929   0.868  13.300 -1.1035 -0.2459 -0.0738
16299TIP3    H270389   1.002   0.992  13.250  0.7371 -0.7290  1.3044
16300TIP3   OH270390   6.218   2.230  14.939  0.1802 -0.5519  0.3809
16300TIP3    H170391   6.220   2.183  14.856  1.8350 -1.2375  0.7776
16300TIP3    H270392   6.134   2.206  14.978 -0.2591 -0.8601 -0.7255
16301TIP3   OH270393   3.530   6.534   2.383 -0.0846  0.1845 -0.2953
16301TIP3    H170394   3.495   6.498   2.465 -1.7921  1.7123 -0.2933
16301TIP3    H270395   3.456   6.532   2.322  0.0776  2.4398 -0.6653
16302TIP3   OH270396   3.551   3.769  16.247 -0.0263  0.5942 -0.0835
16302TIP3    H170397   3.560   3.694  16.307  2.4172 -0.3204 -1.4216
16302TIP3    H270398   3.477   3.818  16.280 -1.1815 -1.9566  1.3967
16303TIP3   OH270399   0.461   4.363   4.585 -0.0527  0.4365 -0.0650
16303TIP3    H170400   0.400   4.396   4.519 -0.7290  0.5523  0.6037
16303TIP3    H270401   0.536   4.423   4.580  0.9377 -0.8414 -2.2429
16304TIP3   OH270402   2.536   1.932   2.550 -0.1551  0.6771  0.1395
16304TIP3    H170403   2.528   1.867   2.620 -0.9079 -0.1499 -0.6836
16304TIP3    H270404   2.508   2.014   2.590 -0.3773  0.2589  0.8610
16305TIP3   OH270405   6.675   3.435   2.641 -0.5480  0.9520 -0.2132
16305TIP3    H170406   6.717   3.492   2.577 -1.3795  0.7272 -0.9753
16305TIP3    H270407   6.584   3.465   2.643 -1.4340 -1.3390 -1.8556
16306TIP3   OH270408   0.986   3.313   2.845  0.3070  0.1369  0.0725
16306TIP3    H170409   0.944   3.227   2.841  0.7247 -0.1025  0.7250
16306TIP3    H270410   0.989   3.342   2.753 -1.3332  0.2054 -0.0007
16307TIP3   OH270411   1.741   5.052  14.677 -0.4923  0.4067 -0.3992
16307TIP3    H170412   1.682   4.977  14.669  1.1882 -1.0403  0.1271
16307TIP3    H270413   1.686   5.128  14.657 -2.6597 -0.7894  0.6770
16308TIP3   OH270414   1.170   6.592   4.571  0.3620 -0.3485 -0.2919
16308TIP3    H170415   1.088   6.595   4.620  0.9163 -1.6740  0.8274
16308TIP3    H270416   1.193   6.499   4.569  2.1811  0.0367  0.0805
16309TIP3   OH270417   5.609   0.384  13.793  0.0066 -0.3993 -0.1688
16309TIP3    H170418   5.674   0.437  13.747  1.0298 -2.0944 -0.7620
16309TIP3    H270419   5.648   0.297  13.798 -1.4923 -1.0544  1.0239
16310TIP3   OH270420   4.723   0.015  13.137  0.3202 -0.3873  0.0218
16310TIP3    H170421   4.790  -0.007  13.202  1.8705  0.5567 -1.1814
16310TIP3    H270422   4.644  -0.030  13.167  1.4601 -1.4462  1.5568
16311TIP3   OH270423   1.630   2.830  14.546 -0.2516 -0.1312  0.4124
16311TIP3    H170424   1.654   2.739  14.564 -1.9107 -0.5856  0.5033
16311TIP3    H270425   1.690   2.882  14.599  0.6187 -1.1722  0.4770
16312TIP3   OH270426   0.416   0.312   0.029  0.0640  0.3467  0.0566
16312TIP3    H170427   0.326   0.305  -0.003 -0.0427 -0.8362  0.5396
16312TIP3    H270428   0.466   0.253  -0.028  0.6537  1.4406 -0.5813
16313TIP3   OH270429   4.678   1.421   0.928  0.4984 -0.0344  0.3853
16313TIP3    H170430   4.773   1.411   0.929  0.4469 -0.5402  1.3024
16313TIP3    H270431   4.656   1.429   0.835  1.6378  2.3032  0.2272
16314TIP3   OH270432   2.415   4.659   2.948 -0.2130 -0.9011  0.1997
16314TIP3    H170433   2.413   4.623   3.037  0.1073 -1.6820 -0.0961
16314TIP3    H270434   2.507   4.679   2.932 -0.4611  0.5712  0.5527
16315TIP3   OH270435   3.451   0.026   1.445  0.1576 -0.3890 -0.1006
16315TIP3    H170436   3.415   0.032   1.534  4.3768 -1.6215  1.9763
16315TIP3    H270437   3.484  -0.064   1.439  1.3721  0.1278 -2.3290
16316TIP3   OH270438   4.357   6.458  14.219 -0.6198 -0.6210  0.1898
16316TIP3    H170439   4.310   6.385  14.177 -0.2953 -0.2570 -0.8335
16316TIP3    H270440   4.445   6.454  14.184 -0.4458 -0.0623  0.5447
16317TIP3   OH270441   3.922   3.866  13.347  0.3215  0.6610  0.0999
16317TIP3    H170442   3.996   3.924  13.367 -0.1415  1.2950 -0.0273
16317TIP3    H270443   3.846   3.910  13.383  0.2907 -1.1774  2.5530
16318TIP3   OH270444   1.538   3.156   4.309 -0.3009  0.5217 -0.1240
16318TIP3    H170445   1.463   3.138   4.366  0.2772  0.6902  0.7075
16318TIP3    H270446   1.510   3.230   4.255  0.4376  2.9103  2.5534
16319TIP3   OH270447   0.891   4.661  17.051  0.4152  0.1411 -0.2219
16319TIP3    H170448   0.877   4.674  16.957  0.7217  2.3109 -0.0020
16319TIP3    H270449   0.825   4.716  17.093  0.9105 -0.0549  0.8400
16320TIP3   OH270450   2.934   2.093   1.414  0.0310 -0.1248 -0.3502
16320TIP3    H170451   2.954   2.102   1.507 -1.1038 -1.0526  0.0064
16320TIP3    H270452   2.965   2.006   1.390 -0.6962 -0.3348 -0.5518
16321TIP3   OH270453   5.779   0.720   3.149  0.0411 -0.5465  0.3301
16321TIP3    H170454   5.729   0.638   3.154  0.0251 -0.6489 -1.1601
16321TIP3    H270455   5.828   0.713   3.067  0.9037  0.4627  0.7450
16322TIP3   OH270456   0.777   5.091  10.332  0.0117 -0.5260  0.3093
16322TIP3    H170457   0.848   5.040  10.292  0.7256 -0.6616  1.6988
16322TIP3    H270458   0.821   5.165  10.374 -0.9143  0.6893 -0.7935
16323TIP3   OH270459   3.430   6.488   5.741  0.7962  0.1816 -0.1501
16323TIP3    H170460   3.455   6.469   5.650  2.3937 -1.8192  0.6066
16323TIP3    H270461   3.491   6.436   5.793  1.2380  2.7876  2.1641
16324TIP3   OH270462   4.102   2.366   2.515  0.1901 -0.3094 -0.1447
16324TIP3    H170463   4.069   2.455   2.516 -0.9034 -0.6998  0.7588
16324TIP3    H270464   4.049   2.319   2.579  0.8460 -1.5768 -0.4732
16325TIP3   OH270465   1.072   6.158  11.858  0.1399  0.2135 -0.4313
16325TIP3    H170466   0.982   6.141  11.884 -0.2265  3.5650  0.9780
16325TIP3    H270467   1.115   6.190  11.938  2.6203 -1.2540 -1.0525
16326TIP3   OH270468   3.432   2.993   1.498  0.8106 -0.0639 -0.3360
16326TIP3    H170469   3.361   2.974   1.436  0.8888 -0.5258 -0.2805
16326TIP3    H270470   3.406   3.077   1.538 -0.8322 -1.2621  1.2999
16327TIP3   OH270471   6.299   2.094   1.333  0.3941 -0.3118 -0.2281
16327TIP3    H170472   6.332   2.141   1.257 -0.2285  0.1233 -0.2290
16327TIP3    H270473   6.368   2.105   1.399  0.4599  0.2041 -0.3768
16328TIP3   OH270474   4.183   4.687  16.140 -0.0244  0.0839 -0.6907
16328TIP3    H170475   4.269   4.688  16.098  1.1098 -1.6631  1.3793
16328TIP3    H270476   4.156   4.596  16.138 -1.6731  0.5438 -0.9122
16329TIP3   OH270477   0.377   3.522   6.515  0.2204  0.2964  0.1086
16329TIP3    H170478   0.427   3.552   6.439  0.9150  0.0066  0.4497
16329TIP3    H270479   0.412   3.572   6.588  0.9043 -0.8142  0.5642
16330TIP3   OH270480   5.040   4.037  17.143 -0.3448 -0.2228  0.0149
16330TIP3    H170481   5.093   4.067  17.217 -1.5905 -2.1920  1.8242
16330TIP3    H270482   5.055   3.943  17.139 -0.0789 -0.1458 -2.5172
16331TIP3   OH270483   2.305   3.646   2.315  0.2711 -0.1505  0.1601
16331TIP3    H170484   2.283   3.623   2.224  0.2394  0.0946  0.1059
16331TIP3    H270485   2.314   3.741   2.314 -1.3620  0.0252  0.7829
16332TIP3   OH270486   1.687   4.381   3.721  0.1960  0.3472 -0.8926
16332TIP3    H170487   1.610   4.434   3.742 -1.1384 -2.1783  0.9681
16332TIP3    H270488   1.761   4.432   3.755 -1.1694  0.3387  2.3803
16333TIP3   OH270489   3.640   0.609   0.164 -0.4285  0.2219  0.3099
16333TIP3    H170490   3.643   0.529   0.216 -1.8854 -2.0818 -2.8041
16333TIP3    H270491   3.582   0.667   0.212 -1.5614 -1.6888  1.3735
16334TIP3   OH270492   6.236   1.641   5.525  0.3594  0.6626  0.0029
16334TIP3    H170493   6.199   1.730   5.518  0.3102  0.7862  1.4482
16334TIP3    H270494   6.280   1.627   5.442 -1.0189  1.4063 -0.9056
16335TIP3   OH270495   6.164   4.234   4.870 -0.1556  0.6409  0.6130
16335TIP3    H170496   6.178   4.310   4.813 -0.8234  1.0714  1.0055
16335TIP3    H270497   6.139   4.164   4.811  0.8962  0.5961  0.1953
16336TIP3   OH270498   1.687   6.751   5.223  0.2152  0.4394  0.4084
16336TIP3    H170499   1.601   6.720   5.253  0.1242  0.8108  0.5414
16336TIP3    H270500   1.666   6.824   5.163  0.4370  0.5430  0.4561
16337TIP3   OH270501   0.929   1.109   6.354  0.2177  0.1131 -0.0254
16337TIP3    H170502   0.855   1.048   6.357  0.1578  0.1902  0.0965
16337TIP3    H270503   0.913   1.169   6.428  0.6330 -0.1366  0.2725
16338TIP3   OH270504   0.333   5.394  16.026 -0.0922  0.1024 -0.5684
16338TIP3    H170505   0.250   5.365  16.064 -0.6539  0.6176 -1.3738
16338TIP3    H270506   0.397   5.380  16.096 -0.5707 -1.7253 -0.4563
16339TIP3   OH270507   4.919   4.119  12.639  0.4002  0.7476  0.1876
16339TIP3    H170508   4.966   4.056  12.585  0.1639  0.2107  0.5959
16339TIP3    H270509   4.984   4.185  12.662 -0.0882  2.6318 -3.1187
16340TIP3   OH270510   1.100   1.264  16.332  1.0155 -0.1146 -0.2793
16340TIP3    H170511   1.019   1.230  16.371  1.7245 -1.1322  0.3545
16340TIP3    H270512   1.141   1.313  16.403  1.7309 -0.9588 -0.1043
16341TIP3   OH270513   2.491   2.410   5.629  0.1736  0.8026  0.4930
16341TIP3    H170514   2.510   2.357   5.706 -1.2136 -0.2536  0.1373
16341TIP3    H270515   2.546   2.488   5.640  3.3336 -1.2063  0.3736
16342TIP3   OH270516   1.389   5.003   1.496 -1.0783 -0.2894  0.0914
16342TIP3    H170517   1.379   4.962   1.410  0.4659 -0.4070 -0.0649
16342TIP3    H270518   1.320   4.965   1.550 -1.7241 -0.6186 -0.9419
16343TIP3   OH270519   4.151   1.227   5.705  0.1506  0.0994  0.0574
16343TIP3    H170520   4.115   1.307   5.667 -0.1489 -0.3730 -0.6730
16343TIP3    H270521   4.095   1.208   5.780 -0.2260  0.1690 -0.2070
16344TIP3   OH270522   5.579   4.423   2.743  0.2503  0.2303 -0.8204
16344TIP3    H170523   5.534   4.493   2.789  0.6054 -0.2971  0.3646
16344TIP3    H270524   5.648   4.467   2.693  0.8337  0.6834  0.3601
16345TIP3   OH270525   3.235   2.548   5.169  0.3686  0.1108 -0.4319
16345TIP3    H170526   3.301   2.618   5.166 -0.5033  0.9805 -0.0436
16345TIP3    H270527   3.176   2.574   5.240 -0.7165 -0.3422 -1.1438
16346TIP3   OH270528   1.936   0.874  16.373  0.3150  0.1216  0.2382
16346TIP3    H170529   1.983   0.932  16.312  1.9007 -1.0818  0.2508
16346TIP3    H270530   1.850   0.915  16.383  0.9140  1.7456 -0.7831
16347TIP3   OH270531   3.508   4.305   2.711  0.4813  0.0188 -0.0520
16347TIP3    H170532   3.493   4.236   2.775 -0.8837  0.6726  0.3752
16347TIP3    H270533   3.468   4.272   2.631 -1.3529  0.7925  0.4844
16348TIP3   OH270534   5.460   6.152  10.489  0.0960  0.3387 -0.6612
16348TIP3    H170535   5.501   6.239  10.489 -0.6309  0.8458  3.1958
16348TIP3    H270536   5.531   6.092  10.470  1.1647  1.6252 -0.8954
16349TIP3   OH270537   3.116   1.829  13.129 -0.0600  0.0005  0.0342
16349TIP3    H170538   3.169   1.888  13.075 -2.0048  0.3957 -1.5355
16349TIP3    H270539   3.133   1.857  13.219 -0.0020  2.1761 -0.6034
16350TIP3   OH270540   1.922   3.034  11.209 -0.2211  0.7562 -0.2054
16350TIP3    H170541   1.845   3.091  11.200 -1.3989 -0.5317  1.2037
16350TIP3    H270542   1.897   2.953  11.164  0.2853  0.2974  0.3230
16351TIP3   OH270543   0.951   3.045  13.302 -0.6341 -0.4647 -0.8879
16351TIP3    H170544   0.950   3.082  13.390 -0.0231  0.0806 -1.1045
16351TIP3    H270545   1.006   2.967  13.310 -2.8695 -2.0678 -0.1650
16352TIP3   OH270546   4.342   0.754   5.625  0.1027  0.0553 -0.2022
16352TIP3    H170547   4.284   0.829   5.635 -0.8286 -0.6240 -0.3943
16352TIP3    H270548   4.386   0.769   5.541  1.1739  1.2044  0.5285
16353TIP3   OH270549   2.791   4.830   1.746 -0.2745 -0.1700 -0.7473
16353TIP3    H170550   2.882   4.813   1.722  0.0288  2.0717 -1.3395
16353TIP3    H270551   2.767   4.755   1.801  3.1743  0.8998  2.7145
16354TIP3   OH270552   5.064   4.156   2.853 -0.0328  0.3594  0.0391
16354TIP3    H170553   5.075   4.062   2.835 -0.6658  0.4211 -0.7229
16354TIP3    H270554   5.106   4.200   2.778 -1.1070  0.6483 -0.4169
16355TIP3   OH270555   3.318   2.692   3.148  0.1970  0.8126 -0.4711
16355TIP3    H170556   3.317   2.737   3.232 -1.2774 -0.5284  0.2761
16355TIP3    H270557   3.227   2.690   3.120  0.2204 -1.3397 -0.6195
16356TIP3   OH270558   2.789   0.136  16.841  0.1206 -0.1097  0.7356
16356TIP3    H170559   2.714   0.187  16.874 -0.8330 -1.7650  1.2218
16356TIP3    H270560   2.860   0.157  16.902 -0.4175  0.1895  1.2744
16357TIP3   OH270561   2.881   6.159  12.014 -0.1812 -0.0311  0.1798
16357TIP3    H170562   2.877   6.230  12.078  0.4372 -0.1050  0.3021
16357TIP3    H270563   2.791   6.126  12.009  0.0593 -1.1639  2.2962
16358TIP3   OH270564   5.392   2.779   6.245  0.0205  0.0288 -0.0261
16358TIP3    H170565   5.391   2.691   6.284  0.8714  0.4065  0.9150
16358TIP3    H270566   5.372   2.837   6.319  0.9881  0.7208 -0.2911
16359TIP3   OH270567   5.530   1.304   3.489  0.1490  0.3736  0.3733
16359TIP3    H170568   5.441   1.335   3.510  0.2201  0.5896  0.3625
16359TIP3    H270569   5.541   1.225   3.541 -0.4114 -0.1933 -0.3480
16360TIP3   OH270570   5.310   4.043   2.338 -0.0460  0.0235  0.6455
16360TIP3    H170571   5.360   4.010   2.413 -0.3035 -3.4034 -0.5048
16360TIP3    H270572   5.222   4.010   2.352  0.0863 -1.4233 -1.4824
16361TIP3   OH270573   0.710   4.611   1.782 -0.0105  0.0861 -0.1561
16361TIP3    H170574   0.634   4.640   1.731  0.4162 -0.4069 -1.0896
16361TIP3    H270575   0.785   4.643   1.732  0.4096  0.6803  0.8311
16362TIP3   OH270576   3.672   5.257   3.891  0.6500  0.7164 -0.5723
16362TIP3    H170577   3.754   5.209   3.900  0.0646 -0.7225 -2.3522
16362TIP3    H270578   3.604   5.190   3.897 -0.5195  1.9747  1.7174
16363TIP3   OH270579   5.554   3.163  16.165 -1.2527 -0.1144  0.7743
16363TIP3    H170580   5.607   3.169  16.245 -0.6193  0.0409  0.3528
16363TIP3    H270581   5.618   3.162  16.094 -1.6890 -2.3543  0.3346
16364TIP3   OH270582   4.576   4.135   0.840  0.0998  0.4692 -0.4963
16364TIP3    H170583   4.611   4.080   0.911  0.1288  0.9467 -0.1309
16364TIP3    H270584   4.590   4.084   0.761  1.9982  0.7817 -0.4151
16365TIP3   OH270585   1.850   4.655  13.074  0.0109  0.0189  0.2387
16365TIP3    H170586   1.822   4.745  13.057  1.6174  0.5852  0.4407
16365TIP3    H270587   1.945   4.661  13.087  0.3428 -1.8873 -0.9544
16366TIP3   OH270588   4.671   4.636   5.111 -0.3093  0.5792 -0.6895
16366TIP3    H170589   4.693   4.729   5.097 -0.4016  0.4145 -2.0662
16366TIP3    H270590   4.576   4.634   5.114 -0.2912  0.6350  0.2830
16367TIP3   OH270591   4.838   4.617  12.850  0.0509  0.4026 -0.3380
16367TIP3    H170592   4.859   4.680  12.919  1.3937 -0.0429 -0.3001
16367TIP3    H270593   4.798   4.669  12.781  0.6140  1.2036 -0.0738
16368TIP3   OH270594   0.967   5.754  13.046 -0.0405 -0.6290 -0.0848
16368TIP3    H170595   0.957   5.849  13.041  1.2967 -0.3870  0.9903
16368TIP3    H270596   0.902   5.719  12.986  0.4854  1.0147 -1.6844
16369TIP3   OH270597   0.723   4.224  12.353  0.6249  1.1005 -0.2376
16369TIP3    H170598   0.762   4.277  12.283 -0.3937  0.3045 -1.4547
16369TIP3    H270599   0.795   4.167  12.382  0.7330  0.5264 -1.5716
16370TIP3   OH270600   3.756   0.091   2.704  0.3310 -0.5836  0.2297
16370TIP3    H170601   3.698   0.160   2.671  0.5726 -0.1732  0.6474
16370TIP3    H270602   3.761   0.028   2.632  1.3055  0.5717 -0.7570
16371TIP3   OH270603   1.172   0.027  16.929 -0.1573  0.4548 -0.1395
16371TIP3    H170604   1.240   0.007  16.865 -0.3666  0.6464 -0.4284
16371TIP3    H270605   1.100  -0.031  16.906  0.1142 -0.1556  0.5223
16372TIP3   OH270606   4.795   1.767  13.673 -0.0898  0.1590 -0.6394
16372TIP3    H170607   4.812   1.783  13.581  0.7475 -1.6803 -0.8589
16372TIP3    H270608   4.882   1.757  13.712 -0.4605 -0.6613  0.0195
16373TIP3   OH270609   2.971   0.327  12.872  0.0958 -0.0251 -0.2036
16373TIP3    H170610   2.952   0.350  12.963 -0.3377 -1.3454  0.0615
16373TIP3    H270611   2.915   0.385  12.821 -1.2811 -0.7294  0.4497
16374TIP3   OH270612   0.492   4.163   0.763 -0.5778 -0.2055 -0.1403
16374TIP3    H170613   0.506   4.253   0.793 -0.8808  0.1923 -1.1569
16374TIP3    H270614   0.402   4.142   0.789 -0.6399 -0.0748 -0.2494
16375TIP3   OH270615   0.414   6.433   3.525  0.0023 -0.2250 -0.4215
16375TIP3    H170616   0.374   6.434   3.612  0.9459 -1.5466  0.0623
16375TIP3    H270617   0.347   6.396   3.468 -0.4693  0.2475 -0.1826
16376TIP3   OH270618   0.606   4.315   3.526  0.1261 -0.1558  0.0701
16376TIP3    H170619   0.602   4.271   3.441 -3.1937 -2.5989  1.2778
16376TIP3    H270620   0.649   4.253   3.584 -0.7256  0.0015  0.8989
16377TIP3   OH270621   0.942   1.843  12.074  0.0716 -0.0878 -0.2032
16377TIP3    H170622   0.868   1.789  12.103  0.2282  0.5889  1.5524
16377TIP3    H270623   0.911   1.933  12.083  0.7370  0.1824 -0.5574
16378TIP3   OH270624   0.868   2.692   2.435  0.3234  0.0242 -0.2758
16378TIP3    H170625   0.787   2.672   2.484 -0.4370  1.5164 -0.8656
16378TIP3    H270626   0.854   2.652   2.349  0.5449 -0.3517 -0.1408
16379TIP3   OH270627   2.068   3.622  14.102  0.3112  0.0286  0.3496
16379TIP3    H170628   2.006   3.662  14.164  0.0400 -0.4356  0.3826
16379TIP3    H270629   2.019   3.617  14.020  1.0802  1.8042 -0.2721
16380TIP3   OH270630   4.141   5.597   5.183  0.6151 -0.3749 -0.0755
16380TIP3    H170631   4.064   5.581   5.237 -0.0890 -1.9743 -1.4666
16380TIP3    H270632   4.215   5.568   5.238  0.0139 -1.0034  0.4190
16381TIP3   OH270633   4.506   3.201   5.401  0.3974 -0.2033  0.1215
16381TIP3    H170634   4.467   3.140   5.463  1.0767 -1.2061 -0.4054
16381TIP3    H270635   4.524   3.148   5.323 -0.2819  0.9833 -0.8804
16382TIP3   OH270636   0.158   3.132   0.944 -0.0385 -0.4364 -0.6731
16382TIP3    H170637   0.214   3.156   0.870 -0.5838 -0.4419 -1.0990
16382TIP3    H270638   0.075   3.106   0.903 -0.0715 -1.2456 -0.1123
16383TIP3   OH270639   0.848   3.730   5.678  1.0070  0.3021 -0.1372
16383TIP3    H170640   0.797   3.801   5.718 -0.3210 -1.0859  0.7695
16383TIP3    H270641   0.798   3.706   5.600  0.6544 -0.5529  0.3357
16384TIP3   OH270642   1.824   0.028   4.392  0.7486 -0.0038 -0.5767
16384TIP3    H170643   1.770  -0.051   4.400  0.5642  0.1841  0.0412
16384TIP3    H270644   1.795   0.069   4.311 -0.3278  0.3157 -0.0384
16385TIP3   OH270645   2.171   4.414   5.173 -0.0779  0.2047 -0.3403
16385TIP3    H170646   2.138   4.425   5.084 -0.3062  0.2722 -0.2493
16385TIP3    H270647   2.238   4.482   5.182 -1.9029  2.0370  0.4163
16386TIP3   OH270648   5.019   4.464  16.569 -0.3109  0.4494  0.4441
16386TIP3    H170649   5.100   4.483  16.617  1.2321 -2.2911 -0.8239
16386TIP3    H270650   4.991   4.379  16.602 -0.5564 -0.3629 -1.6967
16387TIP3   OH270651   3.959   2.383  15.524  0.5649  0.0253  0.0208
16387TIP3    H170652   4.045   2.341  15.524  0.3491 -0.4517  0.9556
16387TIP3    H270653   3.968   2.455  15.462  3.0474  2.7105  3.1102
16388TIP3   OH270654   3.224   6.166  13.390 -0.1702  0.2344  0.8767
16388TIP3    H170655   3.312   6.138  13.366 -0.7421 -1.3079  0.4269
16388TIP3    H270656   3.176   6.164  13.307 -0.7916  0.3687  1.2321
16389TIP3   OH270657   5.225   0.105  12.231  0.2032  0.1630  0.0660
16389TIP3    H170658   5.319   0.096  12.221  0.1038 -1.6687  0.5234
16389TIP3    H270659   5.188   0.071  12.150 -0.0926  0.3354  0.1261
16390TIP3   OH270660   2.275   6.422   2.142  0.3023  0.5059 -0.3348
16390TIP3    H170661   2.301   6.372   2.065  1.5189  0.2142  0.2427
16390TIP3    H270662   2.193   6.381   2.171 -0.2709  0.7506 -1.5656
16391TIP3   OH270663   0.698   4.703  15.956  0.6626  0.2456  0.1609
16391TIP3    H170664   0.692   4.729  15.864 -0.2189  0.6023  0.3089
16391TIP3    H270665   0.769   4.639  15.959  0.3685 -0.1412 -0.8522
16392TIP3   OH270666   5.359   3.605   2.391  0.1392 -0.1668 -0.0737
16392TIP3    H170667   5.298   3.669   2.428  0.1035 -0.3816  0.2354
16392TIP3    H270668   5.372   3.540   2.460  0.7146 -0.1272 -0.1399
16393TIP3   OH270669   4.738   4.702  13.877  0.0903  0.0107 -0.6921
16393TIP3    H170670   4.666   4.756  13.845  0.7502 -0.2794 -2.8241
16393TIP3    H270671   4.817   4.753  13.855  0.5851  0.7233  2.3452
16394TIP3   OH270672   6.734   5.591   6.294 -0.0821 -0.3606 -0.4634
16394TIP3    H170673   6.816   5.543   6.289 -0.2470 -0.8234  0.7970
16394TIP3    H270674   6.758   5.677   6.327 -0.1511 -0.7233  0.5896
16395TIP3   OH270675   2.343   4.634  15.713  0.0253  0.0664 -0.3069
16395TIP3    H170676   2.274   4.698  15.729  1.0851  1.2581 -0.3245
16395TIP3    H270677   2.297   4.555  15.683 -1.5434 -0.1516  2.3577
16396TIP3   OH270678   2.299   2.807  16.707 -0.0987 -0.6568 -0.2198
16396TIP3    H170679   2.394   2.793  16.708 -0.1675 -1.1878  1.1429
16396TIP3    H270680   2.279   2.838  16.796 -1.0566  0.5284 -0.8273
16397TIP3   OH270681   3.739   3.631   5.547  0.2679 -0.4694  0.3780
16397TIP3    H170682   3.771   3.626   5.457 -0.0930  0.4470  0.1849
16397TIP3    H270683   3.811   3.599   5.600  0.9916  0.2549 -0.1508
16398TIP3   OH270684   2.878   5.884   0.493  0.4387  0.2590 -0.0047
16398TIP3    H170685   2.821   5.810   0.510  2.2562 -1.0041  0.8932
16398TIP3    H270686   2.883   5.931   0.576 -0.6687  1.4226 -0.5550
16399TIP3   OH270687   0.500   2.593  16.420 -0.4480  0.2993  0.3528
16399TIP3    H170688   0.406   2.610  16.419 -0.3932  1.0742 -3.2304
16399TIP3    H270689   0.511   2.511  16.374  0.7102  1.0097 -0.6934
16400TIP3   OH270690   6.427   1.200   2.909 -0.1199 -0.0105  0.0611
16400TIP3    H170691   6.437   1.121   2.962 -1.8096 -0.5245 -0.3199
16400TIP3    H270692   6.410   1.168   2.820 -1.1410  0.7536 -0.0428
16401TIP3   OH270693   4.296   2.935   3.409  0.2561  0.1099 -0.1510
16401TIP3    H170694   4.237   3.007   3.432  1.5354  1.2144 -0.1966
16401TIP3    H270695   4.335   2.908   3.492  0.1156 -0.2357 -0.1952
16402TIP3   OH270696   6.058   0.576   4.374  0.6855  0.1559  0.3501
16402TIP3    H170697   6.028   0.512   4.438 -0.1944 -0.2881 -0.4653
16402TIP3    H270698   6.153   0.564   4.369  0.9552  1.0618  2.4510
16403TIP3   OH270699   4.896   0.554   1.481 -0.3475  0.4367 -0.5499
16403TIP3    H170700   4.864   0.490   1.416  0.3601 -0.9328  0.3918
16403TIP3    H270701   4.962   0.605   1.434  1.7221 -1.9363 -0.4305
16404TIP3   OH270702   1.063   2.768  11.582  0.0763  0.1528  0.9403
16404TIP3    H170703   1.022   2.833  11.638  0.0869  1.0647 -0.0820
16404TIP3    H270704   1.058   2.805  11.494  0.7754 -0.8819  0.4416
16405TIP3   OH270705   6.632   5.697   0.211 -0.1833  0.2728  0.4279
16405TIP3    H170706   6.595   5.677   0.125  1.0072 -0.0561 -0.0243
16405TIP3    H270707   6.644   5.792   0.210  2.2577  0.0204 -0.8271
16406TIP3   OH270708   2.937   1.075  14.835  0.0328 -0.3154 -0.3446
16406TIP3    H170709   2.908   1.058  14.924 -0.7377 -0.7509 -0.6644
16406TIP3    H270710   3.019   1.122  14.844 -0.1884 -0.1057  0.5915
16407TIP3   OH270711   0.623   5.150   4.292 -0.3591 -0.0136 -0.4865
16407TIP3    H170712   0.539   5.118   4.260  0.3288 -1.3659 -1.0602
16407TIP3    H270713   0.686   5.083   4.264  1.0159  1.3096 -0.7095
16408TIP3   OH270714   4.079   1.441   0.855 -0.1247  0.5251 -0.5410
16408TIP3    H170715   4.065   1.363   0.909 -1.7279  0.8944 -0.3604
16408TIP3    H270716   3.991   1.479   0.845  0.3318  1.2351 -2.2504
16409TIP3   OH270717   0.830   0.196  15.846 -0.6254  0.0295  0.5805
16409TIP3    H170718   0.833   0.249  15.926 -1.8440  0.1730  0.5406
16409TIP3    H270719   0.911   0.219  15.799  0.6424 -0.8166  2.2316
16410TIP3   OH270720   1.328   5.328  14.367 -0.2673 -0.1065  0.3423
16410TIP3    H170721   1.379   5.381  14.306  1.5045 -0.6479  1.2580
16410TIP3    H270722   1.321   5.382  14.446 -1.4932  0.1169  0.0935
16411TIP3   OH270723   0.221   5.371   4.268 -0.1393 -0.7635 -0.3033
16411TIP3    H170724   0.279   5.433   4.312 -0.2439 -2.1482  1.9060
16411TIP3    H270725   0.273   5.291   4.261 -0.3151 -0.7590 -2.3197
16412TIP3   OH270726   4.596   1.393   1.847  0.2280 -0.2715  0.4334
16412TIP3    H170727   4.551   1.466   1.889  0.5813  0.5892 -0.6628
16412TIP3    H270728   4.529   1.352   1.792  0.4938  0.3543 -0.3672
16413TIP3   OH270729   1.517   4.619   4.632  0.0414  0.4106 -0.7512
16413TIP3    H170730   1.511   4.633   4.727 -1.2888 -3.3971 -0.0800
16413TIP3    H270731   1.610   4.608   4.616  0.1445 -1.1615  0.6181
16414TIP3   OH270732   5.464   2.562   6.463  0.5214 -0.4344  0.0566
16414TIP3    H170733   5.512   2.490   6.422  0.0093  0.2621 -1.8914
16414TIP3    H270734   5.373   2.548   6.437 -0.3967 -1.5614  3.4379
16415TIP3   OH270735   6.007   2.815  14.122 -0.2271  0.6534 -0.5706
16415TIP3    H170736   5.997   2.756  14.197  0.6492  1.3005  0.0862
16415TIP3    H270737   5.919   2.823  14.086  0.1480 -4.5607 -3.5311
16416TIP3   OH270738   5.297   6.143   1.493  0.4483  0.5493  0.7098
16416TIP3    H170739   5.360   6.120   1.561  1.6539  1.7884  0.0642
16416TIP3    H270740   5.225   6.183   1.539  0.4585 -0.1966  1.3999
16417TIP3   OH270741   0.224   5.954   2.913 -0.3388 -0.4618  0.1983
16417TIP3    H170742   0.206   5.860   2.917 -0.5750 -0.4468 -0.4133
16417TIP3    H270743   0.149   5.994   2.959  1.0193 -0.6753  2.7779
16418TIP3   OH270744   3.291   6.267  16.681 -0.0351 -0.3377  0.1026
16418TIP3    H170745   3.342   6.322  16.622  0.3248  0.3890  1.0662
16418TIP3    H270746   3.345   6.258  16.759 -0.1749 -1.9122  0.0530
16419TIP3   OH270747   3.204   6.710   1.941  0.4003  0.1299  0.3347
16419TIP3    H170748   3.230   6.621   1.963 -1.5603 -0.3002  1.0896
16419TIP3    H270749   3.114   6.702   1.908  0.4635  1.7311 -0.3562
16420TIP3   OH270750   6.644   3.697  14.661  0.1836  0.1924  0.6036
16420TIP3    H170751   6.603   3.774  14.623 -0.6503 -0.3454  0.3743
16420TIP3    H270752   6.683   3.651  14.587 -0.9942 -0.5869  0.4350
16421TIP3   OH270753   6.368   2.750  12.026  0.2738  0.1610 -0.1965
16421TIP3    H170754   6.381   2.681  12.091  3.0735 -1.3953 -2.2111
16421TIP3    H270755   6.286   2.727  11.982  0.4739 -1.1019  0.0665
16422TIP3   OH270756   4.256   4.984   0.945  0.4623  0.3043  0.1534
16422TIP3    H170757   4.330   4.927   0.967 -1.9839 -2.7770  1.2042
16422TIP3    H270758   4.230   5.023   1.029 -0.2790 -0.2484  0.1946
16423TIP3   OH270759   4.192   0.380   3.624 -0.0692  0.6381  0.0088
16423TIP3    H170760   4.249   0.349   3.694  0.0181 -0.0731 -0.3617
16423TIP3    H270761   4.118   0.421   3.669 -0.0294  0.1595  0.5182
16424TIP3   OH270762   1.648   1.620  12.256 -0.0864  0.7272  0.6802
16424TIP3    H170763   1.702   1.629  12.178 -0.5555  1.2578  0.4101
16424TIP3    H270764   1.602   1.536  12.244  0.4707  0.4016  0.7914
16425TIP3   OH270765   1.045   1.932   1.420  0.0585  0.2500  0.3169
16425TIP3    H170766   1.080   1.911   1.506 -0.4154 -0.9837  0.2307
16425TIP3    H270767   1.119   1.968   1.371  0.6758 -0.3849  0.7784
16426TIP3   OH270768   2.004   0.689  13.270  0.1581 -0.0372  0.0340
16426TIP3    H170769   2.085   0.733  13.297 -0.3778  1.0734 -0.1034
16426TIP3    H270770   1.951   0.759  13.232 -0.7477 -0.8102 -0.1468
16427TIP3   OH270771   6.450   4.047  12.765  0.4084  0.0828 -0.1997
16427TIP3    H170772   6.449   4.089  12.851 -0.8192  0.2216 -0.2615
16427TIP3    H270773   6.482   4.115  12.706  0.1654  0.3624 -0.0177
16428TIP3   OH270774   5.395   1.016  15.171  0.3088  0.1075  0.1088
16428TIP3    H170775   5.309   1.006  15.129 -0.1377 -0.7562  1.2073
16428TIP3    H270776   5.451   0.952  15.127 -0.3468 -1.3200  1.2935
16429TIP3   OH270777   0.420   1.163  12.719 -0.2951  0.1316 -0.3587
16429TIP3    H170778   0.354   1.094  12.713  0.4186 -0.5935 -0.0570
16429TIP3    H270779   0.468   1.143  12.799 -0.3558  1.2407 -0.0288
16430TIP3   OH270780   4.104   5.822   4.735 -0.3070 -0.0888  0.4944
16430TIP3    H170781   4.178   5.768   4.764 -0.2296  0.1212  0.6870
16430TIP3    H270782   4.027   5.776   4.766 -0.2931 -0.6533 -0.2652
16431TIP3   OH270783   6.751   5.902  11.798 -0.0401  0.2958 -0.5139
16431TIP3    H170784   6.703   5.820  11.805 -0.2798  0.4902  0.2320
16431TIP3    H270785   6.710   5.949  11.725 -0.8736  0.3885  0.0113
16432TIP3   OH270786   4.127   0.105   5.829  0.5741  0.2208  0.1559
16432TIP3    H170787   4.059   0.129   5.892  0.9376  1.7999 -0.0066
16432TIP3    H270788   4.080   0.091   5.747  0.4347  1.4098  0.0177
16433TIP3   OH270789   5.911   3.555  11.168  0.4262 -0.1614  0.1711
16433TIP3    H170790   5.824   3.514  11.165 -0.0165  0.7734 -2.4092
16433TIP3    H270791   5.970   3.483  11.189 -0.8587 -1.0182  1.0138
16434TIP3   OH270792   6.783   1.629  12.508 -0.5415  0.1922  0.5046
16434TIP3    H170793   6.845   1.561  12.535  1.4708  0.9309 -1.9007
16434TIP3    H270794   6.801   1.703  12.566 -0.7286 -0.3181  1.2334
16435TIP3   OH270795   2.734   2.309  14.548 -0.4354  0.0634  0.2249
16435TIP3    H170796   2.784   2.386  14.519 -1.4623  0.4322 -0.6196
16435TIP3    H270797   2.651   2.344  14.578 -1.0180 -0.7367 -0.4122
16436TIP3   OH270798   1.250   6.411   2.304  0.5756 -0.4223 -0.0712
16436TIP3    H170799   1.323   6.465   2.334 -0.4494  1.0063 -0.0747
16436TIP3    H270800   1.186   6.415   2.374 -1.1853  1.6686 -1.6705
16437TIP3   OH270801   6.741   6.375   3.400 -0.0553 -0.8941 -0.2261
16437TIP3    H170802   6.797   6.380   3.322  0.0884 -1.5318 -0.1628
16437TIP3    H270803   6.663   6.425   3.376  0.7159  0.3902 -0.1566
16438TIP3   OH270804   5.884   3.166  12.432  0.0286  0.3078 -0.1821
16438TIP3    H170805   5.976   3.144  12.418 -0.3411 -0.2699 -2.0288
16438TIP3    H270806   5.874   3.169  12.527  1.7468 -0.5233  0.0625
16439TIP3   OH270807   1.597   2.359  11.760  0.3892 -0.0681 -0.6604
16439TIP3    H170808   1.517   2.408  11.782 -0.4559 -1.5576 -0.2691
16439TIP3    H270809   1.569   2.268  11.755  1.9078 -0.5330 -1.4153
16440TIP3   OH270810   0.608   3.478   0.698  0.4865 -0.1526 -0.2302
16440TIP3    H170811   0.553   3.465   0.621 -0.4657  1.2251  0.1852
16440TIP3    H270812   0.606   3.572   0.713 -0.8924 -0.5274  2.5863
16441TIP3   OH270813   4.679   6.660  16.968 -0.2260 -0.3037 -0.0850
16441TIP3    H170814   4.729   6.579  16.958  0.6721  0.3139 -0.7903
16441TIP3    H270815   4.677   6.675  17.062 -0.6582 -1.2929  0.0742
16442TIP3   OH270816   3.373   0.449   3.695 -0.0094 -0.0399 -0.2451
16442TIP3    H170817   3.400   0.534   3.661  0.4777 -0.2307 -0.3421
16442TIP3    H270818   3.431   0.433   3.770 -0.2115 -0.2120 -0.1224
16443TIP3   OH270819   2.320   6.811   5.529  0.5141  0.1111  0.0604
16443TIP3    H170820   2.328   6.894   5.577 -0.0850 -0.5425  1.3540
16443TIP3    H270821   2.329   6.835   5.437 -0.0858  1.6796  0.3807
16444TIP3   OH270822   5.568   2.191  14.771 -0.1518 -0.2339  0.4046
16444TIP3    H170823   5.523   2.211  14.689  0.4740 -1.2975 -0.2204
16444TIP3    H270824   5.558   2.270  14.824 -1.9408 -0.1131 -0.0698
16445TIP3   OH270825   4.266   3.759  12.783 -0.3960 -0.5222  0.0329
16445TIP3    H170826   4.298   3.697  12.718 -1.2507 -0.5321 -0.3967
16445TIP3    H270827   4.340   3.774  12.841  0.8457  0.6572 -1.7917
16446TIP3   OH270828   3.044   3.770   3.439  0.3679  0.3271  0.3683
16446TIP3    H170829   3.111   3.839   3.441  1.3900 -0.6265  0.1036
16446TIP3    H270830   3.072   3.712   3.368 -0.8575  0.0077  0.1303
16447TIP3   OH270831   2.829   3.301   2.863  0.2530 -0.6075 -0.7254
16447TIP3    H170832   2.737   3.324   2.870  0.6999  1.4521 -0.8572
16447TIP3    H270833   2.838   3.264   2.776 -0.3874 -0.5285 -0.8291
16448TIP3   OH270834   1.798   2.481   1.535 -0.0254 -0.5179  0.0477
16448TIP3    H170835   1.780   2.424   1.610  0.4436 -0.5189  0.1593
16448TIP3    H270836   1.717   2.531   1.524  0.3663  0.4842  1.4440
16449TIP3   OH270837   0.733   5.653  12.713 -0.3341  0.1294  0.0877
16449TIP3    H170838   0.758   5.668  12.622 -1.5020 -2.4627 -0.7636
16449TIP3    H270839   0.789   5.580  12.741  1.0799  1.8541  2.0123
16450TIP3   OH270840   1.701   5.653   4.233  0.1470  0.6506 -0.3828
16450TIP3    H170841   1.750   5.590   4.180  0.2219  0.2684  0.1309
16450TIP3    H270842   1.713   5.623   4.323 -0.6853  0.7972 -0.2152
16451TIP3   OH270843   3.080   5.946   1.488  0.7623 -0.3575 -0.4618
16451TIP3    H170844   3.065   5.885   1.416 -1.0230 -0.8628  0.2768
16451TIP3    H270845   3.171   5.932   1.513  1.1468 -0.8089 -2.0182
16452TIP3   OH270846   3.053   1.929   3.520  0.0565 -0.2549  0.4032
16452TIP3    H170847   3.113   1.986   3.569  0.1771  1.0808 -1.2037
16452TIP3    H270848   3.098   1.913   3.437 -0.2460 -2.2511  0.5737
16453TIP3   OH270849   0.819   1.522   1.840  0.0641 -0.0942 -0.2645
16453TIP3    H170850   0.742   1.570   1.871  1.0451  2.7936 -1.9043
16453TIP3    H270851   0.872   1.509   1.919 -1.0637 -0.1307  0.5191
16454TIP3   OH270852   4.551   4.115   4.634 -0.0480  0.3783  0.9320
16454TIP3    H170853   4.523   4.194   4.587  0.9687 -0.1706 -0.6572
16454TIP3    H270854   4.517   4.127   4.722 -0.4660  2.3027  0.5539
16455TIP3   OH270855   1.559   5.356  16.822 -0.0252 -0.7811 -0.1228
16455TIP3    H170856   1.468   5.383  16.811  0.0026 -0.9533 -0.8207
16455TIP3    H270857   1.554   5.267  16.855 -0.1088 -0.7853 -0.1455
16456TIP3   OH270858   1.692   1.952  14.194  0.1733  0.3713 -0.2438
16456TIP3    H170859   1.668   1.860  14.199 -2.2775  1.0275  3.1282
16456TIP3    H270860   1.787   1.953  14.210  0.3458 -1.5101 -0.8925
16457TIP3   OH270861   3.262   6.447   5.322  0.1721 -0.0731 -0.1345
16457TIP3    H170862   3.281   6.354   5.335 -0.7028 -0.3765 -0.9879
16457TIP3    H270863   3.174   6.449   5.286  0.7312  1.0081 -1.4940
16458TIP3   OH270864   5.091   3.545   0.784  0.2016  0.2176  0.1392
16458TIP3    H170865   5.052   3.627   0.753  0.5534  0.1399 -0.5211
16458TIP3    H270866   5.174   3.571   0.825  0.1108  0.2342  0.3140
16459TIP3   OH270867   5.362   1.150  17.236 -0.7732  0.1893  0.2446
16459TIP3    H170868   5.456   1.144  17.255 -1.0288  0.3971  1.7209
16459TIP3    H270869   5.346   1.243  17.221 -0.6315  0.0663 -0.7232
16460TIP3   OH270870   1.780   2.060  13.596  0.1582  0.7386 -0.7388
16460TIP3    H170871   1.712   2.029  13.657  0.1814  0.8994 -0.6307
16460TIP3    H270872   1.749   2.146  13.568  0.1909  0.7012 -0.8880
16461TIP3   OH270873   5.550   5.456   3.016  0.1234  0.2528  0.0988
16461TIP3    H170874   5.608   5.530   3.031  0.2335  0.2981 -0.5118
16461TIP3    H270875   5.559   5.438   2.922 -1.3016  0.6342 -0.1267
16462TIP3   OH270876   4.239   0.708  17.141 -0.1903  0.3377  0.6620
16462TIP3    H170877   4.161   0.754  17.173  0.5535  2.0178  0.1807
16462TIP3    H270878   4.215   0.675  17.055 -1.3556 -1.9478  1.7677
16463TIP3   OH270879   5.647   0.092  12.020  0.5697 -0.0748  0.3145
16463TIP3    H170880   5.628   0.133  11.935  0.6478  1.2890  0.9329
16463TIP3    H270881   5.740   0.072  12.016  0.0625 -2.5068 -0.9293
16464TIP3   OH270882   4.075   0.402  13.578 -0.4648 -0.6253  0.4484
16464TIP3    H170883   4.146   0.467  13.588 -0.4960 -0.5691  0.3044
16464TIP3    H270884   4.049   0.382  13.668 -0.6331 -0.2384  0.4910
16465TIP3   OH270885   3.460   0.612   3.041 -0.3653  0.0472  0.6623
16465TIP3    H170886   3.502   0.658   2.968  0.0111  2.0522  2.0610
16465TIP3    H270887   3.533   0.589   3.099 -0.8819  0.7662  1.6120
16466TIP3   OH270888   6.575   2.699   1.774 -0.2815  0.1801 -0.3017
16466TIP3    H170889   6.490   2.707   1.731 -1.1951  1.2419  1.5889
16466TIP3    H270890   6.604   2.610   1.754 -2.1127 -0.4135 -0.5020
16467TIP3   OH270891   0.728   2.197   5.581 -0.2151 -0.4919  0.2089
16467TIP3    H170892   0.715   2.114   5.535 -1.1911  0.0556 -0.5705
16467TIP3    H270893   0.639   2.228   5.599  0.1478 -0.3227  1.8432
16468TIP3   OH270894   5.556   2.899   3.334 -0.4942 -0.2008  0.4386
16468TIP3    H170895   5.498   2.883   3.260  0.1121 -0.4754  0.0081
16468TIP3    H270896   5.556   2.817   3.383  0.8244 -0.8077 -0.4997
16469TIP3   OH270897   5.387   1.495   3.799  0.0224  0.7823  0.3056
16469TIP3    H170898   5.444   1.418   3.811 -2.1262 -1.5272 -2.7182
16469TIP3    H270899   5.331   1.496   3.876 -0.8313 -1.6662 -0.2000
16470TIP3   OH270900   0.401   5.574  17.160  0.2156 -0.0807  0.2076
16470TIP3    H170901   0.413   5.546  17.250 -0.3666 -2.2117 -0.3390
16470TIP3    H270902   0.475   5.632  17.143  0.8400 -0.3861  1.7619
16471TIP3   OH270903   1.702   6.164  15.708  0.3282  0.1217 -0.4629
16471TIP3    H170904   1.631   6.206  15.755 -0.7410 -0.4056 -1.5449
16471TIP3    H270905   1.781   6.211  15.736 -0.4404  0.7767  0.6892
16472TIP3   OH270906   6.308   5.657   2.839 -0.2354 -0.2890  0.1070
16472TIP3    H170907   6.301   5.604   2.919 -2.4848 -0.7041 -0.3170
16472TIP3    H270908   6.386   5.622   2.795  0.8006 -0.3485  1.8576
16473TIP3   OH270909   5.528   5.677   0.603  0.5741 -0.1806  0.0664
16473TIP3    H170910   5.486   5.750   0.648  0.5274 -1.2195  1.8500
16473TIP3    H270911   5.462   5.645   0.542  0.0509  0.3355  0.3557
16474TIP3   OH270912   0.401   4.149   2.291  0.2523  0.2902 -0.2488
16474TIP3    H170913   0.431   4.240   2.286  0.9908  0.0834  0.1707
16474TIP3    H270914   0.350   4.136   2.212  1.3422  0.6540 -1.0360
16475TIP3   OH270915   5.217   4.315   3.821  0.4167  0.1323 -0.0389
16475TIP3    H170916   5.211   4.227   3.858  0.1778 -0.3020 -1.0624
16475TIP3    H270917   5.170   4.370   3.882  1.3715 -0.2747  1.1197
16476TIP3   OH270918   2.691   5.505  13.638  0.4173  0.4868 -0.0574
16476TIP3    H170919   2.616   5.558  13.665  0.4371  0.9348 -0.8427
16476TIP3    H270920   2.652   5.424  13.603  0.3849 -0.0104  1.0807
16477TIP3   OH270921   1.157   1.988  16.498  0.1888  0.3614  0.1868
16477TIP3    H170922   1.078   1.979  16.444  1.1454  3.2822 -2.0031
16477TIP3    H270923   1.149   2.075  16.537  1.7550  0.1993  0.9403
16478TIP3   OH270924   2.145   4.947   5.484  0.3143 -1.0236  0.3634
16478TIP3    H170925   2.062   4.972   5.524 -0.2153  1.4042 -1.9316
16478TIP3    H270926   2.126   4.864   5.440 -1.7488  0.6100 -2.1171
16479TIP3   OH270927   2.139   0.138   4.347 -0.0281  0.0582  0.1477
16479TIP3    H170928   2.109   0.229   4.349  1.4429  0.5780 -0.2864
16479TIP3    H270929   2.059   0.087   4.357 -0.8975  1.3882  0.3549
16480TIP3   OH270930   5.707   6.063   0.497 -0.2755  0.6251  0.1551
16480TIP3    H170931   5.614   6.081   0.482 -0.5066  0.0225  0.8034
16480TIP3    H270932   5.723   5.980   0.451 -0.2547  0.3243  0.6949
16481TIP3   OH270933   2.248   5.441  10.681 -0.1973  0.2913 -0.0739
16481TIP3    H170934   2.323   5.393  10.646 -0.0491 -0.5855  1.3659
16481TIP3    H270935   2.177   5.422  10.620  0.5958  0.7071 -1.1677
16482TIP3   OH270936   6.183   1.654  15.909  0.3297 -0.4969 -0.3101
16482TIP3    H170937   6.088   1.646  15.908  0.3331 -0.7748  0.4766
16482TIP3    H270938   6.200   1.747  15.893 -0.1729 -0.0228  1.5621
16483TIP3   OH270939   4.401   2.431  12.625  0.0397 -0.0259 -0.6414
16483TIP3    H170940   4.369   2.341  12.615 -0.7352  0.1948 -0.2661
16483TIP3    H270941   4.321   2.483  12.634  0.4742  0.7584 -1.3039
16484TIP3   OH270942   1.029   5.093   2.900  0.4034 -0.3193 -0.1055
16484TIP3    H170943   1.062   5.065   2.985 -1.8344  0.0735  0.9609
16484TIP3    H270944   1.032   5.188   2.903  0.6224 -0.3014 -0.6262
16485TIP3   OH270945   5.210   0.520   3.264 -0.2914  0.2079  0.6110
16485TIP3    H170946   5.212   0.443   3.208 -0.0384 -0.5086  1.5889
16485TIP3    H270947   5.228   0.593   3.205  3.5967 -0.8406  0.2518
16486TIP3   OH270948   6.635   4.883   0.151 -0.0249 -0.0056 -0.1984
16486TIP3    H170949   6.721   4.913   0.179 -0.3377 -0.7182  1.6519
16486TIP3    H270950   6.593   4.961   0.115  0.1886  1.1960  1.9780
16487TIP3   OH270951   5.593   4.792  12.457  0.1350  0.4747  0.1216
16487TIP3    H170952   5.635   4.722  12.507 -1.4256  0.2062  1.1123
16487TIP3    H270953   5.593   4.761  12.366  1.0474 -0.0029  0.2734
16488TIP3   OH270954   4.752   0.688  16.724 -0.3949  0.0794 -0.1693
16488TIP3    H170955   4.708   0.773  16.716 -0.4231  0.0773 -0.0470
16488TIP3    H270956   4.708   0.632  16.660  1.3471  0.8589 -2.1264
16489TIP3   OH270957   4.116   2.773   4.879  0.2117 -0.0101  0.1082
16489TIP3    H170958   4.054   2.804   4.813  0.9028  0.2251 -0.4455
16489TIP3    H270959   4.062   2.736   4.948 -0.5283 -0.0898 -0.5097
16490TIP3   OH270960   4.340   5.960  13.333  0.1240  0.4560  0.7916
16490TIP3    H170961   4.408   5.962  13.266  0.8007 -1.5667  1.3194
16490TIP3    H270962   4.258   5.968  13.285  0.6517  0.4114 -0.1347
16491TIP3   OH270963   6.293   4.240   4.454 -0.2842  0.2416 -0.0098
16491TIP3    H170964   6.225   4.184   4.491 -0.3172  1.0455  1.1771
16491TIP3    H270965   6.251   4.282   4.379 -0.3890 -0.9680 -0.6502
16492TIP3   OH270966   4.683   6.353   0.653  0.4402 -0.9759  0.1141
16492TIP3    H170967   4.636   6.435   0.669  1.3021 -0.2974 -0.8166
16492TIP3    H270968   4.629   6.287   0.698 -0.9711 -0.1090 -0.2238
16493TIP3   OH270969   2.182   0.810  13.502  0.7124  0.0536  0.5517
16493TIP3    H170970   2.133   0.857  13.569 -0.0934 -0.3819  0.2959
16493TIP3    H270971   2.221   0.878  13.447 -3.3812  0.6859 -2.0203
16494TIP3   OH270972   2.932   0.896  15.713 -0.2280 -0.3111  0.2794
16494TIP3    H170973   2.877   0.936  15.781 -1.9774 -0.1430 -1.1588
16494TIP3    H270974   2.990   0.967  15.684  0.0789 -0.2053  1.1265
16495TIP3   OH270975   5.370   3.599   3.129  0.3292  0.1135 -0.1234
16495TIP3    H170976   5.275   3.590   3.129  0.3306  0.0428  0.8358
16495TIP3    H270977   5.385   3.692   3.145  0.4214  0.2727 -1.0770
16496TIP3   OH270978   5.334   0.455   4.014  0.0902 -0.4077 -0.1651
16496TIP3    H170979   5.254   0.501   3.990 -0.6362 -1.1382  0.7833
16496TIP3    H270980   5.405   0.513   3.984 -0.7682  0.0173 -1.4608
16497TIP3   OH270981   3.709   1.594  12.939 -0.1348 -0.3739  0.9248
16497TIP3    H170982   3.743   1.519  12.987 -1.1815  0.0120  2.3421
16497TIP3    H270983   3.764   1.668  12.967 -0.5433 -0.2067  1.2993
16498TIP3   OH270984   3.678   1.965  14.213 -0.3032  0.9580 -0.2921
16498TIP3    H170985   3.617   1.894  14.193  1.2149 -0.6378  0.4265
16498TIP3    H270986   3.744   1.960  14.144  0.7340  0.5345  0.7082
16499TIP3   OH270987   5.761   4.663  13.353  0.8070  0.0661 -0.1662
16499TIP3    H170988   5.787   4.608  13.280 -2.0692 -1.8714  0.1071
16499TIP3    H270989   5.772   4.608  13.431 -1.9519 -0.2137  0.1292
16500TIP3   OH270990   4.881   5.625  16.354 -0.0119  0.3273 -0.1726
16500TIP3    H170991   4.930   5.706  16.339 -0.2884  0.3430 -1.0339
16500TIP3    H270992   4.880   5.615  16.449  1.9874  0.1241 -0.1235
16501TIP3   OH270993   3.872   3.581   3.461  0.3525 -0.1754 -0.8286
16501TIP3    H170994   3.874   3.486   3.469 -1.2151 -0.2324 -0.8607
16501TIP3    H270995   3.792   3.600   3.412 -1.5880  1.3123  2.5677
16502TIP3   OH270996   6.652   4.152  14.540  0.0123  0.1355 -0.0504
16502TIP3    H170997   6.665   4.225  14.600  2.0433  1.0248 -1.4517
16502TIP3    H270998   6.678   4.186  14.454  1.0822 -2.2259 -0.7572
16503TIP3   OH270999   5.222   2.163   1.753  0.3305  0.2183 -0.1904
16503TIP3    H171000   5.169   2.146   1.676  0.9056 -0.4740 -0.4555
16503TIP3    H271001   5.235   2.258   1.754 -1.2480  0.4462  0.1251
16504TIP3   OH271002   6.379   2.730   6.116  0.5423 -0.1619  0.4472
16504TIP3    H171003   6.406   2.812   6.159  0.7320 -0.2585  0.5156
16504TIP3    H271004   6.342   2.677   6.187 -1.5764  0.6940  0.0382
16505TIP3   OH271005   3.949   6.347  12.190 -0.6096 -0.3259 -0.1262
16505TIP3    H171006   3.958   6.382  12.101 -0.4572 -0.1432 -0.0390
16505TIP3    H271007   4.004   6.269  12.190 -0.3707 -0.1612 -0.1058
16506TIP3   OH271008   5.575   2.873   3.764  0.5917 -0.3385  0.3669
16506TIP3    H171009   5.527   2.801   3.723  2.8451 -1.6893 -0.0459
16506TIP3    H271010   5.633   2.831   3.828  2.3816  0.9749 -0.2929
16507TIP3   OH271011   4.133   4.010  13.788  0.2010  0.7043  0.1987
16507TIP3    H171012   4.219   3.977  13.761 -0.1055  1.1694 -1.4797
16507TIP3    H271013   4.094   3.939  13.838  0.4101 -0.6432 -1.4809
16508TIP3   OH271014   6.204   4.129   0.547  0.4628  0.0751  0.5345
16508TIP3    H171015   6.248   4.214   0.548 -0.9937  0.8719 -0.1572
16508TIP3    H271016   6.194   4.108   0.454 -0.3096 -0.2393  0.6804
16509TIP3   OH271017   2.681   3.708  11.755  0.5786 -0.5029 -0.1636
16509TIP3    H171018   2.708   3.757  11.677 -0.3684  2.0899  1.0089
16509TIP3    H271019   2.763   3.674  11.790  1.4640  1.0731 -0.5629
16510TIP3   OH271020   2.278   5.982   0.213 -0.1061 -0.8645  0.1556
16510TIP3    H171021   2.309   6.052   0.155 -1.8458 -0.8960 -0.8668
16510TIP3    H271022   2.354   5.925   0.223  1.3284  1.0573  0.9177
16511TIP3   OH271023   2.195   3.374  16.684 -0.5013 -0.0444 -0.6482
16511TIP3    H171024   2.234   3.431  16.617 -0.8444  1.4108  0.3425
16511TIP3    H271025   2.171   3.434  16.755 -1.7213 -1.3235  0.0548
16512TIP3   OH271026   0.634   5.016   5.395  0.3286  0.6193 -0.1829
16512TIP3    H171027   0.623   5.105   5.364  1.5993  1.0435  0.5237
16512TIP3    H271028   0.570   4.965   5.345 -0.3048  1.8852 -0.7062
16513TIP3   OH271029   3.490   5.031   3.446  0.2026 -0.3605  0.5994
16513TIP3    H171030   3.493   5.126   3.459 -1.5277 -0.1133 -0.5169
16513TIP3    H271031   3.570   4.999   3.488  2.3408  1.8751 -1.4575
16514TIP3   OH271032   2.609   0.013   2.695  0.5887 -0.1896  0.0072
16514TIP3    H171033   2.554   0.046   2.766 -0.7637  1.5799 -1.7395
16514TIP3    H271034   2.670   0.085   2.677  0.9038 -0.6121 -0.6297
16515TIP3   OH271035   0.772   1.823  14.565 -0.1369 -0.3187 -0.2611
16515TIP3    H171036   0.743   1.913  14.550 -0.5605 -0.4636 -0.3309
16515TIP3    H271037   0.712   1.790  14.632  0.4540 -0.3302  0.2698
16516TIP3   OH271038   1.401   6.518  15.772 -0.3298  0.3230 -0.0220
16516TIP3    H171039   1.413   6.589  15.836 -0.0730  0.6902 -0.4723
16516TIP3    H271040   1.350   6.452  15.819  1.5808 -0.3140  1.2382
16517TIP3   OH271041   1.935   6.340  14.509  0.1807 -0.5323 -0.4213
16517TIP3    H171042   1.932   6.435  14.522 -0.5442 -0.6812  0.6073
16517TIP3    H271043   2.004   6.309  14.567 -0.7851 -0.8116  0.6344
16518TIP3   OH271044   3.284   0.121   2.795 -0.0071  0.1467 -0.0211
16518TIP3    H171045   3.285   0.045   2.854 -0.0235  0.2238  0.0774
16518TIP3    H271046   3.198   0.160   2.807 -0.4748 -0.5394 -0.9886
16519TIP3   OH271047   5.641   3.103   3.056 -0.2475  0.3704  0.0742
16519TIP3    H171048   5.573   3.057   3.006  0.7028 -0.0568 -0.8560
16519TIP3    H271049   5.623   3.195   3.041  0.3456  0.2488 -1.5504
16520TIP3   OH271050   2.545   0.278  15.631 -0.2724 -0.3644 -0.6245
16520TIP3    H171051   2.467   0.324  15.664 -0.9726 -1.8150 -0.1591
16520TIP3    H271052   2.545   0.195  15.679  1.3159 -0.5840 -0.9663
16521TIP3   OH271053   0.411   5.986   6.057 -0.0369 -0.4791  0.4700
16521TIP3    H171054   0.319   5.974   6.033  0.0050 -1.9750  0.9325
16521TIP3    H271055   0.427   5.919   6.124  1.7422 -1.1909 -0.5808
16522TIP3   OH271056   3.015   0.566   3.723 -0.1746  0.0102 -0.3515
16522TIP3    H171057   3.048   0.483   3.757  0.3466  0.3733  0.0515
16522TIP3    H271058   3.077   0.591   3.655  1.4178  1.5062  1.5132
16523TIP3   OH271059   5.560   5.856   3.055  0.2933  0.0993 -0.4996
16523TIP3    H171060   5.465   5.846   3.058 -0.0205  2.5757  0.7616
16523TIP3    H271061   5.591   5.816   3.136  0.3891 -1.0460 -1.0908
16524TIP3   OH271062   6.327   0.062  14.916  0.3466  0.1688  0.6155
16524TIP3    H171063   6.351   0.000  14.847 -1.9980  0.4627 -0.5340
16524TIP3    H271064   6.248   0.105  14.884 -0.5871  0.6341  3.3044
16525TIP3   OH271065   2.313   2.058   4.321  0.0401 -0.0410 -0.0275
16525TIP3    H171066   2.233   2.085   4.366 -0.1215  0.3359 -0.5221
16525TIP3    H271067   2.307   1.963   4.315 -1.5778  0.1213 -2.1838
16526TIP3   OH271068   3.856   1.020  11.494 -0.1845  1.1456 -0.1869
16526TIP3    H171069   3.791   1.034  11.425  0.5092  2.7139 -0.5636
16526TIP3    H271070   3.820   0.949  11.546 -1.3832  0.8307 -1.3709
16527TIP3   OH271071   3.559   5.230   2.925 -0.4724 -0.6888  0.7723
16527TIP3    H171072   3.591   5.240   3.015 -1.7582 -1.4942  1.3558
16527TIP3    H271073   3.477   5.182   2.934 -0.4008 -1.1988 -0.8838
16528TIP3   OH271074   5.218   0.165   0.247 -0.3007  0.4189 -0.4536
16528TIP3    H171075   5.246   0.134   0.333 -0.5674 -0.9322 -0.8264
16528TIP3    H271076   5.231   0.090   0.189 -1.8460  0.6905 -1.2227
16529TIP3   OH271077   3.123   1.079  11.593  0.3144 -0.2100 -0.4110
16529TIP3    H171078   3.110   0.986  11.610  0.5872 -0.5398 -1.8547
16529TIP3    H271079   3.080   1.094  11.508  0.1035  1.0257 -0.1086
16530TIP3   OH271080   1.974   3.987  13.909 -0.2085 -0.0863  0.1767
16530TIP3    H171081   1.897   3.933  13.924 -1.6839  1.7366 -0.4724
16530TIP3    H271082   2.002   3.964  13.821 -0.5040 -0.1684  0.1027
16531TIP3   OH271083   3.044   2.208   2.848 -0.4033  0.0273  0.1559
16531TIP3    H171084   3.070   2.257   2.926 -3.5447  3.7135 -0.8101
16531TIP3    H271085   3.063   2.116   2.870  2.0963  1.2000  3.7529
16532TIP3   OH271086   5.733   2.691   2.859  0.4685  0.1580  0.6097
16532TIP3    H171087   5.642   2.672   2.878 -0.2131  2.1627 -0.4207
16532TIP3    H271088   5.760   2.752   2.928  0.2890  1.4317 -0.4178
16533TIP3   OH271089   0.930   1.324  14.197  0.8850  0.4301  0.2011
16533TIP3    H171090   0.941   1.286  14.110  1.9746  1.7554 -0.2643
16533TIP3    H271091   0.839   1.355  14.198  0.6543 -0.2115 -0.1919
16534TIP3   OH271092   3.011   5.683   4.248 -0.3547  0.3830  0.2963
16534TIP3    H171093   2.953   5.670   4.323  0.0040  1.6051  0.8046
16534TIP3    H271094   2.971   5.754   4.199  0.0303  0.3571 -0.0564
16535TIP3   OH271095   3.713   3.338   0.033 -0.3257 -0.3619 -0.0377
16535TIP3    H171096   3.788   3.337   0.092  0.6863  0.5694 -1.2417
16535TIP3    H271097   3.653   3.402   0.072  0.3663  0.3072 -0.0563
16536TIP3   OH271098   1.609   6.037   2.716 -0.1859 -1.0479  0.1092
16536TIP3    H171099   1.657   6.113   2.683 -0.8809  0.0934  1.6218
16536TIP3    H271100   1.521   6.047   2.680 -0.6731 -0.3289  1.4257
16537TIP3   OH271101   2.346   2.348  11.302 -0.0223 -0.2847 -0.5797
16537TIP3    H171102   2.374   2.383  11.387  0.5938  1.3577 -1.4332
16537TIP3    H271103   2.424   2.351  11.247 -0.4657 -1.1466 -1.2861
16538TIP3   OH271104   5.054   0.172  15.735  0.2158 -0.6145  0.2885
16538TIP3    H171105   4.983   0.149  15.675 -0.2432  0.4654  0.3811
16538TIP3    H271106   5.009   0.208  15.812  0.8475  1.9992 -0.4512
16539TIP3   OH271107   0.788   3.404   5.689 -0.3321  0.0633  0.3097
16539TIP3    H171108   0.727   3.330   5.683  0.9197 -1.0477  0.6790
16539TIP3    H271109   0.759   3.464   5.621 -1.4177 -0.7538  0.0133
16540TIP3   OH271110   6.127   4.063  12.590 -0.4148 -0.3429 -0.4461
16540TIP3    H171111   6.176   4.051  12.508  0.0287 -0.3895 -0.1753
16540TIP3    H271112   6.131   4.158  12.607  2.0566 -0.6219  1.0722
16541TIP3   OH271113   1.740   2.520  13.046  0.1165  0.2531  0.0923
16541TIP3    H171114   1.811   2.540  12.985 -1.0123  1.7131 -0.7966
16541TIP3    H271115   1.755   2.428  13.070  2.0486  0.3978 -0.3753
16542TIP3   OH271116   6.805   3.691  11.600  0.1125 -0.4698  0.1246
16542TIP3    H171117   6.793   3.635  11.677  0.3302 -1.4181 -0.5216
16542TIP3    H271118   6.825   3.630  11.529 -0.0588  0.4023 -0.6804
16543TIP3   OH271119   2.714   5.980  16.513  0.0226  0.3988 -0.2935
16543TIP3    H171120   2.631   5.994  16.559  0.4552  0.3475  0.5064
16543TIP3    H271121   2.701   5.898  16.464 -0.3661  0.3484 -0.1044
16544TIP3   OH271122   2.743   4.540   1.602  0.1573 -0.8156 -0.6636
16544TIP3    H171123   2.689   4.517   1.678  2.2923 -0.8905  0.9273
16544TIP3    H271124   2.760   4.456   1.559 -2.1789 -0.6330 -2.1292
16545TIP3   OH271125   6.558   1.509   4.531  0.0404 -0.3473 -1.0921
16545TIP3    H171126   6.613   1.477   4.604 -2.3759  0.1604  1.1012
16545TIP3    H271127   6.486   1.446   4.526 -0.6364  0.4851 -2.0377
16546TIP3   OH271128   2.450   5.224  12.698 -0.0869 -0.3674 -0.3426
16546TIP3    H171129   2.513   5.153  12.690  0.3501  0.1027 -1.2558
16546TIP3    H271130   2.407   5.209  12.782  0.5746 -1.2366 -0.1477
16547TIP3   OH271131   6.205   4.030  12.298 -0.3560 -0.3489 -0.2210
16547TIP3    H171132   6.181   4.066  12.213 -1.0879  1.5690  0.7366
16547TIP3    H271133   6.140   3.962  12.315 -2.0983  1.3300  0.1021
16548TIP3   OH271134   0.645   1.337   1.527 -0.0851 -0.0015  0.9017
16548TIP3    H171135   0.597   1.389   1.463  0.2876  0.0237  0.6402
16548TIP3    H271136   0.707   1.399   1.566  1.6090 -0.6084 -0.6637
16549TIP3   OH271137   2.501   6.109   2.914  0.0453 -0.1519  0.5844
16549TIP3    H171138   2.432   6.117   2.980 -1.1478 -2.6593 -0.2095
16549TIP3    H271139   2.583   6.112   2.964 -0.6155  1.8463  1.6689
16550TIP3   OH271140   1.048   5.780   3.791 -0.4885 -0.4606  0.3512
16550TIP3    H171141   1.091   5.800   3.873 -1.5004 -0.7708  0.9795
16550TIP3    H271142   1.115   5.793   3.724 -0.0206  1.1127  1.0837
16551TIP3   OH271143   1.236   2.638   5.743 -0.0813  0.1947 -0.0482
16551TIP3    H171144   1.242   2.733   5.757 -1.5838  0.8706 -3.0944
16551TIP3    H271145   1.153   2.614   5.783  0.4830  0.0358  1.0739
16552TIP3   OH271146   2.217   3.771   0.037 -0.5202  0.1405  0.0654
16552TIP3    H171147   2.237   3.720   0.116 -1.4956 -0.7375 -0.2199
16552TIP3    H271148   2.253   3.858   0.054 -1.6751  0.3083  1.9589
16553TIP3   OH271149   0.052   0.980   3.424  0.2845 -0.1382  0.5027
16553TIP3    H171150   0.029   1.070   3.402  1.8284  0.0702 -0.4032
16553TIP3    H271151  -0.031   0.932   3.419 -0.5621  1.2114  1.0052
16554TIP3   OH271152   3.305   4.221   2.508  0.2541  0.2101  0.5896
16554TIP3    H171153   3.264   4.171   2.437  0.0428 -1.4452  1.8120
16554TIP3    H271154   3.292   4.312   2.483  2.0463 -0.2587 -2.5491
16555TIP3   OH271155   0.410   4.646  14.611 -0.5522 -0.0724 -0.1303
16555TIP3    H171156   0.343   4.587  14.576 -1.6292  1.8655 -1.5554
16555TIP3    H271157   0.408   4.721  14.552  1.5069  0.9323  0.9807
16556TIP3   OH271158   2.112   0.684  12.079 -0.2234  0.2141 -0.2261
16556TIP3    H171159   2.134   0.735  12.001  0.7628 -0.2156 -0.2513
16556TIP3    H271160   2.041   0.733  12.121 -0.6510  0.5428 -1.2926
16557TIP3   OH271161   0.473   0.704   3.884  0.0548 -0.0049  0.4707
16557TIP3    H171162   0.539   0.665   3.827  1.7530  2.8001  0.3016
16557TIP3    H271163   0.494   0.797   3.884 -3.9402  1.0967  0.4290
16558TIP3   OH271164   1.608   5.103  14.012  0.3570 -0.2536  0.0353
16558TIP3    H171165   1.588   5.125  13.921 -0.1346  1.6756  0.5622
16558TIP3    H271166   1.615   5.007  14.013  0.7920 -0.2844 -2.0939
16559TIP3   OH271167   2.635   4.035  14.455 -0.2049 -0.0614  0.0927
16559TIP3    H171168   2.581   3.988  14.391  0.5599  0.9785 -1.3730
16559TIP3    H271169   2.585   4.115  14.474  0.7292  0.8779 -1.2267
16560TIP3   OH271170   3.343   3.512   0.879 -0.4303  0.0269  0.1921
16560TIP3    H171171   3.392   3.517   0.961  1.0113 -2.3444 -0.4127
16560TIP3    H271172   3.397   3.561   0.817 -0.0246 -0.5408  0.0779
16561TIP3   OH271173   4.752   3.573   3.331  0.3471  0.2350  0.2550
16561TIP3    H171174   4.789   3.542   3.413 -1.3306  0.4246  1.1344
16561TIP3    H271175   4.709   3.496   3.293  1.0021  0.1777 -0.4118
16562TIP3   OH271176   2.670   4.677  14.568 -0.0770 -0.1955 -0.1012
16562TIP3    H171177   2.614   4.752  14.552 -0.0850 -0.2486 -0.3277
16562TIP3    H271178   2.699   4.649  14.481  0.2145 -0.2337  0.0056
16563TIP3   OH271179   4.042   4.127  14.442 -0.7183 -0.4570 -0.4198
16563TIP3    H171180   4.117   4.149  14.385 -2.1489  0.4623 -2.0399
16563TIP3    H271181   4.079   4.129  14.530  1.3202 -0.6689 -1.1922
16564TIP3   OH271182   6.132   3.910   3.726 -0.5964 -0.0090  0.4087
16564TIP3    H171183   6.181   3.942   3.650 -0.1099 -0.0915  0.6826
16564TIP3    H271184   6.199   3.888   3.790 -0.9016 -1.6678  0.2005
16565TIP3   OH271185   5.842   0.736   1.407  0.2567  0.0604  0.3923
16565TIP3    H171186   5.755   0.721   1.445  0.1426 -1.0159 -0.2338
16565TIP3    H271187   5.889   0.785   1.474 -0.0658 -1.4214  1.7842
16566TIP3   OH271188   2.381   6.426   3.670 -0.2836  0.4224 -0.7867
16566TIP3    H171189   2.350   6.407   3.759 -0.4705 -2.2123 -1.3202
16566TIP3    H271190   2.454   6.486   3.682 -0.5745  0.4541  1.1258
16567TIP3   OH271191   4.901   5.744   2.269 -0.2683  0.3769  0.6426
16567TIP3    H171192   4.928   5.807   2.335 -1.7176  0.6416  1.0265
16567TIP3    H271193   4.825   5.699   2.308  0.3690 -1.2099  0.1547
16568TIP3   OH271194   2.610   0.456  16.399 -0.1269  0.4220 -0.2096
16568TIP3    H171195   2.644   0.500  16.322 -0.0822 -0.0002 -0.4347
16568TIP3    H271196   2.684   0.455  16.461 -0.2735  1.0857 -0.0159
16569TIP3   OH271197   2.469   0.840  15.733 -0.2822 -0.3316  0.1971
16569TIP3    H171198   2.526   0.874  15.664  1.0619 -2.3691  0.2365
16569TIP3    H271199   2.441   0.754  15.701 -0.7892 -0.7119  1.5795
16570TIP3   OH271200   4.574   3.773  12.407  0.0539 -0.7617  0.2436
16570TIP3    H171201   4.528   3.753  12.326 -0.4373 -2.9383  0.9879
16570TIP3    H271202   4.645   3.709  12.410  1.7250  1.0224  0.2681
16571TIP3   OH271203   4.745   0.975  11.099  0.2083 -0.0518  0.2494
16571TIP3    H171204   4.700   1.005  11.020 -0.8004  2.2970  1.5744
16571TIP3    H271205   4.704   0.891  11.120  0.1353 -0.4562 -1.3921
16572TIP3   OH271206   3.699   2.279  14.628 -0.3799 -0.2534  0.0758
16572TIP3    H171207   3.735   2.230  14.702  0.3546  2.5463  1.7152
16572TIP3    H271208   3.689   2.214  14.559  1.8557 -2.4010  1.6145
16573TIP3   OH271209   1.456   2.243   3.704 -0.3350 -0.5469  0.0746
16573TIP3    H171210   1.420   2.322   3.663 -2.0150 -1.2096  0.2164
16573TIP3    H271211   1.455   2.178   3.634 -0.7465 -0.9617  0.4638
16574TIP3   OH271212   4.265   2.181  12.591  0.5745  0.6670  0.0991
16574TIP3    H171213   4.172   2.201  12.579  1.0499  2.8555 -0.5607
16574TIP3    H271214   4.293   2.146  12.506  0.6127  1.2602 -0.1399
16575TIP3   OH271215   4.260   6.152   0.466 -0.1589  0.4120 -0.4850
16575TIP3    H171216   4.254   6.152   0.562 -0.5824  0.0956 -0.5069
16575TIP3    H271217   4.232   6.240   0.440 -1.8214 -0.0557 -0.4033
16576TIP3   OH271218   2.710   5.697  15.548 -0.8183  0.1619  0.1244
16576TIP3    H171219   2.688   5.606  15.565 -1.3748  0.1924 -0.3957
16576TIP3    H271220   2.660   5.746  15.613  0.6735  0.0269  1.4264
16577TIP3   OH271221   3.634   0.340  15.658 -0.7748  0.0879 -0.1987
16577TIP3    H171222   3.598   0.285  15.589 -0.2230 -1.2954  0.5616
16577TIP3    H271223   3.561   0.394  15.687 -1.4214 -0.4651 -0.7606
16578TIP3   OH271224   1.708   5.158  15.242 -0.2046 -0.2310 -0.6140
16578TIP3    H171225   1.635   5.110  15.203  0.1528 -0.5293 -0.9190
16578TIP3    H271226   1.781   5.095  15.242 -0.4824 -0.6185  1.5262
16579TIP3   OH271227   0.874   2.505  15.125 -0.1777  0.1013 -0.0794
16579TIP3    H171228   0.922   2.576  15.081  0.9560 -0.4410  0.2665
16579TIP3    H271229   0.811   2.551  15.181 -0.5699  0.8183 -1.0684
16580TIP3   OH271230   4.013   3.029  12.064 -0.1241  0.2488  0.0414
16580TIP3    H171231   4.059   3.046  12.146 -0.5016 -1.2996  0.6235
16580TIP3    H271232   3.940   3.091  12.063  0.5270  1.0368  0.3099
16581TIP3   OH271233   1.128   3.364  15.995  0.1900 -0.3145  0.4585
16581TIP3    H171234   1.060   3.306  16.027 -0.2227 -1.0765 -1.6614
16581TIP3    H271235   1.204   3.346  16.051 -0.7320 -0.9141  1.5437
16582TIP3   OH271236   5.928   1.443  15.873  0.7335 -0.1873  0.3386
16582TIP3    H171237   5.962   1.441  15.963  0.7071  0.7533  0.3829
16582TIP3    H271238   5.960   1.362  15.833 -2.0256 -2.3844  2.1626
16583TIP3   OH271239   3.451   0.624   5.568  0.0777 -0.4866  0.3683
16583TIP3    H171240   3.480   0.677   5.643  0.7292 -1.4415  0.8117
16583TIP3    H271241   3.359   0.606   5.585 -0.3123  0.9772 -0.0797
16584TIP3   OH271242   5.374   6.006  13.746 -0.1039  0.6457  0.0472
16584TIP3    H171243   5.387   5.962  13.662 -0.4809  2.1957 -0.8554
16584TIP3    H271244   5.406   6.095  13.732 -2.1408  1.5696  0.8692
16585TIP3   OH271245   4.733   6.398   5.622  0.2671  0.1535  0.7165
16585TIP3    H171246   4.741   6.483   5.665 -0.1152  1.5124 -1.7388
16585TIP3    H271247   4.639   6.380   5.623  0.1542  0.6314 -0.2935
16586TIP3   OH271248   4.817   5.543   4.829  0.8526 -0.0879 -0.1188
16586TIP3    H171249   4.779   5.587   4.905  1.2651  3.0514 -1.5614
16586TIP3    H271250   4.902   5.511   4.860  0.3772 -0.2480  1.0978
16587TIP3   OH271251   6.171   5.932  17.077  0.2612  0.0660  0.2874
16587TIP3    H171252   6.229   5.856  17.076  1.0591  0.6564  0.4265
16587TIP3    H271253   6.115   5.920  17.000  1.9176  0.4751 -1.0725
16588TIP3   OH271254   5.447   2.097  13.079 -0.4603 -0.8380  0.8729
16588TIP3    H171255   5.443   2.119  13.172 -0.4498  0.0752  0.6643
16588TIP3    H271256   5.368   2.135  13.042 -0.6730 -1.5676  0.5815
16589TIP3   OH271257   3.254   3.420   0.635  0.6428  0.3242 -1.0940
16589TIP3    H171258   3.252   3.451   0.726 -0.7764  1.0318 -1.3296
16589TIP3    H271259   3.343   3.389   0.622  1.1112  0.9964  0.2911
16590TIP3   OH271260   6.600   2.931  15.282 -0.0444  0.1837 -0.3859
16590TIP3    H171261   6.567   3.017  15.309  0.3652  0.5135 -0.9137
16590TIP3    H271262   6.586   2.928  15.187  0.4999 -0.0771 -0.4636
16591TIP3   OH271263   5.868   1.585   2.017 -0.2416 -0.2619 -0.0045
16591TIP3    H171264   5.824   1.670   2.014  0.7624  0.4388  2.5218
16591TIP3    H271265   5.802   1.525   2.051 -0.5192 -0.1715 -0.3811
16592TIP3   OH271266   4.428   3.374  11.188 -0.2068  0.1475  0.1849
16592TIP3    H171267   4.432   3.342  11.098  0.1529  1.5814 -0.3323
16592TIP3    H271268   4.486   3.450  11.189 -2.4533  1.9723  0.8499
16593TIP3   OH271269   0.925   2.577   5.737  0.1668 -0.0549 -0.0732
16593TIP3    H171270   0.926   2.672   5.749  1.4610 -0.1065  0.4568
16593TIP3    H271271   0.955   2.542   5.822  3.2555 -0.7557 -1.3142
16594TIP3   OH271272   4.618   0.123  16.944  0.1009 -0.4510  0.2003
16594TIP3    H171273   4.604   0.030  16.929 -0.0751 -0.1487 -1.6723
16594TIP3    H271274   4.531   0.157  16.965  0.2549 -0.7661  1.4879
16595TIP3   OH271275   4.578   1.317   0.688  0.0057 -0.2327  0.3367
16595TIP3    H171276   4.532   1.241   0.652 -0.9012  0.6311 -0.4017
16595TIP3    H271277   4.660   1.321   0.639 -1.4782  1.3048 -2.2903
16596TIP3   OH271278   0.379   1.555  14.180 -0.4799 -0.0978 -0.0858
16596TIP3    H171279   0.433   1.608  14.239 -2.5843 -0.4024  2.2693
16596TIP3    H271280   0.327   1.619  14.132  0.2606  0.1024 -0.6377
16597TIP3   OH271281   4.394   2.960   6.437  0.8733  0.0665  0.0276
16597TIP3    H171282   4.328   2.917   6.491  0.6680  0.7448  0.3376
16597TIP3    H271283   4.474   2.908   6.450 -0.0036 -1.8425 -1.7707
16598TIP3   OH271284   5.179   5.444   4.089  0.0295 -0.1561  0.0593
16598TIP3    H171285   5.176   5.519   4.149 -1.3845  0.3286 -0.5470
16598TIP3    H271286   5.109   5.386   4.119 -0.2675 -0.2168 -0.7120
16599TIP3   OH271287   3.685   4.119  15.044  0.1203  0.2393 -0.9148
16599TIP3    H171288   3.705   4.045  14.987  0.6319  1.2014 -2.0338
16599TIP3    H271289   3.720   4.195  14.998 -1.1480  1.2985 -0.2198
16600TIP3   OH271290   1.400   0.439  11.579  0.0058  0.0358 -0.8039
16600TIP3    H171291   1.457   0.461  11.653 -2.6511 -0.7357  1.6482
16600TIP3    H271292   1.444   0.478  11.503  2.8383  0.9850  1.1345
16601TIP3   OH271293   0.582   2.317  15.855 -0.0800 -0.2914  0.1565
16601TIP3    H171294   0.609   2.263  15.781  1.7740 -0.2050  0.7157
16601TIP3    H271295   0.592   2.259  15.931 -0.3127  0.1318  0.5150
16602TIP3   OH271296   0.533   6.199   0.721 -0.0392 -0.0347  0.4948
16602TIP3    H171297   0.563   6.290   0.721  0.2339 -0.1252  1.1257
16602TIP3    H271298   0.497   6.187   0.633 -0.4824  0.8133  0.5414
16603TIP3   OH271299   5.953   1.095   5.063  0.1328 -0.4827  0.0205
16603TIP3    H171300   5.882   1.038   5.094 -1.5164  2.1258  1.4269
16603TIP3    H271301   5.909   1.164   5.015  1.4762  1.9276  1.9900
16604TIP3   OH271302   1.762   2.585  11.671 -0.0815  0.1297  0.4323
16604TIP3    H171303   1.758   2.499  11.713 -0.1240 -0.0237  0.1209
16604TIP3    H271304   1.715   2.573  11.588 -0.9420  0.7104  0.8253
16605TIP3   OH271305   6.651   4.578  16.217  0.2032 -0.2812  0.2530
16605TIP3    H171306   6.604   4.511  16.267 -0.7173 -1.0963 -1.6146
16605TIP3    H271307   6.734   4.537  16.194 -0.7487 -1.2123 -1.7118
16606TIP3   OH271308   1.097   6.488   0.177 -0.4360 -0.2374 -0.2550
16606TIP3    H171309   1.086   6.544   0.100 -0.0429 -1.7303 -1.4435
16606TIP3    H271310   1.024   6.425   0.171 -1.0109  0.2448  1.1789
16607TIP3   OH271311   5.642   0.939  15.558 -0.0561 -0.1377  0.1715
16607TIP3    H171312   5.555   0.902  15.543 -0.4153  0.0125  1.7576
16607TIP3    H271313   5.648   0.949  15.653  2.0340 -0.9414  0.1710
16608TIP3   OH271314   3.154   4.687   2.979  0.0423  0.1265  0.3338
16608TIP3    H171315   3.220   4.667   2.913 -1.8118  0.7651 -1.8230
16608TIP3    H271316   3.155   4.782   2.986  2.6659  0.0721  4.0306
16609TIP3   OH271317   4.467   5.609   5.109  0.1020  0.5070 -0.0004
16609TIP3    H171318   4.489   5.532   5.058  1.8311  0.5804  0.5975
16609TIP3    H271319   4.481   5.583   5.200 -0.1080  1.2775  0.2608
16610TIP3   OH271320   5.195   2.315   3.222 -0.1984 -0.2579 -0.3947
16610TIP3    H171321   5.278   2.268   3.222  1.3646  2.2357 -2.0640
16610TIP3    H271322   5.153   2.289   3.140  0.0227  0.2351 -0.6630
16611TIP3   OH271323   1.554   3.189   0.995  0.6445 -0.4538  0.0007
16611TIP3    H171324   1.572   3.134   1.071  1.0372  0.3308  0.4934
16611TIP3    H271325   1.637   3.235   0.980 -0.3045  1.7376  1.0485
16612TIP3   OH271326   2.795   1.332   4.543  0.3997  0.0905 -0.4426
16612TIP3    H171327   2.741   1.281   4.482 -0.5999 -0.4037  0.7972
16612TIP3    H271328   2.820   1.410   4.494 -1.7348  0.4951 -0.9800
16613TIP3   OH271329   0.096   0.883   0.124 -0.0423  0.2648  0.4746
16613TIP3    H171330   0.056   0.796   0.112  0.1624  0.1906  0.3159
16613TIP3    H271331   0.081   0.904   0.216 -0.9328  0.4847  0.2837
16614TIP3   OH271332   3.126   3.068  14.532 -0.6671  0.4354 -0.1831
16614TIP3    H171333   3.079   3.005  14.587 -2.1125  2.1476  0.6466
16614TIP3    H271334   3.171   3.125  14.594  3.7121 -1.7502 -0.8987
16615TIP3   OH271335   2.456   6.605   4.883  0.9763 -0.7616 -0.5823
16615TIP3    H171336   2.367   6.579   4.860  0.4148  1.2189 -0.8803
16615TIP3    H271337   2.512   6.542   4.838 -0.2685 -2.1013 -0.3146
16616TIP3   OH271338   3.716   1.031   4.968  0.0390 -0.0044  0.7800
16616TIP3    H171339   3.651   0.977   5.011 -2.1962  0.1971 -2.0461
16616TIP3    H271340   3.732   0.988   4.884  0.4746  2.0758 -0.2805
16617TIP3   OH271341   1.906   2.823   5.635  0.2085  0.1613  0.1302
16617TIP3    H171342   1.924   2.855   5.724 -0.1846  1.9453 -0.3942
16617TIP3    H271343   1.820   2.780   5.642 -0.0976  0.8145  0.5118
16618TIP3   OH271344   1.658   0.417   6.172 -0.3203 -0.4143 -0.3057
16618TIP3    H171345   1.565   0.404   6.190  0.1043 -0.7547  1.9220
16618TIP3    H271346   1.694   0.450   6.255  1.1267  2.1058 -1.8052
16619TIP3   OH271347   2.301   6.545   5.639  0.8805  0.0359  0.1863
16619TIP3    H171348   2.264   6.471   5.591  0.4547  0.7965 -0.7043
16619TIP3    H271349   2.337   6.602   5.570 -0.5424  1.5930  0.6733
16620TIP3   OH271350   0.595   2.795  17.265  0.2497 -0.1557 -0.0303
16620TIP3    H171351   0.661   2.726  17.261  0.1697 -0.2597  0.3969
16620TIP3    H271352   0.638   2.868  17.310  0.5512  0.3271 -1.0673
16621TIP3   OH271353   4.476   0.902   4.704  0.1100  0.2411 -0.1606
16621TIP3    H171354   4.557   0.947   4.677  0.9367 -0.9506  0.2599
16621TIP3    H271355   4.434   0.878   4.622  0.5333  0.2588 -0.3885
16622TIP3   OH271356   1.164   6.158  15.896 -0.6225  0.2097  0.3859
16622TIP3    H171357   1.113   6.094  15.944  0.4912  0.5388  2.0951
16622TIP3    H271358   1.254   6.127  15.901 -0.1824  1.4230  0.4731
16623TIP3   OH271359   2.309   2.212   0.796 -0.5201  0.3621  0.4738
16623TIP3    H171360   2.231   2.254   0.760 -0.2503  0.2483 -0.2451
16623TIP3    H271361   2.316   2.248   0.885 -0.8720  1.0528  0.2315
16624TIP3   OH271362   4.861   5.988   6.075  0.2656 -0.5571  0.0773
16624TIP3    H171363   4.768   6.007   6.083  0.5349  0.5740  0.8616
16624TIP3    H271364   4.903   6.051   6.134  1.8309  1.8437 -3.2998
16625TIP3   OH271365   3.944   2.968   3.465  0.4500 -0.1751  0.0369
16625TIP3    H171366   3.905   2.921   3.391 -0.1978  1.8963 -1.0187
16625TIP3    H271367   3.940   3.060   3.439 -0.5057  0.7062  2.9956
16626TIP3   OH271368   5.951   6.236  12.600  0.0602 -0.4235 -0.6568
16626TIP3    H171369   6.009   6.310  12.583  1.7874 -1.3348  0.9579
16626TIP3    H271370   5.891   6.236  12.525 -0.0429  2.5958 -0.7101
16627TIP3   OH271371   1.954   3.976  17.276  0.1555 -0.1036 -0.5881
16627TIP3    H171372   1.925   3.885  17.273 -1.2880  0.2221  1.2580
16627TIP3    H271373   2.015   3.979  17.349 -1.4192  0.7558  0.7628
16628TIP3   OH271374   1.035   3.603  17.151  0.6785 -0.0610 -0.1037
16628TIP3    H171375   1.008   3.691  17.175  3.5912  0.4229  1.8819
16628TIP3    H271376   1.044   3.557  17.235  0.0359 -2.0037 -1.0479
16629TIP3   OH271377   5.164   3.754  16.671  0.2212 -0.3047 -0.2916
16629TIP3    H171378   5.181   3.691  16.602 -0.7763 -0.1457 -0.6960
16629TIP3    H271379   5.214   3.832  16.646  0.0697 -0.3372 -0.7048
16630TIP3   OH271380   0.013   2.779   0.803  0.4883  0.0356 -0.3573
16630TIP3    H171381  -0.014   2.700   0.756 -0.2313  0.0364  0.0449
16630TIP3    H271382   0.096   2.803   0.763 -0.5633  0.6076 -2.3794
16631TIP3   OH271383   2.237   5.261   3.364 -0.4846  0.0651  0.2352
16631TIP3    H171384   2.217   5.197   3.295  0.0584 -0.3320  0.4362
16631TIP3    H271385   2.294   5.214   3.424 -1.2650  0.2799  1.1756
16632TIP3   OH271386   1.786   6.568   4.837 -0.3044  0.1562  0.3078
16632TIP3    H171387   1.857   6.629   4.857  0.4494 -0.3852 -0.6242
16632TIP3    H271388   1.723   6.619   4.786 -0.6050  0.6428  1.1508
16633TIP3   OH271389   5.718   1.507   5.648  0.4777 -0.0689  0.1863
16633TIP3    H171390   5.649   1.444   5.632  0.5484 -0.8775  2.5736
16633TIP3    H271391   5.678   1.574   5.704  1.1492  0.4400  0.0803
16634TIP3   OH271392   4.993   0.200  14.711  0.5194  0.0360 -0.3194
16634TIP3    H171393   5.049   0.186  14.635  0.5120 -0.7287 -0.1868
16634TIP3    H271394   5.039   0.160  14.784 -1.4700 -3.2919 -0.6911
16635TIP3   OH271395   5.425   1.797   2.139  0.5094 -0.0460 -0.2353
16635TIP3    H171396   5.415   1.890   2.119 -2.0948 -0.3282 -0.6698
16635TIP3    H271397   5.426   1.755   2.053 -0.0088 -0.5132 -0.0196
16636TIP3   OH271398   3.898   5.773   4.364 -0.1560  0.0303  0.2592
16636TIP3    H171399   3.818   5.795   4.315 -0.3530 -0.5292  0.3133
16636TIP3    H271400   3.866   5.729   4.442  0.1669  0.7718  0.8173
16637TIP3   OH271401   3.425   0.074   5.515 -0.3707 -0.6894 -0.0881
16637TIP3    H171402   3.414   0.164   5.546 -2.3352 -0.8784 -0.1029
16637TIP3    H271403   3.416   0.021   5.594 -0.3370 -0.9314 -0.2475
16638TIP3   OH271404   6.711   0.567  14.134  0.2478 -0.1091  0.4269
16638TIP3    H171405   6.658   0.615  14.070  2.4747  1.3114 -0.4372
16638TIP3    H271406   6.763   0.506  14.082  1.5127  0.5068  0.9260
16639TIP3   OH271407   1.990   3.188  13.788 -0.0145 -0.0863 -0.6406
16639TIP3    H171408   1.975   3.250  13.859  3.3032  0.2675 -0.0962
16639TIP3    H271409   1.968   3.236  13.708  0.2574  1.0030 -0.0736
16640TIP3   OH271410   3.080   6.060  13.891 -0.2384  0.2857  0.3943
16640TIP3    H171411   3.020   6.128  13.863  1.3967  1.7824  0.3631
16640TIP3    H271412   3.131   6.039  13.812  0.7238  0.6178  0.9073
16641TIP3   OH271413   4.350   3.142  12.604  0.8104  0.2382 -0.4198
16641TIP3    H171414   4.278   3.204  12.601  0.3743 -0.0891  1.6985
16641TIP3    H271415   4.424   3.189  12.566  0.3407  1.8438  0.5677
16642TIP3   OH271416   4.467   5.427  12.791  0.0259  0.1995  0.2676
16642TIP3    H171417   4.438   5.344  12.753  0.5571  0.8259 -1.6253
16642TIP3    H271418   4.456   5.490  12.720  0.2096  1.6329  1.4831
16643TIP3   OH271419   4.637   1.534   4.417  0.4994  0.6563  0.5781
16643TIP3    H171420   4.641   1.513   4.323 -0.3058  2.1311  0.1653
16643TIP3    H271421   4.726   1.560   4.440  0.7764 -0.0374  0.3101
16644TIP3   OH271422   6.255   3.045   0.458 -1.2983  0.0371 -0.5200
16644TIP3    H171423   6.289   3.025   0.371  0.1755 -0.4245  0.1172
16644TIP3    H271424   6.305   3.122   0.485 -0.0454 -1.1763  0.7997
16645TIP3   OH271425   4.155   2.599   6.032 -0.2539 -0.3647  0.1719
16645TIP3    H171426   4.200   2.591   6.115  0.1734  2.2961  0.2968
16645TIP3    H271427   4.067   2.631   6.055 -1.3219 -2.7816 -0.2487
16646TIP3   OH271428   3.698   3.028  11.087  0.5412  0.4514 -0.9069
16646TIP3    H171429   3.606   3.002  11.086  0.1036  1.7085  1.0220
16646TIP3    H271430   3.713   3.068  11.002 -0.2511 -1.0644 -1.8091
16647TIP3   OH271431   4.447   0.356   3.172 -0.8855  0.3337 -0.0172
16647TIP3    H171432   4.372   0.317   3.217 -0.3489 -1.8321 -0.9199
16647TIP3    H271433   4.409   0.394   3.093 -1.1049 -0.3979 -0.2721
16648TIP3   OH271434   2.023   1.459  12.156  0.4049 -0.0444  0.3613
16648TIP3    H171435   1.945   1.505  12.124  0.5614 -1.1034 -1.8008
16648TIP3    H271436   2.064   1.519  12.217 -0.6996  1.6437 -0.4786
16649TIP3   OH271437   1.243   2.188  12.639  0.5837  0.6117 -0.1133
16649TIP3    H171438   1.322   2.141  12.612  0.8329  0.4224  0.8827
16649TIP3    H271439   1.254   2.199  12.734  0.7029  3.0193 -0.3547
16650TIP3   OH271440   0.657   2.128  16.026  0.0328  0.0673 -0.3860
16650TIP3    H171441   0.681   2.151  16.116 -3.3136 -0.0287  0.6851
16650TIP3    H271442   0.710   2.052  16.005  2.8845  1.7041  0.3956
16651TIP3   OH271443   4.859   3.325  12.069  0.2821 -0.3249 -0.1959
16651TIP3    H171444   4.922   3.391  12.041 -0.9529  0.0129 -2.4347
16651TIP3    H271445   4.907   3.242  12.065  2.1169  0.3597  3.5103
16652TIP3   OH271446   1.288   5.917  14.137  0.4067 -0.2265 -0.5413
16652TIP3    H171447   1.371   5.959  14.113 -0.1004  1.8954  1.0945
16652TIP3    H271448   1.273   5.853  14.068  3.3477 -0.6311 -0.9511
16653TIP3   OH271449   1.691   2.506  16.500  0.3368  0.2054 -0.2423
16653TIP3    H171450   1.725   2.479  16.415  0.3676  2.5197 -1.0358
16653TIP3    H271451   1.746   2.580  16.526 -0.0074 -0.1268  1.5626
16654TIP3   OH271452   3.242   4.257   3.407 -0.0919  0.2976  0.2926
16654TIP3    H171453   3.215   4.225   3.321  0.5169  1.0350 -0.1807
16654TIP3    H271454   3.323   4.305   3.391 -0.5651  1.4082  1.1113
16655TIP3   OH271455   5.137   3.766   2.057  0.3503  0.1830  0.2376
16655TIP3    H171456   5.152   3.860   2.058 -0.4572  0.3169  0.0736
16655TIP3    H271457   5.225   3.728   2.046  0.5896  0.9365 -0.5718
16656TIP3   OH271458   1.803   4.700   3.778  0.3631 -0.1411  0.1870
16656TIP3    H171459   1.866   4.772   3.789  1.4672 -1.1682  0.8091
16656TIP3    H271460   1.855   4.621   3.791 -1.0251 -1.0292  0.4948
16657TIP3   OH271461   3.232   2.857   3.686  0.0417 -0.3720  0.4208
16657TIP3    H171462   3.176   2.839   3.611  0.8504 -0.6305 -0.1346
16657TIP3    H271463   3.226   2.952   3.699 -0.5167 -0.3973  0.3737
16658TIP3   OH271464   1.554   0.589  15.003 -0.1459  0.1191  0.3698
16658TIP3    H171465   1.532   0.506  14.961  1.0396 -0.1574  0.2431
16658TIP3    H271466   1.531   0.577  15.095 -2.8459  0.7578 -0.1384
16659TIP3   OH271467   2.932   1.402   3.667 -0.1892  0.0005 -0.3327
16659TIP3    H171468   2.864   1.384   3.602  0.2499  0.5216 -0.9504
16659TIP3    H271469   2.946   1.497   3.662 -0.4686  0.1264  0.8473
16660TIP3   OH271470   2.688   6.634  14.770  0.0827  0.4104  0.1942
16660TIP3    H171471   2.700   6.693  14.844 -2.5849  0.7339  0.4997
16660TIP3    H271472   2.617   6.674  14.719 -1.0504 -1.9040 -0.2040
16661TIP3   OH271473   1.059   5.892   0.405 -0.3134  0.2517  0.1556
16661TIP3    H171474   0.977   5.915   0.450  0.2290 -1.0770  1.9480
16661TIP3    H271475   1.117   5.863   0.475  1.0102 -0.7616 -1.2970
16662TIP3   OH271476   4.115   2.948  10.922  0.1189  0.4612  0.4437
16662TIP3    H171477   4.189   2.896  10.891 -0.5744 -0.1472 -0.2209
16662TIP3    H271478   4.147   3.038  10.923  0.8925  0.1932  0.2650
16663TIP3   OH271479   4.454   4.655  15.954  0.1749  0.3060  0.2724
16663TIP3    H171480   4.475   4.742  15.919 -0.8958 -0.6870 -3.3175
16663TIP3    H271481   4.528   4.633  16.011  2.2861  2.1624 -1.5571
16664TIP3   OH271482   6.580   2.242   3.757  0.2677  0.0436  0.1049
16664TIP3    H171483   6.577   2.276   3.847 -1.6677 -2.3508  1.0488
16664TIP3    H271484   6.586   2.147   3.767  0.0929 -0.2884 -2.3248
16665TIP3   OH271485   1.096   2.025  14.730  0.2231  0.1123 -0.1105
16665TIP3    H171486   1.094   2.109  14.777 -3.5463 -0.2730  0.7105
16665TIP3    H271487   1.111   2.049  14.639  0.5446  1.5513  0.2959
16666TIP3   OH271488   0.397   4.801  15.969  0.0879 -0.0540  0.3604
16666TIP3    H171489   0.406   4.830  15.878  0.4847 -1.4235 -0.0550
16666TIP3    H271490   0.446   4.866  16.020  0.7430  0.1464 -0.5054
16667TIP3   OH271491   4.304   2.250  16.178 -0.1533  0.0215 -0.1769
16667TIP3    H171492   4.244   2.301  16.232 -0.5879 -0.2787 -0.3742
16667TIP3    H271493   4.355   2.199  16.241 -1.6014 -1.3876 -0.0659
16668TIP3   OH271494   0.593   4.413   4.308 -0.0320  0.1949 -0.1412
16668TIP3    H171495   0.685   4.426   4.332  1.2372 -1.1520 -3.6006
16668TIP3    H271496   0.570   4.491   4.257 -0.9968  0.7002  1.0110
16669TIP3   OH271497   1.061   3.434   4.313  0.2621 -0.4441 -0.3294
16669TIP3    H171498   1.079   3.526   4.335  0.1908 -0.6740  0.7863
16669TIP3    H271499   1.095   3.423   4.225  1.8000  0.2172  0.1435
16670TIP3   OH271500   2.484   2.561  16.454 -0.4725  0.4185  0.1705
16670TIP3    H171501   2.461   2.646  16.417  0.7669  0.7395  0.0704
16670TIP3    H271502   2.401   2.521  16.478 -1.0774  1.6208  0.1385
16671TIP3   OH271503   3.910   2.992  15.437 -0.0790  0.0459  0.0760
16671TIP3    H171504   3.954   3.066  15.480 -0.5105  0.2711  0.1320
16671TIP3    H271505   3.845   3.033  15.380 -0.9023 -0.3093  0.7379
16672TIP3   OH271506   1.307   4.775   5.124 -0.3196  0.1361 -0.4993
16672TIP3    H171507   1.316   4.852   5.180 -0.3872  2.1577 -3.0945
16672TIP3    H271508   1.226   4.789   5.075  0.7660 -0.4249 -2.6007
16673TIP3   OH271509   0.894   4.232   3.241 -0.3821 -0.0106 -0.0280
16673TIP3    H171510   0.927   4.309   3.286  0.4636 -0.5580  0.3166
16673TIP3    H271511   0.909   4.249   3.148  2.3698 -0.8502  0.1646
16674TIP3   OH271512   0.335   1.436   2.822 -0.1471  0.2140 -0.4986
16674TIP3    H171513   0.246   1.404   2.832  0.5255 -1.3541  1.1218
16674TIP3    H271514   0.353   1.430   2.728 -1.6490  0.3461 -0.8072
16675TIP3   OH271515   3.146   2.852   5.258  0.1956 -0.7528  0.6007
16675TIP3    H171516   3.076   2.787   5.264  0.5625 -1.1297  0.8272
16675TIP3    H271517   3.185   2.853   5.346  3.7510 -4.2255 -0.6732
16676TIP3   OH271518   6.143   1.495  11.261  0.7356 -0.1002  0.1604
16676TIP3    H171519   6.058   1.536  11.273  0.0266 -1.5459  0.3956
16676TIP3    H271520   6.140   1.457  11.173  1.4629  0.5464 -0.1546
16677TIP3   OH271521   6.579   5.469  17.005 -0.3177 -0.2501 -0.1383
16677TIP3    H171522   6.641   5.511  16.945  0.4986 -1.1470  0.0473
16677TIP3    H271523   6.493   5.500  16.977  0.1957  0.8995 -0.5036
16678TIP3   OH271524   0.129   5.238  12.169  0.2071  0.9562 -0.3343
16678TIP3    H171525   0.071   5.200  12.235  0.8580  1.5831  0.6414
16678TIP3    H271526   0.215   5.241  12.213  1.3071 -1.1344 -2.1517
16679TIP3   OH271527   2.608   3.002  14.838 -0.1525 -0.6937  0.1365
16679TIP3    H171528   2.515   2.988  14.823 -0.2504 -0.5290  0.5664
16679TIP3    H271529   2.646   3.008  14.750 -0.6142 -0.3312 -0.0460
16680TIP3   OH271530   4.420   0.200   5.455 -0.0880  0.2634 -1.0393
16680TIP3    H171531   4.331   0.208   5.487  0.0119  1.5909 -1.0302
16680TIP3    H271532   4.470   0.265   5.505  1.7109 -2.8897  1.6176
16681TIP3   OH271533   2.351   4.678   1.221  0.2802  0.0306  0.1563
16681TIP3    H171534   2.346   4.690   1.316 -1.8817 -0.0571  0.1034
16681TIP3    H271535   2.315   4.591   1.206  2.8070 -0.9673 -0.6092
16682TIP3   OH271536   4.889   1.481  13.225 -0.0140 -0.1984  0.0778
16682TIP3    H171537   4.909   1.521  13.141 -1.1003 -0.6134 -0.3964
16682TIP3    H271538   4.970   1.435  13.249  0.2490 -0.2347 -0.8284
16683TIP3   OH271539   2.890   1.586  14.006  0.1265  0.4798  0.0423
16683TIP3    H171540   2.897   1.528  14.083  1.9228 -0.6338 -0.8970
16683TIP3    H271541   2.895   1.674  14.042 -0.2048  0.0045  1.3131
16684TIP3   OH271542   5.868   2.058   0.163  0.0224 -0.3295 -0.3358
16684TIP3    H171543   5.922   2.026   0.236 -0.2663  1.6540  0.8089
16684TIP3    H271544   5.778   2.050   0.194 -0.1286  0.0411 -0.6679
16685TIP3   OH271545   2.929   2.387   2.457  0.9966 -0.2805 -0.1335
16685TIP3    H171546   2.957   2.468   2.413 -0.0994 -0.3031 -0.9136
16685TIP3    H271547   2.929   2.409   2.550 -0.2950  0.9664 -0.3889
16686TIP3   OH271548   3.431   4.895   5.828 -0.1550 -0.0258  0.6819
16686TIP3    H171549   3.419   4.812   5.782  0.9441 -0.9511  2.0290
16686TIP3    H271550   3.489   4.946   5.771 -0.8438 -0.1504 -0.1540
16687TIP3   OH271551   6.562   3.850  11.558  0.1635 -0.2780  0.8884
16687TIP3    H171552   6.548   3.783  11.491 -0.2133  0.8023 -0.1336
16687TIP3    H271553   6.618   3.807  11.623  2.5267 -0.6448 -1.2490
16688TIP3   OH271554   3.200   4.793  12.974 -0.3422  0.0589  0.0792
16688TIP3    H171555   3.136   4.741  13.023  0.9328 -0.3427  1.3973
16688TIP3    H271556   3.224   4.738  12.900 -0.3519 -0.4750  0.4646
16689TIP3   OH271557   3.784   1.703  13.750 -0.0701 -0.1012 -0.4353
16689TIP3    H171558   3.873   1.703  13.716 -0.1780  1.4425 -0.8181
16689TIP3    H271559   3.755   1.612  13.744  1.3910 -0.5727 -0.5122
16690TIP3   OH271560   3.967   6.269   2.638  0.2300  0.4349 -0.3067
16690TIP3    H171561   4.018   6.344   2.608  0.4480  0.3478 -0.1579
16690TIP3    H271562   3.885   6.273   2.588  0.1773  0.8585 -0.1901
16691TIP3   OH271563   6.421   0.297   1.946 -0.2847 -0.0846  0.0757
16691TIP3    H171564   6.472   0.320   2.024  1.0554 -0.8999 -0.5198
16691TIP3    H271565   6.477   0.324   1.873 -1.4773  0.5869 -0.6304
16692TIP3   OH271566   1.109   0.713   0.161  0.3387  0.2241 -0.0186
16692TIP3    H171567   1.043   0.693   0.228  0.2148 -0.4988 -0.3465
16692TIP3    H271568   1.090   0.651   0.090  1.1623  0.2373 -0.2585
16693TIP3   OH271569   5.606   2.020   0.230  0.2704  0.1705  0.1001
16693TIP3    H171570   5.551   2.085   0.187  1.1302  0.9806  0.1805
16693TIP3    H271571   5.577   2.020   0.321  0.3154  0.5049  0.1163
16694TIP3   OH271572   0.721   2.624   0.653  0.2100 -0.1023  0.3469
16694TIP3    H171573   0.648   2.596   0.598 -0.1090  0.2643  0.5782
16694TIP3    H271574   0.761   2.543   0.683  0.8869 -0.3242 -1.0714
16695TIP3   OH271575   1.579   1.503  14.912  0.1480 -0.9221 -0.0048
16695TIP3    H171576   1.561   1.424  14.861 -0.5633  0.0642 -1.3674
16695TIP3    H271577   1.497   1.553  14.908  0.7788  0.1707  0.2621
16696TIP3   OH271578   4.174   5.160  12.484  0.2066  0.3266 -0.1993
16696TIP3    H171579   4.186   5.066  12.467 -0.1669  0.4040 -0.9245
16696TIP3    H271580   4.241   5.181  12.550  2.2912  0.1922 -2.1542
16697TIP3   OH271581   3.220   6.082  12.867  0.0132  0.1108  0.0255
16697TIP3    H171582   3.125   6.074  12.863 -0.0423  0.8796 -0.8920
16697TIP3    H271583   3.253   6.003  12.825 -0.2150 -0.2206  0.4680
16698TIP3   OH271584   5.344   1.136   0.941 -0.5635 -0.4185 -0.1233
16698TIP3    H171585   5.421   1.176   0.900  0.4703 -0.7435  1.4123
16698TIP3    H271586   5.316   1.199   1.008 -0.4810 -1.1088  0.5872
16699TIP3   OH271587   4.305   1.235  11.317  0.2422 -0.6152  0.0348
16699TIP3    H171588   4.315   1.275  11.230 -0.1138 -0.1612  0.2013
16699TIP3    H271589   4.337   1.301  11.378 -0.6890 -0.4244  0.3360
16700TIP3   OH271590   2.400   6.002  12.959 -0.3114  0.0644 -0.1281
16700TIP3    H171591   2.360   5.915  12.951 -1.1441  0.5985 -2.9213
16700TIP3    H271592   2.328   6.058  12.990 -0.1802  0.0275  0.2456
16701TIP3   OH271593   2.986   6.783   2.721  0.4328  0.9922  0.3442
16701TIP3    H171594   3.000   6.836   2.800  0.7603  0.9580  0.3120
16701TIP3    H271595   3.040   6.826   2.655  2.5913 -0.7194  0.8892
16702TIP3   OH271596   5.176   3.506  15.104 -0.2122 -0.4634 -0.5815
16702TIP3    H171597   5.127   3.588  15.112  0.1364 -0.2285 -0.8073
16702TIP3    H271598   5.212   3.491  15.192 -1.7256 -1.3158 -0.0714
16703TIP3   OH271599   2.255   3.473  12.624  0.2631  0.1964 -0.4466
16703TIP3    H171600   2.253   3.539  12.555 -1.1850  0.7917  0.1227
16703TIP3    H271601   2.164   3.445  12.633  0.7861 -1.6358 -0.4191
16704TIP3   OH271602   1.594   4.052   2.044  0.0490  0.2598  0.1256
16704TIP3    H171603   1.511   4.009   2.067  0.2069  0.9050  2.1076
16704TIP3    H271604   1.660   3.984   2.055 -0.2412 -0.4912 -2.2640
16705TIP3   OH271605   6.026   3.811  17.069  0.2920  0.1267 -0.9355
16705TIP3    H171606   5.951   3.761  17.035 -1.2351  2.5128 -1.3981
16705TIP3    H271607   6.020   3.802  17.164  1.6311 -2.6033 -1.0434
16706TIP3   OH271608   5.096   0.616   0.431 -0.5399 -0.1108  0.2213
16706TIP3    H171609   5.053   0.548   0.380 -2.3203  1.0212  0.1114
16706TIP3    H271610   5.121   0.573   0.513  1.1372 -1.6051 -1.0000
16707TIP3   OH271611   6.409   1.592  11.507 -0.2854  0.0621  0.7236
16707TIP3    H171612   6.389   1.674  11.464 -0.5719  0.2721  1.2433
16707TIP3    H271613   6.406   1.612  11.601  3.1795  0.3292  0.9235
16708TIP3   OH271614   3.655   1.531   2.224 -0.0663 -0.5072  0.0756
16708TIP3    H171615   3.740   1.574   2.228  0.1531 -0.9753  0.7798
16708TIP3    H271616   3.612   1.554   2.307 -1.5540  1.5243 -1.1565
16709TIP3   OH271617   4.362   6.446  15.160 -0.1306 -0.3828  0.3336
16709TIP3    H171618   4.419   6.420  15.232 -0.2851 -1.1181  0.1920
16709TIP3    H271619   4.306   6.371  15.145  0.4406 -0.5513 -1.0972
16710TIP3   OH271620   1.775   3.843  15.064  0.9426 -0.1056 -0.5977
16710TIP3    H171621   1.786   3.808  15.152 -0.4455 -0.5035 -0.5702
16710TIP3    H271622   1.773   3.938  15.076  1.9846 -0.1001 -0.3596
16711TIP3   OH271623   6.462   3.502   3.600  0.3672  0.0904  0.1299
16711TIP3    H171624   6.553   3.503   3.572  0.4349  1.3555  0.3425
16711TIP3    H271625   6.413   3.529   3.523  0.2475  0.2931  0.2780
16712TIP3   OH271626   4.991   6.718  15.738  0.1827 -0.7161 -0.6555
16712TIP3    H171627   5.005   6.812  15.726  1.3156 -0.4383  2.0368
16712TIP3    H271628   5.045   6.677  15.671  1.1018  0.5462 -0.7353
16713TIP3   OH271629   1.619   2.941   3.335 -0.2168 -0.6664 -0.5065
16713TIP3    H171630   1.613   3.036   3.344  0.5850 -0.7314  1.1304
16713TIP3    H271631   1.580   2.922   3.249  0.2318  1.1904 -1.1583
16714TIP3   OH271632   3.206   2.619   1.657 -0.2732  0.4957 -0.1960
16714TIP3    H171633   3.123   2.597   1.615  0.2294  0.4642 -1.2099
16714TIP3    H271634   3.213   2.559   1.732 -1.2430  0.6317  0.0109
16715TIP3   OH271635   5.836   3.892  13.582 -0.3363  0.1448  0.4986
16715TIP3    H171636   5.767   3.928  13.526 -0.0365  0.6207  0.4235
16715TIP3    H271637   5.906   3.957  13.577  0.2124 -0.4478  0.3788
16716TIP3   OH271638   0.924   2.307   2.540  0.3297 -0.2479 -0.1193
16716TIP3    H171639   0.983   2.333   2.469 -0.1836  1.7276  0.1234
16716TIP3    H271640   0.962   2.226   2.573  2.2906  0.3631 -0.7037
16717TIP3   OH271641   6.427   5.711  12.276  0.4483 -0.4735 -0.1576
16717TIP3    H171642   6.437   5.778  12.208 -0.9565 -1.1968 -1.1488
16717TIP3    H271643   6.515   5.678  12.291  0.6866 -1.1030 -2.5238
16718TIP3   OH271644   5.936   6.581  14.624 -0.0988 -0.1352  0.0647
16718TIP3    H171645   5.886   6.566  14.705 -0.9673 -1.9003 -0.7344
16718TIP3    H271646   6.003   6.644  14.649  0.2788 -1.3344  2.4497
16719TIP3   OH271647   1.257   4.550  15.092 -0.0230  0.0928 -0.6309
16719TIP3    H171648   1.172   4.507  15.079  0.3803 -1.1134  0.5244
16719TIP3    H271649   1.264   4.611  15.018 -1.1739 -0.9329 -1.6330
16720TIP3   OH271650   0.112   2.390   1.728  0.3025  0.1956 -0.0036
16720TIP3    H171651   0.172   2.453   1.688 -0.0758  1.4027  1.2454
16720TIP3    H271652   0.168   2.317   1.755  1.3321  1.4726  1.5130
16721TIP3   OH271653   5.806   2.195   2.416 -0.4197 -0.0564 -0.1447
16721TIP3    H171654   5.842   2.234   2.337  1.0763  0.8937  0.9476
16721TIP3    H271655   5.865   2.122   2.436  0.9547  1.4398  1.5995
16722TIP3   OH271656   4.865   4.657  12.216 -0.0027  0.9958  0.7018
16722TIP3    H171657   4.919   4.594  12.264  0.7710 -0.1639 -1.5486
16722TIP3    H271658   4.924   4.729  12.196  0.8239 -0.2083 -1.6335
16723TIP3   OH271659   4.105   0.490   2.339  0.3256  0.1591 -0.3754
16723TIP3    H171660   4.197   0.512   2.353  0.1077  2.7511 -2.2205
16723TIP3    H271661   4.058   0.570   2.366 -1.5415 -1.4339  1.4556
16724TIP3   OH271662   3.637   3.418  13.116 -0.6911  0.7464 -0.0623
16724TIP3    H171663   3.632   3.459  13.030  1.6794 -1.3001 -1.3143
16724TIP3    H271664   3.698   3.473  13.165  0.0065  0.4923 -0.6280
16725TIP3   OH271665   1.209   5.414  11.446  0.7020  0.1690  0.0616
16725TIP3    H171666   1.118   5.427  11.471  1.4292 -0.2894  3.3904
16725TIP3    H271667   1.221   5.470  11.369 -2.0922  1.0473  0.1583
16726TIP3   OH271668   5.948   0.186   4.799 -0.3102 -0.0222 -0.4785
16726TIP3    H171669   5.864   0.200   4.754  0.3257  1.1347 -1.3428
16726TIP3    H271670   5.969   0.094   4.782  0.2402  0.5239 -3.1988
16727TIP3   OH271671   4.709   3.887  16.517  0.1379  0.1801 -0.1894
16727TIP3    H171672   4.794   3.909  16.557  0.3640  1.2384 -1.1853
16727TIP3    H271673   4.730   3.824  16.448 -0.4134 -2.7139  2.1155
16728TIP3   OH271674   3.171   4.538  16.296 -0.1674 -0.0146  0.3539
16728TIP3    H171675   3.189   4.543  16.390 -2.3163 -1.1531  0.8662
16728TIP3    H271676   3.253   4.567  16.255  0.5804  1.2027  2.5554
16729TIP3   OH271677   5.734   2.086   0.586 -0.2368  0.2121 -1.0454
16729TIP3    H171678   5.646   2.050   0.592  0.6595 -1.9285  0.6163
16729TIP3    H271679   5.750   2.125   0.672  0.9176 -0.7290 -0.8020
16730TIP3   OH271680   2.877   5.681  15.828 -0.6755  0.0824  0.2422
16730TIP3    H171681   2.908   5.733  15.903 -1.6779  1.6210 -0.3584
16730TIP3    H271682   2.786   5.660  15.849  0.1671 -3.0883  1.2915
16731TIP3   OH271683   0.827   0.101   1.490  0.2531 -0.1316  0.3199
16731TIP3    H171684   0.740   0.095   1.530  1.3059 -0.4102  2.7317
16731TIP3    H271685   0.861   0.012   1.491  0.5180 -0.0582 -0.7867
16732TIP3   OH271686   2.486   4.886  13.036 -0.0015 -0.5882  0.5879
16732TIP3    H171687   2.507   4.798  13.067 -0.4165 -0.8597  0.1111
16732TIP3    H271688   2.408   4.911  13.085 -0.6095 -0.9848 -0.1592
16733TIP3   OH271689   4.209   4.505  12.971 -0.4881  0.0392 -0.2950
16733TIP3    H171690   4.282   4.454  13.006 -1.8167 -1.3493  0.5908
16733TIP3    H271691   4.132   4.452  12.990 -1.6534  1.0439 -2.0085
16734TIP3   OH271692   5.457   1.352   0.219  0.0546  0.5466  0.6086
16734TIP3    H171693   5.382   1.306   0.257 -0.2473  0.1487 -0.4309
16734TIP3    H271694   5.429   1.374   0.130  0.7606  1.4129  0.5849
16735TIP3   OH271695   6.052   4.139   5.550 -0.3749  0.2457  0.4945
16735TIP3    H171696   6.091   4.185   5.625 -0.8185  1.3707  0.0526
16735TIP3    H271697   6.078   4.191   5.474  2.1995 -2.2367 -0.4876
16736TIP3   OH271698   5.691   3.252  16.656 -0.3959 -0.7035  0.6058
16736TIP3    H171699   5.761   3.312  16.629  0.0090 -0.6604  1.7072
16736TIP3    H271700   5.613   3.285  16.612  0.3971 -1.2228 -1.3008
16737TIP3   OH271701   3.605   5.200   4.981  0.4420 -0.2952 -0.1778
16737TIP3    H171702   3.558   5.194   5.064  1.7713 -4.3279  0.4684
16737TIP3    H271703   3.540   5.176   4.915  0.3322 -0.9055  0.1485
16738TIP3   OH271704   5.258   3.134   2.008 -0.0199 -0.3650  0.5484
16738TIP3    H171705   5.310   3.191   2.065 -0.4987 -1.2840  1.9526
16738TIP3    H271706   5.269   3.046   2.046 -1.0743 -0.8568 -0.2476
16739TIP3   OH271707   6.363   5.659   5.463  0.3679 -0.0757 -0.0639
16739TIP3    H171708   6.354   5.572   5.501 -1.2009  0.6003  1.2469
16739TIP3    H271709   6.409   5.710   5.530 -0.0275  0.4571 -0.1865
16740TIP3   OH271710   0.247   5.460  13.759  0.5203  0.0897  0.0035
16740TIP3    H171711   0.338   5.477  13.783  0.1103  0.5827  1.2882
16740TIP3    H271712   0.202   5.447  13.843 -0.8250  1.0762 -0.5232
16741TIP3   OH271713   4.018   3.714   0.010  0.0176 -0.1554 -0.3557
16741TIP3    H171714   4.058   3.674  -0.068 -0.3633 -0.4050 -0.4265
16741TIP3    H271715   4.087   3.713   0.076  0.7441  1.1701 -1.0522
16742TIP3   OH271716   3.007   3.479   2.903  0.2781  0.0421  0.4703
16742TIP3    H171717   2.944   3.408   2.899 -2.4679  2.3766 -0.5327
16742TIP3    H271718   2.961   3.550   2.948  2.7396  1.3901  1.0665
16743TIP3   OH271719   5.560   3.566  11.899  0.5934 -0.5195  0.1695
16743TIP3    H171720   5.609   3.641  11.933 -0.0062  0.5742 -1.2764
16743TIP3    H271721   5.578   3.566  11.805 -1.6765 -0.4129 -0.3196
16744TIP3   OH271722   2.875   3.218   1.472  0.2847  0.1772 -0.7939
16744TIP3    H171723   2.870   3.173   1.387 -0.2296  0.7796 -1.0915
16744TIP3    H271724   2.924   3.158   1.528  0.1975 -0.4506 -1.3760
16745TIP3   OH271725   5.516   6.623   5.990 -0.3980  0.3313 -0.4345
16745TIP3    H171726   5.446   6.681   5.960 -1.0084  0.3981  1.0213
16745TIP3    H271727   5.539   6.657   6.077  0.9628 -0.1174 -0.5999
16746TIP3   OH271728   6.210   0.304  15.692  0.5942 -0.2157  0.5198
16746TIP3    H171729   6.233   0.311  15.600 -1.0321  0.4642  0.1403
16746TIP3    H271730   6.124   0.261  15.693  0.1627  0.5930  1.6466
16747TIP3   OH271731   2.829   5.284  16.570  0.0868 -0.3308  0.3047
16747TIP3    H171732   2.751   5.279  16.625 -1.3500  2.4799 -1.2863
16747TIP3    H271733   2.803   5.247  16.486  0.9585 -0.6894  0.1751
16748TIP3   OH271734   4.911   4.347   4.497  0.2509  0.3656 -0.2128
16748TIP3    H171735   4.929   4.333   4.590  2.2351  1.8455 -0.3156
16748TIP3    H271736   4.875   4.263   4.467  0.3226 -0.4010  1.6955
16749TIP3   OH271737   3.371   4.650  14.951 -0.3668 -0.0717 -0.0723
16749TIP3    H171738   3.445   4.699  14.988  1.5347 -0.9859 -2.4173
16749TIP3    H271739   3.304   4.654  15.019  1.3352  1.9182  1.6508
16750TIP3   OH271740   5.387   0.939  12.692 -0.4934  0.4508 -0.5629
16750TIP3    H171741   5.400   0.907  12.603 -1.9752  2.5576 -1.6225
16750TIP3    H271742   5.292   0.938  12.704 -0.2919 -1.3554  1.6796
16751TIP3   OH271743   3.124   4.072   5.645  0.1515 -0.5409  0.2900
16751TIP3    H171744   3.043   4.022   5.658 -0.4066  0.8376  2.7062
16751TIP3    H271745   3.104   4.130   5.572 -0.4246 -1.4070 -0.2603
16752TIP3   OH271746   3.360   0.618  14.577 -0.3190 -0.4170  0.1665
16752TIP3    H171747   3.405   0.700  14.594 -0.4263 -0.5103  0.9600
16752TIP3    H271748   3.275   0.628  14.620 -1.1537 -0.1649 -1.4799
16753TIP3   OH271749   2.098   2.957  11.948 -0.0253  0.0357 -0.3762
16753TIP3    H171750   2.034   2.997  12.008 -0.6145 -1.1673 -0.1752
16753TIP3    H271751   2.046   2.929  11.873  0.3441 -0.5107 -0.4307
16754TIP3   OH271752   6.113   3.887  14.512  0.7875 -0.2332  0.1890
16754TIP3    H171753   6.123   3.801  14.473 -1.8432  0.6186 -2.6919
16754TIP3    H271754   6.181   3.941  14.471 -0.4609  0.0744 -1.5964
16755TIP3   OH271755   4.442   1.263  13.614  0.1886  0.0156 -0.1349
16755TIP3    H171756   4.477   1.184  13.654  0.1388  0.4039  0.7046
16755TIP3    H271757   4.397   1.233  13.535  0.5234 -0.7371 -0.0433
16756TIP3   OH271758   1.711   2.495  15.849  0.2052  0.4385  0.2087
16756TIP3    H171759   1.708   2.591  15.849  0.7878  0.4975 -1.9764
16756TIP3    H271760   1.793   2.474  15.893  1.5257  1.0873 -1.8267
16757TIP3   OH271761   1.765   1.909  15.038  0.4622  0.0184 -0.0686
16757TIP3    H171762   1.723   1.927  14.953 -1.6322  2.6543  1.3391
16757TIP3    H271763   1.720   1.831  15.070 -1.7844  1.3356  0.2762
16758TIP3   OH271764   1.184   0.270   2.873  0.2511 -0.3492  0.0321
16758TIP3    H171765   1.218   0.187   2.908  0.8316 -1.0506 -2.0376
16758TIP3    H271766   1.241   0.337   2.911 -1.2155 -0.6228  3.0380
16759TIP3   OH271767   4.102   5.834  12.430 -0.4247 -0.1572 -1.1615
16759TIP3    H171768   4.093   5.749  12.386  1.0918 -0.0636 -1.7309
16759TIP3    H271769   4.149   5.814  12.511 -0.0717  0.1152 -1.2923
16760TIP3   OH271770   4.124   0.246   2.207 -0.3331  0.2264 -0.0563
16760TIP3    H171771   4.041   0.238   2.254 -0.9860  0.0153 -1.2265
16760TIP3    H271772   4.142   0.340   2.207  0.1358  0.1594  1.3736
16761TIP3   OH271773   0.987   4.503  15.261 -0.4329 -0.1223  0.2523
16761TIP3    H171774   1.035   4.428  15.296 -0.5791  0.0751  0.8949
16761TIP3    H271775   0.973   4.481  15.169 -2.0434 -1.7420  0.8111
16762TIP3   OH271776   1.771   3.172  12.526 -0.1100 -0.6671 -0.8923
16762TIP3    H171777   1.690   3.170  12.577  0.6222 -0.7119  0.3055
16762TIP3    H271778   1.756   3.240  12.460 -0.1088  1.3818  1.1041
16763TIP3   OH271779   3.656   2.309  16.576  0.3621 -0.0435  0.7835
16763TIP3    H171780   3.576   2.332  16.529 -0.1658  0.9468  2.1127
16763TIP3    H271781   3.716   2.382  16.561  0.6784 -0.3342  0.5929
16764TIP3   OH271782   3.658   3.742   3.015  0.4793 -0.6487  0.4684
16764TIP3    H171783   3.675   3.815   2.955  0.4419 -1.9309 -1.1890
16764TIP3    H271784   3.685   3.775   3.101 -0.3141  1.5905 -0.0583
16765TIP3   OH271785   3.916   3.091   4.337  0.1888 -0.1020 -0.0802
16765TIP3    H171786   3.942   3.178   4.368  0.5000 -0.3709  0.4371
16765TIP3    H271787   3.963   3.031   4.395  0.5160 -0.6227 -0.8704
16766TIP3   OH271788   6.791   2.287   5.877  0.8420  0.2918 -0.0660
16766TIP3    H171789   6.851   2.352   5.914  1.2470  0.4283 -0.9268
16766TIP3    H271790   6.825   2.272   5.788 -0.3998  0.3647 -0.5700
16767TIP3   OH271791   5.088   1.830  17.032 -0.3979  0.5827  0.3550
16767TIP3    H171792   5.004   1.811  16.990  0.2123  1.3153 -1.2865
16767TIP3    H271793   5.100   1.924  17.020  0.9942  0.3675 -0.1221
16768TIP3   OH271794   0.512   3.265   0.905  0.3414 -0.0020  0.1558
16768TIP3    H171795   0.440   3.236   0.850 -0.7639  0.7990  1.1335
16768TIP3    H271796   0.541   3.348   0.866  0.4083 -0.0777  0.0449
16769TIP3   OH271797   6.792   3.976   0.495  0.6862 -0.1403  0.1649
16769TIP3    H171798   6.805   3.954   0.587  1.2729 -0.2646  0.0595
16769TIP3    H271799   6.699   3.963   0.480  0.5438  0.1005  0.7978
16770TIP3   OH271800   1.023   2.073   2.639  0.1685 -0.2157 -0.0380
16770TIP3    H171801   0.977   1.989   2.643  0.3588 -0.3510 -0.6545
16770TIP3    H271802   1.089   2.062   2.571  0.5895  0.2443  0.2849
16771TIP3   OH271803   2.881   6.253   3.311  0.8506 -0.1047 -0.6362
16771TIP3    H171804   2.872   6.182   3.374  0.1162  0.1785 -0.4104
16771TIP3    H271805   2.847   6.217   3.229  0.5752 -0.0521 -0.5467
16772TIP3   OH271806   5.489   0.056  13.654  0.2470 -0.4065  0.0383
16772TIP3    H171807   5.492  -0.022  13.708  0.3845  1.3735  2.8185
16772TIP3    H271808   5.580   0.085  13.648  0.4142 -1.2087 -2.2895
16773TIP3   OH271809   0.112   0.064   0.931 -0.5590  0.9173  0.0598
16773TIP3    H171810   0.038   0.123   0.917 -1.3149  0.3102  1.3197
16773TIP3    H271811   0.073  -0.016   0.966  0.6534  0.4356  0.3704
16774TIP3   OH271812   3.062   2.424  14.306  0.1361 -0.0464  0.1074
16774TIP3    H171813   3.043   2.467  14.222 -0.2449 -0.0714  0.1763
16774TIP3    H271814   3.115   2.348  14.282 -1.2781 -0.9505 -0.2999
16775TIP3   OH271815   6.349   2.333  16.449  0.1864 -0.8043 -0.0727
16775TIP3    H171816   6.308   2.284  16.378  0.8199 -1.4313 -0.0104
16775TIP3    H271817   6.284   2.334  16.519 -1.9750  2.8216 -1.7934
16776TIP3   OH271818   4.989   1.635   2.220  1.0301 -0.6166  0.2122
16776TIP3    H171819   4.979   1.547   2.255 -1.0343 -0.7122 -0.5032
16776TIP3    H271820   5.000   1.691   2.297  0.2574 -1.2514  0.7950
16777TIP3   OH271821   6.003   1.877  15.961  0.2778  0.1219  0.3242
16777TIP3    H171822   6.054   1.917  15.890  1.3530 -0.3253  0.8339
16777TIP3    H271823   5.923   1.847  15.918  1.0353 -0.4106 -0.7757
16778TIP3   OH271824   1.501   1.413   3.239  0.0085  0.1762 -0.3325
16778TIP3    H171825   1.543   1.328   3.252  0.6504  0.3963 -0.9365
16778TIP3    H271826   1.413   1.401   3.274 -0.0361 -0.8582 -0.7592
16779TIP3   OH271827   6.343   1.030  15.903  0.8492 -0.1328  0.2887
16779TIP3    H171828   6.345   1.004  15.995  2.1460 -1.4178 -0.0665
16779TIP3    H271829   6.350   1.125  15.905  1.0982 -0.1590  1.5143
16780TIP3   OH271830   2.298   4.122  14.427  0.2316 -0.3861 -0.0047
16780TIP3    H171831   2.309   4.179  14.503 -0.2398 -0.2733 -0.0125
16780TIP3    H271832   2.216   4.152  14.387 -1.3625 -2.5638  1.3372
16781TIP3   OH271833   3.092   0.962  16.039  0.4785  0.3777  0.1340
16781TIP3    H171834   3.164   0.969  16.100 -1.8305  0.9907  3.0067
16781TIP3    H271835   3.065   1.052  16.023 -1.2297  0.1152  1.2504
16782TIP3   OH271836   1.736   2.971  10.995 -0.5251 -0.1711  0.4703
16782TIP3    H171837   1.642   2.949  10.994 -0.2222 -1.6783 -1.5965
16782TIP3    H271838   1.770   2.935  10.913  1.8295  0.6254  1.0159
16783TIP3   OH271839   4.291   3.641   2.243  0.3290  0.4565 -0.5687
16783TIP3    H171840   4.384   3.664   2.247 -0.0088  2.2985 -1.9731
16783TIP3    H271841   4.275   3.622   2.151 -0.1890 -2.4875  0.0199
16784TIP3   OH271842   4.151   1.355   3.053  0.2250  0.4316  0.1366
16784TIP3    H171843   4.087   1.414   3.012  0.3084  0.0245 -0.5918
16784TIP3    H271844   4.111   1.268   3.046  0.1878  0.3734  1.0323
16785TIP3   OH271845   5.450   3.805  14.589  0.3603 -0.4671 -0.0415
16785TIP3    H171846   5.372   3.763  14.625 -0.2914 -0.3094 -1.2133
16785TIP3    H271847   5.501   3.733  14.552  0.1824 -0.4486 -0.3300
16786TIP3   OH271848   6.421   1.472  12.838  0.2428 -0.5068 -0.3766
16786TIP3    H171849   6.346   1.515  12.878  0.9431  1.6410 -1.2354
16786TIP3    H271850   6.486   1.541  12.827  2.5530 -2.3557  0.6878
16787TIP3   OH271851   4.332   3.487  14.795  0.5404 -0.0299 -0.2533
16787TIP3    H171852   4.300   3.409  14.750  2.1831 -0.7862 -0.2056
16787TIP3    H271853   4.365   3.454  14.879  1.3636  0.6887 -0.2807
16788TIP3   OH271854   0.891   0.344   5.968  0.2689 -0.5097 -0.7322
16788TIP3    H171855   0.817   0.403   5.952 -1.1242 -2.1118 -0.4430
16788TIP3    H271856   0.940   0.345   5.886  0.3020  1.0299 -0.7336
16789TIP3   OH271857   3.775   3.212  12.023 -0.6576 -0.1113  0.4398
16789TIP3    H171858   3.755   3.304  12.006 -1.8866 -0.1927  1.3251
16789TIP3    H271859   3.728   3.165  11.954  0.1110 -0.0987 -0.1187
16790TIP3   OH271860   4.069   4.807   6.207  0.2070  0.3099  0.0085
16790TIP3    H171861   4.031   4.892   6.227 -0.8061 -0.4317  1.3952
16790TIP3    H271862   4.032   4.747   6.272  1.2700 -1.1063 -0.6098
16791TIP3   OH271863   4.350   1.647  16.098 -0.0308 -0.5993 -0.1640
16791TIP3    H171864   4.292   1.723  16.099  0.3766 -0.2437 -1.5237
16791TIP3    H271865   4.296   1.577  16.060 -0.0616 -0.6861  0.0427
16792TIP3   OH271866   6.209   3.267  13.195 -0.2415  0.1190  0.9525
16792TIP3    H171867   6.271   3.233  13.130 -0.0354 -1.8668  2.1088
16792TIP3    H271868   6.124   3.262  13.152  0.0803  0.3524  0.2794
16793TIP3   OH271869   3.529   6.432   0.471 -0.2567 -0.0505  0.3101
16793TIP3    H171870   3.434   6.447   0.466  0.0283  2.3018  0.9006
16793TIP3    H271871   3.540   6.372   0.545 -1.2603  0.0736  0.5745
16794TIP3   OH271872   1.687   2.741   2.250 -0.3519 -0.0731 -0.0945
16794TIP3    H171873   1.650   2.826   2.270  0.1193  0.4741 -1.4160
16794TIP3    H271874   1.613   2.688   2.221 -0.8269 -0.4874  1.7389
16795TIP3   OH271875   5.688   1.650   5.227 -0.3654 -0.0569 -0.4888
16795TIP3    H171876   5.648   1.565   5.241  0.4134 -0.1508  1.7177
16795TIP3    H271877   5.625   1.713   5.262 -0.0509  0.0683 -0.1293
16796TIP3   OH271878   5.025   6.359   5.018 -0.7258  0.1319  0.0583
16796TIP3    H171879   4.949   6.402   5.057  1.1635  0.2954  4.0399
16796TIP3    H271880   5.091   6.428   5.012 -0.1581 -0.4903 -1.2795
16797TIP3   OH271881   5.474   6.682   6.236  0.2349 -0.1285  0.1353
16797TIP3    H171882   5.399   6.634   6.272 -0.0443  0.5707  0.5102
16797TIP3    H271883   5.491   6.751   6.300  1.2259 -0.2956  0.0663
16798TIP3   OH271884   1.323   3.861   2.932  0.1913  0.4930 -0.4225
16798TIP3    H171885   1.381   3.845   3.007  1.1006  2.1062 -0.7354
16798TIP3    H271886   1.335   3.784   2.877  0.0294 -0.4054  0.7478
16799TIP3   OH271887   3.507   2.754  11.437  0.1371  0.4604  0.0993
16799TIP3    H171888   3.572   2.824  11.433 -1.0793  1.5841 -1.6718
16799TIP3    H271889   3.492   2.740  11.530  2.2687  0.7554  0.5254
16800TIP3   OH271890   3.383   0.239   2.536  0.6166 -0.4971 -0.4719
16800TIP3    H171891   3.438   0.189   2.475  1.8814 -0.1229  0.3182
16800TIP3    H271892   3.385   0.189   2.617  0.6320  0.0381 -0.1333
16801TIP3   OH271893   5.075   1.815   5.572  0.0079  0.2333 -0.1494
16801TIP3    H171894   5.014   1.835   5.644 -0.3331 -0.2388 -0.3015
16801TIP3    H271895   5.159   1.848   5.602 -0.5476  2.0419 -0.4494
16802TIP3   OH271896   5.122   6.065   0.327  0.2357  0.4151 -0.0820
16802TIP3    H171897   5.052   6.024   0.377  0.3764 -0.4170 -0.5543
16802TIP3    H271898   5.185   5.994   0.311 -0.2751  0.4106 -2.2850
16803TIP3   OH271899   3.326   1.380  11.919  0.2436 -0.0402 -0.3111
16803TIP3    H171900   3.328   1.301  11.972  1.8117 -0.0965 -0.4252
16803TIP3    H271901   3.376   1.358  11.840 -3.3281 -0.4935 -2.6793
16804TIP3   OH271902   6.208   1.037   4.993  0.0564  0.0790  0.4589
16804TIP3    H171903   6.135   1.084   5.032  0.0974 -0.9885  1.9013
16804TIP3    H271904   6.285   1.085   5.021  0.0665 -0.5039  1.4617
16805TIP3   OH271905   6.552   5.559   1.520  0.3019 -0.0592 -0.5896
16805TIP3    H171906   6.470   5.510   1.507 -0.8480  1.4310  0.6502
16805TIP3    H271907   6.555   5.619   1.445  0.2064 -0.0367 -0.5752
16806TIP3   OH271908   0.433   0.704   1.276 -0.0503 -0.4924  0.7035
16806TIP3    H171909   0.402   0.784   1.318  0.8185 -0.8940  2.2016
16806TIP3    H271910   0.511   0.679   1.327  2.0080 -0.2217 -2.0601
16807TIP3   OH271911   6.204   5.440  16.888 -0.2068  0.5089 -0.2437
16807TIP3    H171912   6.183   5.380  16.816  0.0490  1.9685 -1.5859
16807TIP3    H271913   6.137   5.423  16.954 -2.2064  1.1066 -2.0172
16808TIP3   OH271914   1.577   2.451   1.939  0.7270 -0.3573 -0.1221
16808TIP3    H171915   1.509   2.490   1.885 -1.5552 -2.1928  1.1885
16808TIP3    H271916   1.541   2.454   2.028  3.2504  0.3396  0.9472
16809TIP3   OH271917   0.073   4.381   2.029  0.3556  0.3708 -0.1166
16809TIP3    H171918   0.004   4.390   1.963  2.6585  1.1321 -2.5800
16809TIP3    H271919   0.064   4.460   2.083  0.6425  1.6495 -1.8420
16810TIP3   OH271920   6.073   0.240   5.046 -0.1748  0.0711  0.1059
16810TIP3    H171921   6.050   0.224   4.954 -1.1527 -1.6878  0.6138
16810TIP3    H271922   5.989   0.250   5.090  0.1213 -2.0727  1.2780
16811TIP3   OH271923   4.322   2.206   2.449 -0.3397 -0.5919 -0.6275
16811TIP3    H171924   4.250   2.257   2.487  1.1358  0.5873  0.7228
16811TIP3    H271925   4.331   2.130   2.506 -0.5746 -0.8141 -0.8790
16812TIP3   OH271926   3.603   1.516   3.731  0.2861 -0.3816 -0.1242
16812TIP3    H171927   3.618   1.455   3.658 -1.0575  0.9225 -1.5880
16812TIP3    H271928   3.549   1.586   3.692  0.8878  1.1984  1.7376
16813TIP3   OH271929   4.080   0.588  10.876 -0.3307 -0.1696  0.9675
16813TIP3    H171930   4.062   0.619  10.787 -1.3585 -0.1588  1.1658
16813TIP3    H271931   4.156   0.531  10.866 -0.2140  0.1145  0.1338
16814TIP3   OH271932   4.745   4.183   0.289 -0.2923  0.1459 -0.0215
16814TIP3    H171933   4.820   4.242   0.296 -0.7375  0.6427  0.6544
16814TIP3    H271934   4.779   4.098   0.313 -0.4647  0.7905  2.8431
16815TIP3   OH271935   1.135   4.099   2.087  0.2190  0.0788 -0.1597
16815TIP3    H171936   1.072   4.148   2.140 -0.9063 -0.5373 -0.8903
16815TIP3    H271937   1.094   4.091   2.001  0.7668 -1.3661 -0.3171
16816TIP3   OH271938   5.374   6.410  15.711 -0.2744 -0.4407 -0.0763
16816TIP3    H171939   5.412   6.453  15.634 -0.2439  1.5331  0.9832
16816TIP3    H271940   5.280   6.430  15.705 -0.1507  0.5115  0.8339
16817TIP3   OH271941   4.387   6.550  13.385 -0.6619 -0.6804 -0.4976
16817TIP3    H171942   4.430   6.466  13.400  0.3736 -0.0937 -0.1086
16817TIP3    H271943   4.329   6.562  13.460  0.9927  0.0522  0.7249
16818TIP3   OH271944   3.363   6.398  14.814 -0.5902  0.0495 -0.3163
16818TIP3    H171945   3.438   6.366  14.765  0.1039  2.2948 -0.8457
16818TIP3    H271946   3.368   6.353  14.898  1.9013  0.8153  0.0087
16819TIP3   OH271947   4.140   1.575  11.080  0.4174  0.2590  0.2735
16819TIP3    H171948   4.117   1.501  11.135 -1.0012  1.3365  1.2150
16819TIP3    H271949   4.201   1.627  11.133  1.4640 -0.2397 -0.4097
16820TIP3   OH271950   3.909   5.235   0.616  0.3189 -0.4939 -0.1846
16820TIP3    H171951   3.841   5.301   0.632 -0.1804 -1.4737  2.1774
16820TIP3    H271952   3.873   5.179   0.547 -0.8613 -0.4194  0.3515
16821TIP3   OH271953   1.359   2.012  14.839  0.3670 -0.3561 -0.0971
16821TIP3    H171954   1.365   2.098  14.880  1.7490 -0.9531  1.0627
16821TIP3    H271955   1.266   2.000  14.821 -0.2751  0.1715  2.4564
16822TIP3   OH271956   2.144   5.933  13.256  0.4448 -0.1560  0.7322
16822TIP3    H171957   2.195   5.855  13.235 -1.1198 -0.9862 -0.1926
16822TIP3    H271958   2.117   5.968  13.171 -1.5901 -0.5389  1.1539
16823TIP3   OH271959   2.539   2.334  16.715  0.2614  0.0704 -0.2962
16823TIP3    H171960   2.594   2.270  16.760 -0.5810  0.7858  1.8987
16823TIP3    H271961   2.449   2.312  16.741 -0.3921 -0.0292 -2.4270
16824TIP3   OH271962   0.580   6.796  12.362  0.2542 -0.0940 -0.0338
16824TIP3    H171963   0.647   6.840  12.310  1.0927 -0.6757  0.5346
16824TIP3    H271964   0.617   6.710  12.382  0.0613  0.1838  1.6955
16825TIP3   OH271965   2.353   0.573   4.380 -0.3462 -0.2434  0.0049
16825TIP3    H171966   2.436   0.566   4.333 -0.6344  1.4910 -0.8338
16825TIP3    H271967   2.300   0.501   4.346  0.9683 -1.7725  1.0119
16826TIP3   OH271968   3.971   5.471  15.272 -0.3301  0.1681  0.3829
16826TIP3    H171969   3.897   5.528  15.255 -0.1337  0.8416  1.6222
16826TIP3    H271970   3.938   5.406  15.334  0.1538  0.6082  1.1192
16827TIP3   OH271971   1.575   6.080   2.308  0.1682 -0.1033  0.7145
16827TIP3    H171972   1.643   6.024   2.345  0.6764  1.3497  2.1226
16827TIP3    H271973   1.496   6.027   2.309  0.6102 -0.7775  2.0355
16828TIP3   OH271974   4.580   2.591  14.604 -0.3528 -0.1230  0.4084
16828TIP3    H171975   4.658   2.538  14.617 -0.7637 -0.2869  2.5169
16828TIP3    H271976   4.611   2.668  14.556  0.9909 -0.4732  0.6742
16829TIP3   OH271977   0.119   1.866  13.074  0.1335 -0.5373  0.6744
16829TIP3    H171978   0.049   1.809  13.044 -1.2642  0.3117  2.1852
16829TIP3    H271979   0.108   1.947  13.024  0.7028 -0.7683  0.1638
16830TIP3   OH271980   0.459   6.516  10.644 -0.8896 -0.2639 -0.5257
16830TIP3    H171981   0.418   6.434  10.618 -0.2185 -0.8914  0.3170
16830TIP3    H271982   0.519   6.537  10.572 -0.0277 -1.2775 -0.1341
16831TIP3   OH271983   1.076   4.269  14.807  0.2806 -0.6659  0.1510
16831TIP3    H171984   1.145   4.222  14.760 -0.2197 -1.1261 -0.1269
16831TIP3    H271985   0.999   4.262  14.750 -0.3629 -1.3251  1.0943
16832TIP3   OH271986   6.426   3.944  15.144 -0.3290  0.2806 -0.4716
16832TIP3    H171987   6.496   3.974  15.202  1.1739  1.3755 -2.7038
16832TIP3    H271988   6.351   3.999  15.165  0.3429  1.0097  0.0450
16833TIP3   OH271989   6.376   1.455  13.218 -0.7013  0.4966 -0.0860
16833TIP3    H171990   6.413   1.377  13.176  0.2480 -0.0582  1.6844
16833TIP3    H271991   6.312   1.420  13.279 -0.5415  1.1331  0.4546
16834TIP3   OH271992   2.450   5.480   0.301 -0.3885  0.2461  0.4334
16834TIP3    H171993   2.506   5.548   0.339 -0.9416  0.5126  0.7809
16834TIP3    H271994   2.511   5.421   0.256  0.0527  1.3305 -0.4589
16835TIP3   OH271995   4.518   6.413  12.323  0.7782 -0.2576 -0.2219
16835TIP3    H171996   4.502   6.465  12.401 -0.2107  0.8290 -1.1026
16835TIP3    H271997   4.567   6.472  12.265  0.2634 -0.5325 -0.9540
16836TIP3   OH271998   0.990   3.047   0.471  0.3671  0.6189 -0.5819
16836TIP3    H171999   0.988   3.051   0.567  2.3041  1.7209 -0.5379
16836TIP3    H272000   1.033   2.964   0.451 -0.1803  0.3136 -0.5281
16837TIP3   OH272001   3.437   2.167  12.786 -0.4587  0.0825  0.0560
16837TIP3    H172002   3.403   2.097  12.842 -0.4392  0.6711  0.8118
16837TIP3    H272003   3.531   2.167  12.802 -0.4066  0.0365 -0.2375
16838TIP3   OH272004   3.936   4.847   2.270 -0.7263 -0.4332 -0.1212
16838TIP3    H172005   3.844   4.866   2.287 -0.9240 -1.9213  0.6485
16838TIP3    H272006   3.942   4.751   2.273  0.4000 -0.5090 -2.5338
16839TIP3   OH272007   4.984   2.761  13.743 -0.0763 -0.0166  0.0744
16839TIP3    H172008   5.048   2.706  13.789  1.0329  0.8549 -0.3785
16839TIP3    H272009   4.970   2.718  13.659  0.1478 -0.0492  0.0544
16840TIP3   OH272010   2.155   6.420   4.842 -0.5012  0.3620  0.7187
16840TIP3    H172011   2.209   6.342   4.857 -1.7808 -0.7198 -0.0633
16840TIP3    H272012   2.077   6.387   4.798 -1.7329  1.8913  1.6384
16841TIP3   OH272013   6.360   5.630   1.236  0.1739 -0.1711 -0.0988
16841TIP3    H172014   6.378   5.634   1.142 -1.4791 -0.0411 -0.4330
16841TIP3    H272015   6.372   5.538   1.259  0.8972 -0.1482 -0.3593
16842TIP3   OH272016   2.464   6.012  13.352  1.2423 -0.4470 -0.2355
16842TIP3    H172017   2.510   5.965  13.282  0.1924 -1.7746 -0.0712
16842TIP3    H272018   2.421   5.943  13.403 -0.2997  0.6768  0.0619
16843TIP3   OH272019   5.081   5.600   5.662 -0.3382 -0.4149  0.5155
16843TIP3    H172020   5.086   5.640   5.575 -0.4994 -3.1712 -0.8940
16843TIP3    H272021   4.995   5.626   5.695 -0.0797  1.0754  0.0851
16844TIP3   OH272022   6.326   2.616  13.041 -0.2233  0.1767 -0.2464
16844TIP3    H172023   6.287   2.679  12.981 -1.9907  1.8606  2.4307
16844TIP3    H272024   6.263   2.610  13.113  1.9266 -1.3701  1.6384
16845TIP3   OH272025   0.195   0.297  10.857  0.5517  0.0255  0.3994
16845TIP3    H172026   0.239   0.262  10.935  1.6537  1.5963  0.5314
16845TIP3    H272027   0.131   0.359  10.891  0.6740  0.3260  0.0897
16846TIP3   OH272028   5.510   3.179   4.564 -0.5258 -0.1341  0.7199
16846TIP3    H172029   5.582   3.242   4.563 -1.4316  0.9415 -0.4278
16846TIP3    H272030   5.535   3.112   4.500  1.3851 -2.1649  3.3762
16847TIP3   OH272031   2.072   1.532  10.367  0.0570 -0.2636 -0.5828
16847TIP3    H172032   2.002   1.580  10.323  0.5497 -0.2995 -1.4277
16847TIP3    H272033   2.027   1.474  10.429 -0.6165  0.1843 -0.6470
16848TIP3   OH272034   6.531   3.174  16.609  0.2880  0.2631 -0.5836
16848TIP3    H172035   6.563   3.249  16.560 -0.7541  0.1415 -1.4752
16848TIP3    H272036   6.521   3.105  16.544  0.8647 -0.5515  0.1546
16849TIP3   OH272037   3.508   5.881  13.049  0.0374 -0.1682 -0.6281
16849TIP3    H172038   3.486   5.872  12.956 -0.4999 -2.4551 -0.3327
16849TIP3    H272039   3.426   5.911  13.090 -0.1313 -0.5256 -0.7020
16850TIP3   OH272040   3.327   2.523  13.077  0.2995 -0.3960 -0.1081
16850TIP3    H172041   3.304   2.616  13.078  0.6116 -0.2676 -1.7839
16850TIP3    H272042   3.382   2.510  13.155  0.1698  0.7960  0.1911
16851TIP3   OH272043   0.274   6.424   0.573 -0.3546 -0.0475 -0.3186
16851TIP3    H172044   0.211   6.411   0.644  0.2180  1.8489  0.6224
16851TIP3    H272045   0.271   6.518   0.556  0.1203 -0.3575 -2.2764
16852TIP3   OH272046   6.410   5.570   4.829  0.5984  0.3022  0.5307
16852TIP3    H172047   6.319   5.574   4.858  0.7268 -0.6061  1.1197
16852TIP3    H272048   6.460   5.559   4.910  1.0792 -0.8717  0.0989
16853TIP3   OH272049   5.429   6.082   0.484 -0.4365 -0.2803 -0.0351
16853TIP3    H172050   5.418   6.171   0.450 -0.0296 -0.1782  0.0975
16853TIP3    H272051   5.352   6.067   0.538  0.4002  0.7105  1.5137
16854TIP3   OH272052   2.272   0.327  12.455 -0.4393 -0.6827 -0.3799
16854TIP3    H172053   2.360   0.332  12.417 -0.0688  2.2194  0.6465
16854TIP3    H272054   2.218   0.383  12.400 -0.8042  0.3437  0.9528
16855TIP3   OH272055   3.858   4.016  13.732 -0.1557 -0.1765 -0.3529
16855TIP3    H172056   3.811   4.028  13.649 -0.3422  0.5954 -0.1440
16855TIP3    H272057   3.945   4.052  13.714  0.1958 -1.1086 -0.5735
16856TIP3   OH272058   1.180   5.463   3.155 -0.1895  0.4593  0.2993
16856TIP3    H172059   1.128   5.527   3.107  1.8198  0.3210 -2.2230
16856TIP3    H272060   1.170   5.382   3.105  1.7944  0.2400  0.2175
16857TIP3   OH272061   3.023   1.123   5.707 -0.2120 -0.0140 -0.0858
16857TIP3    H172062   2.972   1.052   5.669  1.3675 -0.4519 -1.5188
16857TIP3    H272063   3.067   1.163   5.632 -0.3409  1.8987  0.7989
16858TIP3   OH272064   5.966   2.027  12.125 -0.8485  0.3094  0.0833
16858TIP3    H172065   5.945   1.935  12.144 -0.2709  0.2713  0.5756
16858TIP3    H272066   5.899   2.077  12.172 -1.1363  0.1467 -0.1454
16859TIP3   OH272067   4.544   4.026   3.675  0.3265  0.0169 -0.2595
16859TIP3    H172068   4.560   3.933   3.688  0.8594  0.2043  0.5199
16859TIP3    H272069   4.481   4.049   3.744  2.2937  0.7884  1.3924
16860TIP3   OH272070   0.945   5.616   1.683  0.0664  0.5149  0.6436
16860TIP3    H172071   0.858   5.652   1.695  0.4953  1.6636  0.4510
16860TIP3    H272072   0.988   5.676   1.623  0.9204 -0.1559  0.5577
16861TIP3   OH272073   0.708   3.876   4.429 -0.1120  0.2945 -0.3798
16861TIP3    H172074   0.741   3.818   4.360 -0.1119  0.0406 -0.1630
16861TIP3    H272075   0.613   3.878   4.415 -0.2897 -0.9521  0.5432
16862TIP3   OH272076   6.194   0.201   0.571  0.1716 -0.2362  0.3943
16862TIP3    H172077   6.152   0.117   0.554  0.1606  0.0370 -1.0299
16862TIP3    H272078   6.139   0.243   0.637 -0.3381 -0.9568  0.4332
16863TIP3   OH272079   6.278   2.773   3.466 -0.0257  0.0745 -0.5802
16863TIP3    H172080   6.223   2.733   3.399  1.5865  2.7183 -3.7578
16863TIP3    H272081   6.367   2.759   3.435  0.7889  1.4472  0.9943
16864TIP3   OH272082   3.217   3.444  11.427  0.5153 -0.0192 -0.1826
16864TIP3    H172083   3.260   3.510  11.372  0.2604  1.1869  0.9953
16864TIP3    H272084   3.142   3.415  11.376  0.1995  1.1774 -0.4277
16865TIP3   OH272085   3.579   3.043   5.621 -0.0542 -0.2800  0.0780
16865TIP3    H172086   3.652   2.988   5.593 -0.9784 -1.1578 -0.6649
16865TIP3    H272087   3.579   3.116   5.559  0.6123  0.1042  0.5134
16866TIP3   OH272088   6.785   0.517   1.684  0.0781 -0.3425 -0.3547
16866TIP3    H172089   6.849   0.449   1.663 -0.4491 -0.2861 -2.3012
16866TIP3    H272090   6.776   0.568   1.603  0.3532  2.0019  0.9841
16867TIP3   OH272091   4.847   1.339   5.416 -0.2851  0.3035  0.0051
16867TIP3    H172092   4.761   1.379   5.422 -0.7725 -0.8483  0.9694
16867TIP3    H272093   4.909   1.412   5.427 -1.1215  1.0380 -0.0875
16868TIP3   OH272094   3.445   0.571   4.463  0.5422  0.2201  0.3731
16868TIP3    H172095   3.503   0.551   4.536  0.6049 -0.5114  0.1277
16868TIP3    H272096   3.399   0.651   4.491  0.6291  0.0053  1.1674
16869TIP3   OH272097   5.917   6.422  17.251  0.1382  0.0583  0.0132
16869TIP3    H172098   5.853   6.491  17.267  0.7001  0.2375  1.7639
16869TIP3    H272099   6.002   6.466  17.260  0.5541 -0.1984 -2.1291
16870TIP3   OH272100   2.276   0.760  10.417 -0.2413  0.7422 -0.1781
16870TIP3    H172101   2.264   0.706  10.339  2.2464  1.4975 -1.1765
16870TIP3    H272102   2.257   0.702  10.490 -0.0275 -0.7641 -1.2786
16871TIP3   OH272103   4.532   1.959  11.301 -0.5604  0.0883  0.1634
16871TIP3    H172104   4.481   1.962  11.220  0.4879 -0.6273 -0.5621
16871TIP3    H272105   4.602   1.896  11.283 -0.7451 -0.6733  1.9075
16872TIP3   OH272106   0.462   2.774   0.498 -0.7336 -0.7172  0.1450
16872TIP3    H172107   0.458   2.691   0.546 -0.0721  0.3865  2.2609
16872TIP3    H272108   0.454   2.841   0.566 -0.7931  0.9638 -1.4427
16873TIP3   OH272109   2.547   2.553   0.632 -0.1180 -0.7629 -0.1203
16873TIP3    H172110   2.570   2.494   0.703  0.7989  0.3715  0.5598
16873TIP3    H272111   2.561   2.501   0.552 -1.9910 -2.3345  0.4792
16874TIP3   OH272112   1.847   3.011   3.731 -0.2035 -0.0875  0.6242
16874TIP3    H172113   1.762   2.993   3.691  0.0083  0.2537  0.0207
16874TIP3    H272114   1.909   2.955   3.685  0.0437  0.3234  0.4502
16875TIP3   OH272115   6.016   3.002  16.359 -0.0876  0.0747  0.2983
16875TIP3    H172116   6.096   2.985  16.310 -0.8083  2.0249 -1.7107
16875TIP3    H272117   6.046   3.015  16.449  1.6174 -0.8892 -0.0814
16876TIP3   OH272118   3.249   4.683   4.450 -0.0003 -0.0301 -0.3032
16876TIP3    H172119   3.250   4.744   4.524 -0.5299 -0.4057  0.0271
16876TIP3    H272120   3.339   4.681   4.419 -0.1963  1.8824 -1.1245
16877TIP3   OH272121   4.166   1.143   2.425  0.0321  0.6683 -0.0688
16877TIP3    H172122   4.116   1.091   2.488  0.0510  0.4180 -0.2604
16877TIP3    H272123   4.173   1.229   2.466 -1.9664  1.2019 -0.7653
16878TIP3   OH272124   0.155   6.423   1.141 -0.1986 -0.2830 -0.2155
16878TIP3    H172125   0.137   6.392   1.230  0.1727  0.2249  0.0416
16878TIP3    H272126   0.189   6.347   1.095  2.1477  0.0599  0.8200
16879TIP3   OH272127   2.820   2.909   2.234  0.0943 -0.2455  0.0401
16879TIP3    H172128   2.737   2.860   2.232 -0.5613  0.5663  2.8722
16879TIP3    H272129   2.793   3.001   2.237  1.0619  0.0271  1.1110
16880TIP3   OH272130   1.861   4.213   4.047  0.1872 -0.5196  0.4086
16880TIP3    H172131   1.950   4.190   4.021 -0.2094 -1.7161  0.0806
16880TIP3    H272132   1.814   4.130   4.052 -1.2523  0.1823 -0.6342
16881TIP3   OH272133   3.614   6.492  13.730 -0.6155  0.7487  0.3987
16881TIP3    H172134   3.577   6.406  13.711  0.8963 -0.9415  4.0818
16881TIP3    H272135   3.538   6.547  13.749 -1.5356 -0.8665  1.6596
16882TIP3   OH272136   2.572   4.294   2.985  0.6437 -0.0840  0.1838
16882TIP3    H172137   2.638   4.294   3.054 -0.3672  1.3916  1.2147
16882TIP3    H272138   2.607   4.352   2.917  0.5911  0.3586  0.5348
16883TIP3   OH272139   6.565   3.840   3.228  0.1785 -0.3371 -0.0499
16883TIP3    H172140   6.622   3.879   3.294 -0.1797 -1.2188  0.8098
16883TIP3    H272141   6.597   3.874   3.145  0.1972  1.3578  0.6128
16884TIP3   OH272142   6.760   0.665   5.687  0.3657  0.0609  0.0843
16884TIP3    H172143   6.695   0.732   5.664 -0.3036 -1.0302 -1.3245
16884TIP3    H272144   6.709   0.584   5.694  1.2792 -0.4565  1.0437
16885TIP3   OH272145   5.004   0.421  13.458  0.0550 -0.0281 -0.3679
16885TIP3    H172146   4.961   0.497  13.419  0.6926 -0.4739 -2.0463
16885TIP3    H272147   5.011   0.358  13.386  2.9924 -0.2077 -0.0529
16886TIP3   OH272148   1.736   2.251  14.725 -0.4509 -0.2698 -0.3169
16886TIP3    H172149   1.746   2.279  14.816  0.8158  0.3213 -0.6250
16886TIP3    H272150   1.822   2.219  14.699 -0.2473  1.3821 -1.8891
16887TIP3   OH272151   0.030   4.148  12.496 -0.5546 -0.5096 -0.2650
16887TIP3    H172152   0.052   4.055  12.490 -0.5773 -0.4881 -0.7125
16887TIP3    H272153   0.015   4.175  12.406 -0.1195  0.0354 -0.1802
16888TIP3   OH272154   3.999   6.472  13.141 -0.4364  0.0525 -0.1034
16888TIP3    H172155   4.061   6.492  13.211 -0.9574 -0.4988  0.5278
16888TIP3    H272156   3.913   6.490  13.179 -0.7470 -0.6201 -0.4653
16889TIP3   OH272157   0.397   3.782  12.778  0.5230 -0.0795 -0.0657
16889TIP3    H172158   0.371   3.696  12.809  1.2878 -0.8984 -1.5593
16889TIP3    H272159   0.492   3.784  12.789  0.6035  0.2511 -0.7228
16890TIP3   OH272160   6.420   5.552   2.370 -0.0063  0.6521  0.0254
16890TIP3    H172161   6.516   5.556   2.368  0.0436 -0.4099 -0.3397
16890TIP3    H272162   6.395   5.607   2.444  0.6879  3.7157 -1.8307
16891TIP3   OH272163   5.917   1.597  11.894 -0.0484 -0.0936  0.1306
16891TIP3    H172164   5.845   1.660  11.897  1.2389  1.4048  1.6165
16891TIP3    H272165   5.903   1.540  11.970 -0.2431 -0.5052 -0.2075
16892TIP3   OH272166   2.379   1.986   0.650  0.6363  0.4005 -0.3730
16892TIP3    H172167   2.402   2.014   0.561 -1.4592  0.4362 -0.9530
16892TIP3    H272168   2.359   2.068   0.696 -0.2101  0.2603 -0.4738
16893TIP3   OH272169   3.928   4.487  16.749 -0.3413  0.3052  0.3661
16893TIP3    H172170   3.906   4.500  16.657 -0.1516  0.5535  0.3562
16893TIP3    H272171   4.012   4.442  16.747  0.4459  1.7266  0.4342
16894TIP3   OH272172   5.794   2.164   3.204  0.2314  0.9296  0.2980
16894TIP3    H172173   5.855   2.237   3.190 -0.9074  2.5265  2.8617
16894TIP3    H272174   5.845   2.100   3.254  0.5859  1.0142  0.0493
16895TIP3   OH272175   1.401   5.514  15.994 -0.3793  0.5199  0.1814
16895TIP3    H172176   1.450   5.593  16.017 -0.9013  0.9354 -0.1334
16895TIP3    H272177   1.309   5.538  16.006 -0.5046 -0.5573  1.7592
16896TIP3   OH272178   0.326   3.802  14.062 -0.0229  0.3378  0.2220
16896TIP3    H172179   0.231   3.800  14.054 -0.3492  0.8289  2.9505
16896TIP3    H272180   0.349   3.716  14.097  0.3535  0.7229  0.9365
16897TIP3   OH272181   6.644   5.825   4.329  0.0233 -0.1394  0.3241
16897TIP3    H172182   6.732   5.807   4.360 -0.1964 -2.8342 -0.3693
16897TIP3    H272183   6.652   5.830   4.234 -0.4938  0.1801  0.2929
16898TIP3   OH272184   4.817   1.632   2.523  0.2186  0.3185 -0.0793
16898TIP3    H172185   4.794   1.590   2.606 -0.1573  0.9556  0.1518
16898TIP3    H272186   4.745   1.612   2.464 -0.4465  1.4266  0.3243
16899TIP3   OH272187   2.471   1.670   1.096 -0.1767  0.3689  0.7113
16899TIP3    H172188   2.421   1.656   1.176 -0.4727  0.0646  0.4738
16899TIP3    H272189   2.483   1.765   1.092 -2.0013  0.6172  0.0237
16900TIP3   OH272190   5.879   1.849   4.313 -0.1176 -0.1670 -0.4997
16900TIP3    H172191   5.953   1.887   4.265  0.8790 -0.9593  0.3485
16900TIP3    H272192   5.806   1.853   4.252 -0.3328  3.7932 -0.2417
16901TIP3   OH272193   2.576   4.284  13.057  0.2872  0.3114 -0.4368
16901TIP3    H172194   2.618   4.229  13.123 -0.9021  1.5510  1.4638
16901TIP3    H272195   2.482   4.277  13.076 -0.1691  0.0892 -2.5405
16902TIP3   OH272196   3.312   2.584   2.183 -0.5621 -0.2477  0.0211
16902TIP3    H172197   3.280   2.557   2.269 -1.9060  1.0144 -0.0451
16902TIP3    H272198   3.232   2.603   2.133  0.2476  0.7334 -0.9399
16903TIP3   OH272199   3.645   2.115  13.108  0.7473  0.6143 -0.0428
16903TIP3    H172200   3.565   2.135  13.157  0.1273 -0.4696 -0.5716
16903TIP3    H272201   3.629   2.028  13.071  1.9481  0.6249 -0.6255
16904TIP3   OH272202   4.333   5.382   3.279  0.3270  0.0286 -0.2561
16904TIP3    H172203   4.270   5.314   3.258 -0.7140  0.4362  1.3637
16904TIP3    H272204   4.372   5.354   3.362  0.0806  1.2562  0.2984
16905TIP3   OH272205   2.384   0.510   0.881  0.7305  0.4808 -0.3968
16905TIP3    H172206   2.399   0.537   0.972  0.9615  1.5037 -0.7275
16905TIP3    H272207   2.391   0.591   0.830 -1.6360  0.3295 -1.0795
16906TIP3   OH272208   0.365   1.956   0.574  0.3333  0.1032 -0.2253
16906TIP3    H172209   0.314   2.031   0.604  1.8420  0.7301  0.8369
16906TIP3    H272210   0.305   1.882   0.583 -0.6064  0.9122  0.3591
16907TIP3   OH272211   4.563   2.783   2.339 -0.1510  0.2500 -0.3223
16907TIP3    H172212   4.522   2.749   2.259  0.7074 -0.3035 -0.5482
16907TIP3    H272213   4.600   2.706   2.382  1.2059  0.7786 -0.4690
16908TIP3   OH272214   6.451   5.963  12.452 -0.2261 -0.0649  0.6888
16908TIP3    H172215   6.513   5.933  12.518  0.7073  1.1372  0.3996
16908TIP3    H272216   6.453   5.895  12.384  1.1805  0.1919  0.4427
16909TIP3   OH272217   1.411   2.255   0.124  0.1986  0.3222  0.2144
16909TIP3    H172218   1.419   2.293   0.212  1.1562 -1.0877  0.7739
16909TIP3    H272219   1.321   2.272   0.098 -0.1344  0.6540  1.5360
16910TIP3   OH272220   6.509   3.388   5.405 -0.2539  0.1147 -0.0271
16910TIP3    H172221   6.461   3.306   5.389 -0.7682  0.2117  0.9756
16910TIP3    H272222   6.443   3.450   5.434  0.0210  1.1102 -1.4012
16911TIP3   OH272223   3.293   5.118   4.859  0.1497 -0.0982 -0.6054
16911TIP3    H172224   3.222   5.178   4.880 -2.0316 -2.2295 -1.4934
16911TIP3    H272225   3.289   5.051   4.927  2.4466  0.5575  0.2856
16912TIP3   OH272226   3.193   2.313   5.420 -0.5862 -0.7190  0.7007
16912TIP3    H172227   3.281   2.321   5.383 -0.5973 -0.6162  0.6983
16912TIP3    H272228   3.172   2.400   5.452 -1.5256 -0.2046 -1.1787
16913TIP3   OH272229   6.779   6.511  15.332 -0.0975 -0.7337 -0.2897
16913TIP3    H172230   6.842   6.440  15.325  0.8187  0.1507 -1.4344
16913TIP3    H272231   6.785   6.541  15.422 -1.7155 -3.1472  0.7241
16914TIP3   OH272232   2.381   3.981  10.735  0.1310  0.4158  0.5520
16914TIP3    H172233   2.352   3.898  10.773  0.0631  0.1416 -0.0870
16914TIP3    H272234   2.446   4.015  10.797  1.6554 -1.1024 -0.1529
16915TIP3   OH272235   0.533   5.028  16.115  0.7071  0.0223 -0.2194
16915TIP3    H172236   0.606   5.059  16.061  0.6745  0.1454 -0.1953
16915TIP3    H272237   0.460   5.086  16.091  1.0574  0.9788  0.9592
16916TIP3   OH272238   4.996   3.407  16.091  0.3820  0.2054 -0.1817
16916TIP3    H172239   4.965   3.317  16.088 -0.5736  0.5203 -0.0188
16916TIP3    H272240   4.930   3.454  16.142  0.0867  1.3025 -1.5143
16917TIP3   OH272241   1.220   0.968   4.269  0.1762 -0.4661  0.0599
16917TIP3    H172242   1.271   0.902   4.224 -0.6403 -1.2239  0.2194
16917TIP3    H272243   1.129   0.941   4.258 -0.3176  1.4537 -1.1960
16918TIP3   OH272244   2.089   0.736   3.158 -0.0937 -0.2717  0.1698
16918TIP3    H172245   2.010   0.789   3.146 -1.4372 -1.5301  2.7431
16918TIP3    H272246   2.066   0.649   3.125  0.0733 -0.7508  1.2826
16919TIP3   OH272247   5.684   3.790  14.120 -0.0804 -0.0230  0.5111
16919TIP3    H172248   5.637   3.730  14.179 -0.7140 -1.1274 -1.0417
16919TIP3    H272249   5.776   3.777  14.140 -0.2927 -0.2765  1.3521
16920TIP3   OH272250   3.132   0.452  13.959 -0.3367  0.1077  0.3178
16920TIP3    H172251   3.110   0.525  14.017 -0.7649  0.0859  0.1880
16920TIP3    H272252   3.134   0.376  14.016 -0.2400  0.1664  0.3932
16921TIP3   OH272253   1.276   6.223  12.969  0.4155 -0.1608  0.0507
16921TIP3    H172254   1.370   6.212  12.983  0.1296 -0.6459  1.8471
16921TIP3    H272255   1.237   6.140  12.995 -0.7260  0.8934  1.9443
16922TIP3   OH272256   4.143   0.924   5.671  0.0514  0.2071 -0.0186
16922TIP3    H172257   4.111   0.937   5.761 -0.3772 -1.6700  0.1296
16922TIP3    H272258   4.130   1.009   5.629 -1.8689  0.4875  1.0496
16923TIP3   OH272259   4.982   5.294   0.004  0.0159  0.1906 -0.0011
16923TIP3    H172260   4.946   5.233   0.068  1.9495 -1.1551 -0.1367
16923TIP3    H272261   5.048   5.343   0.053  1.2505 -0.5957 -0.8339
16924TIP3   OH272262   3.405   2.290   1.433  0.1619  0.2225 -0.0178
16924TIP3    H172263   3.353   2.273   1.512  0.2395  0.7937  0.1577
16924TIP3    H272264   3.493   2.306   1.466  0.3875 -0.3965 -0.2903
16925TIP3   OH272265   1.895   4.595   0.984 -0.4521 -0.1873 -0.0776
16925TIP3    H172266   1.937   4.520   0.941 -0.4955 -0.5066  0.4287
16925TIP3    H272267   1.920   4.587   1.076 -0.7363  0.2323  0.0394
16926TIP3   OH272268   6.752   1.874  16.680 -0.0437 -0.4738 -0.2348
16926TIP3    H172269   6.671   1.918  16.704 -0.5957 -0.8280 -1.4208
16926TIP3    H272270   6.729   1.782  16.673  0.6217 -0.6721  0.0939
16927TIP3   OH272271   3.584   6.252   2.850  0.3222  0.1406  0.3457
16927TIP3    H172272   3.616   6.196   2.779 -2.6456  3.3175 -4.0058
16927TIP3    H272273   3.663   6.286   2.891  2.2081 -2.0761 -1.1953
16928TIP3   OH272274   3.149   2.850   0.452 -0.4079  0.2188  0.0957
16928TIP3    H172275   3.230   2.813   0.417 -0.1132  0.8047  0.1463
16928TIP3    H272276   3.177   2.899   0.529 -0.9942 -0.6879  0.8960
16929TIP3   OH272277   1.160   1.716  16.601  0.1089  0.2922 -0.5811
16929TIP3    H172278   1.251   1.729  16.576  0.5395 -1.1373  0.1206
16929TIP3    H272279   1.141   1.786  16.663  0.8969  0.2904 -0.3357
16930TIP3   OH272280   1.449   3.870   5.059 -0.5653 -0.1360 -0.4471
16930TIP3    H172281   1.541   3.896   5.060 -0.2729 -1.1296 -0.6474
16930TIP3    H272282   1.448   3.783   5.099 -1.6193  0.4678  0.9161
16931TIP3   OH272283   5.901   3.975   1.765  0.0520  0.0142 -0.5274
16931TIP3    H172284   5.814   3.937   1.758 -0.2137 -0.2921  2.7503
16931TIP3    H272285   5.958   3.900   1.782  0.2893  0.5269  1.1481
16932TIP3   OH272286   1.296   2.363  12.368 -0.1086 -0.6700  0.1479
16932TIP3    H172287   1.251   2.298  12.421 -0.7582  0.0672  0.4985
16932TIP3    H272288   1.244   2.442  12.375  1.6082  0.4369  1.1632
16933TIP3   OH272289   1.960   5.280   4.072  0.2918  0.1016 -0.6603
16933TIP3    H172290   1.997   5.252   3.988 -0.2248 -0.2849 -0.7577
16933TIP3    H272291   2.031   5.264   4.135  0.8408  0.8012 -1.0807
16934TIP3   OH272292   5.645   0.313  14.414  0.0818  0.5038  0.4207
16934TIP3    H172293   5.725   0.318  14.468 -0.0482  3.6287  0.4777
16934TIP3    H272294   5.677   0.295  14.326  0.6108 -0.6061  0.8068
16935TIP3   OH272295   1.391   3.766  15.515  0.3987  0.2578 -0.0582
16935TIP3    H172296   1.344   3.688  15.484 -1.0949  0.2690  1.9759
16935TIP3    H272297   1.325   3.835  15.515  0.7232  0.6134  1.5776
16936TIP3   OH272298   3.390   2.911   2.962 -0.2033  0.2954 -0.0019
16936TIP3    H172299   3.304   2.940   2.931 -0.4144 -0.6598 -0.3353
16936TIP3    H272300   3.371   2.832   3.013  0.5631 -0.4440 -0.8377
16937TIP3   OH272301   3.981   5.176   4.964 -0.1786 -0.1627 -0.0013
16937TIP3    H172302   4.047   5.245   4.973  2.1497 -2.2860  0.4752
16937TIP3    H272303   3.909   5.204   5.021  0.6399  1.8661  0.1101
16938TIP3   OH272304   6.789   3.657   0.541  0.1039 -0.1911  0.4556
16938TIP3    H172305   6.815   3.690   0.455  0.3816 -0.1375  0.5595
16938TIP3    H272306   6.849   3.584   0.557 -0.9143 -1.1714 -0.0531
16939TIP3   OH272307   3.131   0.994   4.625  0.6195 -0.3524 -0.4667
16939TIP3    H172308   3.189   1.055   4.671  0.4396  0.5609 -1.4074
16939TIP3    H272309   3.046   1.007   4.667  0.2822  1.0321 -1.4963
16940TIP3   OH272310   1.016   3.143   0.872 -0.5132 -0.3649  0.1016
16940TIP3    H172311   1.087   3.132   0.935 -2.3780  1.8065  2.8206
16940TIP3    H272312   1.046   3.212   0.813 -0.5976  1.1513  1.7544
16941TIP3   OH272313   1.422   0.362  16.611 -0.2213 -0.2071  0.1058
16941TIP3    H172314   1.461   0.351  16.524  0.0725  0.0200  0.2089
16941TIP3    H272315   1.329   0.376  16.594 -0.3975 -1.4492 -0.1147
16942TIP3   OH272316   1.962   2.848   4.955 -0.1646  0.0323 -0.5588
16942TIP3    H172317   2.051   2.814   4.964  0.6041  1.9420 -0.4681
16942TIP3    H272318   1.924   2.796   4.885  1.3240 -0.2705 -1.1900
16943TIP3   OH272319   3.929   3.918   4.309  1.0098 -0.3713  0.1442
16943TIP3    H172320   3.939   3.936   4.402  0.5312 -1.1866  0.3643
16943TIP3    H272321   3.900   4.002   4.272  3.3302  0.5796  0.3286
16944TIP3   OH272322   2.298   4.340  13.196  0.1585 -0.0707 -0.3715
16944TIP3    H172323   2.268   4.352  13.106  0.3595 -2.7131 -0.9018
16944TIP3    H272324   2.224   4.366  13.250  0.9163  4.1854 -1.0298
16945TIP3   OH272325   3.551   5.392  12.280  0.2775  0.1363 -0.0443
16945TIP3    H172326   3.461   5.360  12.269  1.0869 -3.1869  1.6867
16945TIP3    H272327   3.544   5.461  12.345 -1.1534  1.0868 -1.1334
16946TIP3   OH272328   0.847   1.469  16.202 -0.6369 -0.0895 -0.1358
16946TIP3    H172329   0.865   1.470  16.296 -1.3631 -0.2837  0.0149
16946TIP3    H272330   0.924   1.510  16.162 -0.4523  0.2651  0.5661
16947TIP3   OH272331   4.523   1.977   0.871  0.2008  0.9343 -0.0643
16947TIP3    H172332   4.614   2.006   0.878  1.0967 -1.6254  0.2866
16947TIP3    H272333   4.521   1.894   0.918 -1.6373 -0.4715 -2.3472
16948TIP3   OH272334   5.479   5.512   1.345  0.7114 -0.2219 -0.2952
16948TIP3    H172335   5.441   5.541   1.428  0.3148 -1.0657 -0.1738
16948TIP3    H272336   5.465   5.417   1.344  0.3156 -0.1598 -1.5335
16949TIP3   OH272337   3.946   3.601   5.735 -0.0752  0.5498 -0.1572
16949TIP3    H172338   3.997   3.553   5.800 -1.2356 -0.6577 -0.0927
16949TIP3    H272339   3.955   3.693   5.760 -0.6030  0.1039  1.7970
16950TIP3   OH272340   0.587   5.548   3.686 -0.3630 -0.6381  0.1154
16950TIP3    H172341   0.642   5.624   3.701 -0.2993 -0.5675 -0.4405
16950TIP3    H272342   0.499   5.584   3.675 -0.3476 -0.6494 -0.0546
16951TIP3   OH272343   1.948   2.183  14.603  0.4417  0.2018  0.3278
16951TIP3    H172344   1.931   2.124  14.529 -1.4526  1.3139 -0.2349
16951TIP3    H272345   2.016   2.140  14.654 -0.8162 -2.4419 -0.0468
16952TIP3   OH272346   0.758   4.165   4.308 -0.0260 -0.0609  0.3758
16952TIP3    H172347   0.686   4.228   4.305 -1.2347 -1.4183 -1.3434
16952TIP3    H272348   0.736   4.106   4.380 -0.3199 -0.1185  0.2389
16953TIP3   OH272349   5.883   3.031  12.666 -0.8596  0.1379  0.0883
16953TIP3    H172350   5.826   2.993  12.599 -1.2978 -0.2414  0.6664
16953TIP3    H272351   5.858   2.986  12.747  0.3846 -0.1634  0.3280
16954TIP3   OH272352   4.036   4.803   5.631 -0.0475 -0.0255  0.5568
16954TIP3    H172353   4.068   4.893   5.626 -0.6078  0.1712  0.4689
16954TIP3    H272354   4.114   4.749   5.619  0.2885  0.4473  0.6001
16955TIP3   OH272355   0.486   1.991  12.936 -0.1732  0.1018 -0.2559
16955TIP3    H172356   0.532   1.964  13.016 -0.7550 -0.6519 -0.1578
16955TIP3    H272357   0.413   2.044  12.968  1.2701  2.3310 -0.4788
16956TIP3   OH272358   1.084   1.181   1.508 -0.3589  0.5106  0.4629
16956TIP3    H172359   1.112   1.243   1.576 -1.7900 -0.4824  2.0380
16956TIP3    H272360   1.005   1.221   1.471  0.8012  1.3941 -1.2007
16957TIP3   OH272361   0.464   0.157  16.935 -0.3137  0.4526  0.2464
16957TIP3    H172362   0.377   0.155  16.897  0.2132 -0.4542 -0.9780
16957TIP3    H272363   0.518   0.105  16.875  0.8169 -0.0123  1.6182
16958TIP3   OH272364   3.146   4.153   4.148 -1.1300  0.0350  0.4485
16958TIP3    H172365   3.203   4.135   4.223 -1.6254  1.2915  1.1676
16958TIP3    H272366   3.066   4.102   4.166 -0.3745 -1.5034 -0.4198
16959TIP3   OH272367   3.142   1.283  16.026 -0.0671 -0.1862 -0.0196
16959TIP3    H172368   3.182   1.346  16.086  2.3657 -2.3339  0.7893
16959TIP3    H272369   3.215   1.252  15.972 -1.3404 -1.7011 -0.9621
16960TIP3   OH272370   2.249   6.148   4.599  0.1970  0.1447 -0.0725
16960TIP3    H172371   2.325   6.160   4.656  1.3338 -0.4024 -1.3935
16960TIP3    H272372   2.273   6.074   4.543 -1.8307 -0.8298  0.2717
16961TIP3   OH272373   4.407   6.566   4.707 -0.4280 -0.0537  0.6053
16961TIP3    H172374   4.325   6.570   4.755 -1.3607 -0.6044 -0.8783
16961TIP3    H272375   4.389   6.509   4.632  0.5274  1.9261 -1.2412
16962TIP3   OH272376   5.182   6.599   3.745 -0.3285 -0.1105 -0.8694
16962TIP3    H172377   5.172   6.656   3.821  0.8626  0.6469 -1.2522
16962TIP3    H272378   5.118   6.633   3.682 -1.5034 -0.9015 -0.1599
16963TIP3   OH272379   2.949   4.233   2.956 -0.1794  0.3827 -0.1623
16963TIP3    H172380   3.002   4.214   2.878  0.8582 -0.5148  0.7313
16963TIP3    H272381   2.879   4.168   2.954  0.1673  0.0025 -0.0589
16964TIP3   OH272382   0.899   5.959   1.864 -0.2617 -0.0612 -0.2579
16964TIP3    H172383   0.812   5.983   1.832  0.1167  2.6294  0.5015
16964TIP3    H272384   0.956   6.030   1.834  1.7996 -1.9317 -1.0449
16965TIP3   OH272385   2.278   0.905   2.719 -0.0728  0.3288  0.2870
16965TIP3    H172386   2.208   0.965   2.745 -0.7435 -1.0177  1.7402
16965TIP3    H272387   2.325   0.886   2.800 -0.3159 -1.6501 -0.0069
16966TIP3   OH272388   3.980   6.243   5.369 -0.5523 -0.0642 -0.2412
16966TIP3    H172389   4.037   6.310   5.332  1.9207 -0.3124  2.7604
16966TIP3    H272390   3.931   6.289   5.437  0.4474 -1.0056  1.1743
16967TIP3   OH272391   0.829   3.089   2.803  0.2976 -0.2260  0.4604
16967TIP3    H172392   0.827   2.995   2.785 -1.5772 -0.1540  0.1204
16967TIP3    H272393   0.786   3.129   2.727 -1.6923  0.6308  1.9678
16968TIP3   OH272394   6.011   1.918  15.208 -0.0093  0.2396  0.5684
16968TIP3    H172395   5.929   1.879  15.178  1.0546 -0.6187 -1.3944
16968TIP3    H272396   6.068   1.843  15.226  0.7074  0.8370  0.8353
16969TIP3   OH272397   5.458   1.135  15.925 -0.4493  0.0244 -0.2541
16969TIP3    H172398   5.509   1.180  15.993 -0.7481 -0.5202  0.3492
16969TIP3    H272399   5.421   1.205  15.873  2.8309  0.4898 -2.2514
16970TIP3   OH272400   6.741   0.948   5.038  0.2053  0.1788 -0.5418
16970TIP3    H172401   6.714   0.857   5.039  0.2728  0.1450 -1.5575
16970TIP3    H272402   6.663   0.997   5.065  0.4483 -0.2229  1.0323
16971TIP3   OH272403   1.625   3.871   4.591 -0.5522 -0.2831 -0.0187
16971TIP3    H172404   1.559   3.805   4.612  1.5099 -2.3709  0.3317
16971TIP3    H272405   1.630   3.870   4.496  0.1995 -1.4738  0.0106
16972TIP3   OH272406   0.205   6.045  14.572  0.4207 -0.2438  0.4338
16972TIP3    H172407   0.269   6.109  14.542 -1.6545  1.0632 -1.5605
16972TIP3    H272408   0.207   5.975  14.507 -0.8817  0.3401 -0.2672
16973TIP3   OH272409   6.384   3.189  12.997 -0.2963 -0.3765 -0.6953
16973TIP3    H172410   6.463   3.242  13.007 -0.1541 -0.8759  1.1894
16973TIP3    H272411   6.410   3.118  12.938  0.6443 -0.4782 -0.1774
16974TIP3   OH272412   1.154   1.873  12.338  0.3023  0.1606  0.5317
16974TIP3    H172413   1.184   1.830  12.418 -0.8976 -1.1211  0.3428
16974TIP3    H272414   1.137   1.800  12.278  0.3211  1.0541 -0.5767
16975TIP3   OH272415   3.629   2.579  14.671 -0.5865 -0.1394 -0.3977
16975TIP3    H172416   3.656   2.489  14.653  0.6721  0.4682 -1.7599
16975TIP3    H272417   3.657   2.595  14.761  1.2630 -0.4094 -0.8849
16976TIP3   OH272418   0.445   2.411   1.093  0.4423 -0.5155 -0.5044
16976TIP3    H172419   0.397   2.392   1.174 -0.7988 -1.7081 -1.4741
16976TIP3    H272420   0.535   2.423   1.121 -0.0951 -0.0592  1.1592
16977TIP3   OH272421   0.113   6.300  15.294 -0.3899 -0.3749 -0.1593
16977TIP3    H172422   0.077   6.230  15.240 -1.8457  1.2509 -1.4319
16977TIP3    H272423   0.151   6.362  15.231  1.6200 -0.3576  0.9757
16978TIP3   OH272424   5.774   0.438   4.942  0.1647  0.1227 -0.5949
16978TIP3    H172425   5.861   0.462   4.974 -0.1363  1.1003 -0.4939
16978TIP3    H272426   5.715   0.464   5.012 -0.4080  1.4170 -1.5135
16979TIP3   OH272427   1.148   5.056  17.048 -0.0871 -0.0456  0.3326
16979TIP3    H172428   1.225   5.002  17.031 -0.1493  0.4046 -1.6525
16979TIP3    H272429   1.162   5.091  17.136  2.9973  1.6100 -0.6442
16980TIP3   OH272430   2.600   3.987   5.647 -0.2347 -0.0953  0.2793
16980TIP3    H172431   2.542   3.984   5.722 -1.1999  2.6090 -0.2368
16980TIP3    H272432   2.547   3.954   5.574 -0.3764  0.2789  0.2124
16981TIP3   OH272433   0.230   6.062  13.433 -0.9312 -0.1252  0.3151
16981TIP3    H172434   0.149   6.046  13.482 -0.0137 -0.8196  1.6886
16981TIP3    H272435   0.267   6.141  13.472 -0.9226  0.1854 -0.3026
16982TIP3   OH272436   4.281   6.044   4.151  0.4586 -0.2022 -0.0237
16982TIP3    H172437   4.320   6.107   4.091  2.0568 -0.1241  1.0254
16982TIP3    H272438   4.350   6.027   4.216 -1.2119 -0.1732  1.8532
16983TIP3   OH272439   3.815   5.251   2.524  0.2318 -0.0799  0.2135
16983TIP3    H172440   3.866   5.332   2.527  0.9989 -0.5013 -0.7354
16983TIP3    H272441   3.799   5.230   2.616 -0.7417  1.5885  0.4646
16984TIP3   OH272442   4.366   3.067   2.716  0.2169 -0.0353  0.2676
16984TIP3    H172443   4.414   3.140   2.678 -1.3793  0.6101 -0.5554
16984TIP3    H272444   4.380   2.995   2.654 -0.7636  0.4619 -0.5499
16985TIP3   OH272445   5.716   1.709  16.476  0.1080 -0.5715 -0.1323
16985TIP3    H172446   5.660   1.727  16.401  1.4767 -1.2021 -1.3541
16985TIP3    H272447   5.779   1.781  16.477  0.2298 -0.6797  0.2867
16986TIP3   OH272448   6.775   6.148   3.764  0.2477  0.0702 -0.2165
16986TIP3    H172449   6.761   6.168   3.672 -1.1689 -1.0735 -0.2864
16986TIP3    H272450   6.702   6.189   3.809  1.2211  1.0817  0.4920
16987TIP3   OH272451   4.268   2.767  13.443  0.0783 -0.2940 -1.0455
16987TIP3    H172452   4.361   2.769  13.421  0.5247 -2.9135  0.1731
16987TIP3    H272453   4.232   2.694  13.392 -0.4681 -1.5594  0.9944
16988TIP3   OH272454   5.606   0.877   2.121  0.3221  0.5904  0.3351
16988TIP3    H172455   5.596   0.786   2.149 -0.0763  0.2899 -0.7690
16988TIP3    H272456   5.551   0.927   2.182  1.9759  0.3372  2.1319
16989TIP3   OH272457   5.478   2.341   2.947  0.3079 -0.1524 -0.1267
16989TIP3    H172458   5.447   2.431   2.938  1.1693  0.1179 -0.5415
16989TIP3    H272459   5.502   2.332   3.039 -1.7930 -0.6504  0.4145
16990TIP3   OH272460   0.549   5.057   3.185  0.3037  0.7309 -0.5441
16990TIP3    H172461   0.495   4.987   3.147  0.1685  1.5166 -1.8582
16990TIP3    H272462   0.604   5.087   3.113  0.6279  1.7324  0.0969
16991TIP3   OH272463   1.050   6.590  16.283 -0.2657 -0.0817 -0.0331
16991TIP3    H172464   0.997   6.526  16.236 -0.4491  0.4635 -0.5782
16991TIP3    H272465   1.049   6.668  16.227 -0.4247  0.5537  0.8274
16992TIP3   OH272466   1.401   4.957  16.526 -0.5879  0.1214  0.0907
16992TIP3    H172467   1.403   4.942  16.620  1.0297 -1.4925 -0.1365
16992TIP3    H272468   1.324   4.909  16.496  1.2935 -3.2853  0.1410
16993TIP3   OH272469   6.381   5.123   2.649  0.4365 -0.5406  0.0945
16993TIP3    H172470   6.340   5.201   2.614  1.6341 -0.3925 -1.0524
16993TIP3    H272471   6.458   5.155   2.696  0.4517 -0.9663  0.3702
16994TIP3   OH272472   4.230   3.603   0.199  0.4020  0.1554 -0.8567
16994TIP3    H172473   4.216   3.513   0.229  1.4762 -0.2665 -1.5590
16994TIP3    H272474   4.322   3.606   0.174  0.5401  1.6326 -0.2824
16995TIP3   OH272475   5.791   3.878  12.518  0.0609 -0.0617 -1.0823
16995TIP3    H172476   5.862   3.907  12.574  0.2731  0.5420 -1.6454
16995TIP3    H272477   5.834   3.824  12.452  0.2423  1.4349 -2.2564
16996TIP3   OH272478   3.318   4.096  12.552  0.4985 -0.2150 -0.2669
16996TIP3    H172479   3.408   4.110  12.582  0.2811  1.3247 -0.2816
16996TIP3    H272480   3.321   4.115  12.459  0.5415 -2.0837 -0.6834
16997TIP3   OH272481   1.475   3.361   1.492  0.2188 -0.6413 -0.2731
16997TIP3    H172482   1.440   3.450   1.491  1.2181 -0.2013  1.0257
16997TIP3    H272483   1.521   3.352   1.408  0.0859  0.0546 -0.4263
16998TIP3   OH272484   3.950   3.519   0.814 -0.2144  0.2930 -0.0739
16998TIP3    H172485   4.027   3.529   0.871  0.6605  1.8334 -1.4187
16998TIP3    H272486   3.916   3.608   0.805 -0.4854  0.0611 -1.6978
16999TIP3   OH272487   1.686   1.219   3.410 -0.1601  0.0167  0.2198
16999TIP3    H172488   1.637   1.138   3.425 -1.8261  1.1159  1.0041
16999TIP3    H272489   1.652   1.280   3.476 -1.6702  2.5155 -2.6501
17000TIP3   OH272490   0.497   3.518  16.384 -0.0515 -0.0840 -0.5297
17000TIP3    H172491   0.490   3.546  16.476  4.1028 -0.7542  0.1774
17000TIP3    H272492   0.414   3.475  16.366 -0.5589 -1.1309  3.3917
17001TIP3   OH272493   1.475   5.282  12.003 -0.2452 -0.5069  0.0436
17001TIP3    H172494   1.405   5.334  11.963  1.1358  0.2289 -1.4999
17001TIP3    H272495   1.428   5.214  12.052 -2.1466  2.0055  2.0219
17002TIP3   OH272496   5.679   2.568   3.242 -0.0700 -0.6815  0.4257
17002TIP3    H172497   5.617   2.615   3.298 -1.0295 -0.1557 -1.0220
17002TIP3    H272498   5.624   2.518   3.182  0.9388 -1.5915  0.2456
17003TIP3   OH272499   1.292   2.504   4.675 -0.5427 -0.7267  0.4456
17003TIP3    H172500   1.262   2.424   4.719 -0.8233 -1.6827 -1.3919
17003TIP3    H272501   1.278   2.573   4.740 -2.0068 -1.8945  1.4570
17004TIP3   OH272502   1.383   4.420   3.381 -0.2596  0.3466 -0.1048
17004TIP3    H172503   1.399   4.387   3.470 -1.3636 -0.9262 -0.3426
17004TIP3    H272504   1.320   4.491   3.393  0.9941  1.4330  0.2759
17005TIP3   OH272505   5.698   2.822  12.745  1.0572  0.9019  0.7344
17005TIP3    H172506   5.748   2.741  12.747 -1.5327 -0.8417 -0.0824
17005TIP3    H272507   5.664   2.832  12.835  1.1347  0.9060  0.7626
17006TIP3   OH272508   1.555   3.094   1.253  0.4386  0.3199  0.1835
17006TIP3    H172509   1.639   3.055   1.278  0.6645 -0.0491 -1.0739
17006TIP3    H272510   1.507   3.101   1.335  1.9862  1.2785  1.0629
17007TIP3   OH272511   3.580   3.366  11.403  0.2920  0.6826  0.1953
17007TIP3    H172512   3.585   3.423  11.326  0.7832 -0.4691 -0.6494
17007TIP3    H272513   3.517   3.298  11.379 -1.2757  1.5186  1.6746
17008TIP3   OH272514   1.958   4.729   3.332  0.0299 -0.2556  0.2304
17008TIP3    H172515   2.032   4.677   3.300 -1.7817 -3.0504  0.2335
17008TIP3    H272516   1.974   4.736   3.426  1.1691  0.7606 -0.0136
17009TIP3   OH272517   5.297   1.226   3.068 -1.0054  0.6125 -0.0066
17009TIP3    H172518   5.365   1.211   3.003 -1.2041 -0.5672  0.0318
17009TIP3    H272519   5.253   1.306   3.039 -0.4158  0.6869 -0.7183
17010TIP3   OH272520   2.054   2.937   4.634  0.1247 -0.5925 -0.0162
17010TIP3    H172521   1.998   2.960   4.708  1.1227 -0.0832  0.5970
17010TIP3    H272522   2.011   2.976   4.558 -1.2643 -1.6804  0.1747
17011TIP3   OH272523   0.702   2.985   2.196 -0.3256 -0.2298 -0.3895
17011TIP3    H172524   0.681   2.892   2.203 -0.3553 -0.0679  3.1117
17011TIP3    H272525   0.617   3.028   2.184 -0.7040 -0.4475  1.3747
17012TIP3   OH272526   1.691   5.819  13.218  0.3219 -0.0031  0.1104
17012TIP3    H172527   1.705   5.738  13.171  0.4866 -1.0225  1.8296
17012TIP3    H272528   1.717   5.800  13.309  1.3160  2.2379  0.3888
17013TIP3   OH272529   6.500   5.250   5.897 -0.1253 -0.2952  0.3800
17013TIP3    H172530   6.413   5.251   5.938 -0.4118 -1.1309 -0.1697
17013TIP3    H272531   6.485   5.211   5.811  1.0988 -2.2222  0.9786
17014TIP3   OH272532   0.279   3.558  11.176  0.3250  0.1237 -0.3469
17014TIP3    H172533   0.186   3.536  11.177  0.3912 -0.2249 -1.0184
17014TIP3    H272534   0.298   3.578  11.084  1.2514 -1.3140 -0.4947
17015TIP3   OH272535   4.169   2.637   3.659  0.1984 -0.0155 -0.1858
17015TIP3    H172536   4.107   2.706   3.679 -0.3523 -0.7306  0.6612
17015TIP3    H272537   4.254   2.680   3.657  0.4556  0.1562  4.3913
17016TIP3   OH272538   4.698   3.638  14.920 -0.4203  0.2163 -0.1541
17016TIP3    H172539   4.700   3.662  15.013 -1.0435  0.4756 -0.1996
17016TIP3    H272540   4.650   3.555  14.918 -0.3651  0.1876 -0.2347
17017TIP3   OH272541   1.526   5.005   4.789  0.0990 -0.0400  0.2622
17017TIP3    H172542   1.499   4.968   4.706  1.1390 -0.6291  0.1679
17017TIP3    H272543   1.606   4.958   4.812  0.3230  0.7291  1.1537
17018TIP3   OH272544   5.547   4.496  11.453  0.9029 -0.0757 -0.3164
17018TIP3    H172545   5.505   4.559  11.395 -1.1536 -0.0629  1.0777
17018TIP3    H272546   5.486   4.422  11.457  1.4722 -0.5154  0.9964
17019TIP3   OH272547   4.119   0.733  11.408  0.6435 -0.0658 -0.2061
17019TIP3    H172548   4.061   0.673  11.361 -0.3605  2.0636 -1.8983
17019TIP3    H272549   4.126   0.696  11.496  1.3998 -3.4463 -1.5598
17020TIP3   OH272550   2.414   4.464  15.219 -0.4164  0.2851  0.1250
17020TIP3    H172551   2.333   4.515  15.209 -1.0829 -0.6968  0.3957
17020TIP3    H272552   2.394   4.379  15.182  1.6636  1.0677 -3.1662
17021TIP3   OH272553   4.558   1.200   2.542 -0.4926 -0.7279 -0.5341
17021TIP3    H172554   4.639   1.251   2.545 -0.8564 -0.1645  1.6224
17021TIP3    H272555   4.573   1.128   2.604 -2.0990  0.1845  0.9899
17022TIP3   OH272556   1.579   3.613  12.004  0.0501  0.2890 -0.0962
17022TIP3    H172557   1.527   3.641  12.080  0.4677  2.6352 -0.6003
17022TIP3    H272558   1.669   3.635  12.029  0.5838 -1.7608 -0.0894
17023TIP3   OH272559   5.681   2.375  11.380  0.3568  0.0426  0.2661
17023TIP3    H172560   5.751   2.313  11.361  0.2401  0.0087 -0.0604
17023TIP3    H272561   5.724   2.460  11.384  0.4576 -0.0118  0.3269
17024TIP3   OH272562   0.709   1.150  12.276 -0.3599 -0.0676  0.0552
17024TIP3    H172563   0.764   1.080  12.241 -1.2574 -0.0620 -1.4572
17024TIP3    H272564   0.655   1.108  12.343 -1.3702 -1.0134 -1.3035
17025TIP3   OH272565   1.470   3.012  16.781 -0.2549 -0.1094  0.0088
17025TIP3    H172566   1.497   3.067  16.708 -0.2764  1.4279  1.1009
17025TIP3    H272567   1.522   2.932  16.773 -2.1332 -1.1814 -3.1635
17026TIP3   OH272568   0.525   1.324   0.815 -0.8598 -0.0831 -0.1718
17026TIP3    H172569   0.454   1.294   0.871  0.3388 -2.1013  0.3799
17026TIP3    H272570   0.496   1.303   0.726 -1.5885  0.5246 -0.0799
17027TIP3   OH272571   0.835   0.913  12.400 -1.1604 -0.1657 -0.1536
17027TIP3    H172572   0.894   0.845  12.367 -0.9524  0.4661 -1.1075
17027TIP3    H272573   0.892   0.971  12.451 -1.1917 -0.2341 -0.0391
17028TIP3   OH272574   5.693   4.863  15.389  0.0901  0.2095 -0.4089
17028TIP3    H172575   5.626   4.804  15.423 -1.1520  2.4178  1.2567
17028TIP3    H272576   5.771   4.845  15.442 -0.4632  0.4630  0.5105
17029TIP3   OH272577   5.330   6.490   2.513 -0.4121 -0.5168 -0.6838
17029TIP3    H172578   5.395   6.475   2.581 -0.3409 -1.7131 -0.9986
17029TIP3    H272579   5.286   6.571   2.540  0.8445  0.0314 -0.1988
17030TIP3   OH272580   4.784   4.624   3.944  0.4557 -0.0063  0.0815
17030TIP3    H172581   4.816   4.638   3.855 -1.2191 -0.2507 -0.6082
17030TIP3    H272582   4.810   4.703   3.991  0.9544  0.3410 -0.7501
17031TIP3   OH272583   1.811   4.752  11.474  0.1145  0.3050 -0.1285
17031TIP3    H172584   1.749   4.679  11.469  2.0170 -1.6503  2.3962
17031TIP3    H272585   1.885   4.724  11.421  0.8923  0.3213  0.9174
17032TIP3   OH272586   0.808   1.102  15.129 -0.0454 -0.3141 -0.1309
17032TIP3    H172587   0.863   1.025  15.143 -1.1715 -1.1900 -0.3151
17032TIP3    H272588   0.809   1.148  15.213  1.4494  0.0375 -0.3156
17033TIP3   OH272589   4.293   0.865  12.187  0.4437  0.1300  0.3774
17033TIP3    H172590   4.313   0.845  12.096 -0.0182 -0.2645  0.3569
17033TIP3    H272591   4.336   0.796  12.237 -1.7259 -1.3975  0.2671
17034TIP3   OH272592   6.008   2.969   5.074  0.2283 -0.6794  0.1697
17034TIP3    H172593   6.022   2.960   4.980 -1.7110  0.7525 -0.3244
17034TIP3    H272594   5.970   3.057   5.084 -0.4783 -1.1601  2.1689
17035TIP3   OH272595   6.412   5.621  15.270  0.1942  0.5479  0.6540
17035TIP3    H172596   6.431   5.663  15.186 -0.4422  0.1255  0.2900
17035TIP3    H272597   6.397   5.694  15.330  2.3265  0.8862  0.8231
17036TIP3   OH272598   3.583   3.027  15.841  0.2311  0.3800 -0.3800
17036TIP3    H172599   3.582   3.116  15.805 -1.5569  0.1084 -1.0714
17036TIP3    H272600   3.662   3.024  15.895  0.5933  2.2228 -0.7585
17037TIP3   OH272601   5.301   2.688   1.745 -0.0077 -0.7362  0.2901
17037TIP3    H172602   5.329   2.715   1.658 -1.1796 -1.3930 -0.3183
17037TIP3    H272603   5.221   2.738   1.760 -0.1970 -1.1536  0.6843
17038TIP3   OH272604   6.683   2.254   1.905 -0.2399 -0.5151 -0.2689
17038TIP3    H172605   6.750   2.319   1.884 -0.3581 -0.5160 -0.6634
17038TIP3    H272606   6.605   2.305   1.924 -0.6686 -0.5531 -1.7696
17039TIP3   OH272607   0.365   3.564  14.193  0.2548  0.2046 -0.4762
17039TIP3    H172608   0.309   3.565  14.270  1.1021 -1.0584  0.1895
17039TIP3    H272609   0.396   3.474  14.187  1.5810  0.6842 -1.2710
17040TIP3   OH272610   4.287   5.063  15.102 -0.1860  0.1240 -0.6629
17040TIP3    H172611   4.221   5.132  15.106  0.7699  0.9924  1.3253
17040TIP3    H272612   4.237   4.981  15.100 -1.3161  0.8020 -0.5476
17041TIP3   OH272613   6.775   5.905   2.789 -0.0773 -0.4508  0.1310
17041TIP3    H172614   6.785   5.988   2.742  2.1059  0.0763  1.3471
17041TIP3    H272615   6.703   5.921   2.850 -0.2298  0.2628 -0.2216
17042TIP3   OH272616   4.932   5.710   2.011 -0.0492 -0.4415 -0.0245
17042TIP3    H172617   4.902   5.620   2.010  0.1772 -0.5186 -0.6111
17042TIP3    H272618   4.965   5.724   2.100  0.3503 -1.0872 -0.0650
17043TIP3   OH272619   2.587   1.600  12.955 -0.2321  0.1037  0.2320
17043TIP3    H172620   2.604   1.514  12.995 -0.5044 -0.8931 -1.6878
17043TIP3    H272621   2.495   1.618  12.974 -0.6186 -0.8082 -0.7190
17044TIP3   OH272622   5.298   0.707   1.636  0.0304 -0.3751  0.1242
17044TIP3    H172623   5.303   0.791   1.591  0.2332 -0.0570  0.7407
17044TIP3    H272624   5.350   0.648   1.581  0.2511  0.0008 -0.0735
17045TIP3   OH272625   0.054   0.105   2.246 -1.1485  0.4401 -0.1805
17045TIP3    H172626   0.147   0.129   2.244 -0.5420 -1.6552 -0.0548
17045TIP3    H272627   0.013   0.161   2.180  0.5860  0.1210 -1.6055
17046TIP3   OH272628   5.145   4.282   2.597  0.1494  0.0288 -0.8261
17046TIP3    H172629   5.226   4.321   2.565  0.3084 -0.4585 -1.0191
17046TIP3    H272630   5.169   4.192   2.620  0.4212  0.7254  2.0616
17047TIP3   OH272631   4.824   3.380  13.658  0.4548  0.0180 -0.1105
17047TIP3    H172632   4.866   3.454  13.614  0.0749  0.9597  1.0497
17047TIP3    H272633   4.777   3.334  13.588  1.4359  0.3308 -1.0017
17048TIP3   OH272634   5.647   4.658  10.384  0.5287 -0.1491  0.4300
17048TIP3    H172635   5.582   4.728  10.374  0.3601 -0.2075  1.0336
17048TIP3    H272636   5.658   4.650  10.479  0.7453 -0.7589  0.3570
17049TIP3   OH272637   4.547   1.453  12.617 -0.2486  0.6057  0.5877
17049TIP3    H172638   4.584   1.442  12.529 -0.2120  2.2605  0.3560
17049TIP3    H272639   4.499   1.372  12.633 -0.3606  0.3111 -1.0228
17050TIP3   OH272640   5.886   6.287  13.404 -0.1423  0.2560 -0.1728
17050TIP3    H172641   5.796   6.301  13.433  0.0873  1.0561  0.1671
17050TIP3    H272642   5.886   6.198  13.368 -1.1127  0.3194 -0.3523
17051TIP3   OH272643   1.231   0.505   2.168 -0.4727 -0.2658 -0.4718
17051TIP3    H172644   1.317   0.508   2.125 -1.0685 -0.1017 -1.7056
17051TIP3    H272645   1.207   0.597   2.181 -0.8584 -0.2847 -0.9944
17052TIP3   OH272646   5.186   6.251   2.411  0.3708 -0.2524 -0.0144
17052TIP3    H172647   5.101   6.225   2.447  0.3675  0.6952  0.7136
17052TIP3    H272648   5.196   6.342   2.439  0.4593  0.4851 -2.2750
17053TIP3   OH272649   0.143   1.006  11.214 -0.3682 -0.1532  0.2048
17053TIP3    H172650   0.121   1.073  11.279  0.0357 -0.7585  0.9804
17053TIP3    H272651   0.096   1.033  11.135 -2.1459 -0.2111  1.1691
17054TIP3   OH272652   5.884   6.155  12.996 -0.4055 -0.0741 -0.5966
17054TIP3    H172653   5.812   6.195  13.045 -0.3659 -1.3002  0.5221
17054TIP3    H272654   5.854   6.067  12.976  0.4100 -0.2747 -0.9831
17055TIP3   OH272655   5.497   6.683  12.715 -0.0733  0.3713 -0.1358
17055TIP3    H172656   5.487   6.643  12.629 -0.1186 -0.0546  0.0651
17055TIP3    H272657   5.424   6.744  12.722  0.4754  1.1313 -0.7867
17056TIP3   OH272658   0.744   5.071  12.315 -0.1883 -0.8152  0.4234
17056TIP3    H172659   0.737   5.118  12.398  1.7738 -2.0074  1.3226
17056TIP3    H272660   0.697   4.988  12.330 -2.6966  0.2689 -0.8067
17057TIP3   OH272661   0.762   1.423  11.724  0.5671 -0.5807 -0.3829
17057TIP3    H172662   0.850   1.418  11.686  1.9511  0.9488  2.3274
17057TIP3    H272663   0.774   1.400  11.816 -1.8097  0.0717  0.1627
17058TIP3   OH272664   3.016   4.164  14.204 -0.3338 -0.2004  0.0662
17058TIP3    H172665   3.031   4.187  14.113 -1.3019  0.9404  0.1739
17058TIP3    H272666   3.079   4.093  14.222  2.2605  1.8183 -0.5068
17059TIP3   OH272667   5.935   1.332   2.395 -0.2117 -0.2690 -0.1087
17059TIP3    H172668   5.871   1.349   2.464  1.3741  0.3928  1.2898
17059TIP3    H272669   5.953   1.417   2.357 -1.1343 -0.6425 -1.4447
17060TIP3   OH272670   2.031   1.115  10.980  0.0186  0.6988  0.4049
17060TIP3    H172671   2.035   1.049  11.049  0.6932 -0.5321 -0.7476
17060TIP3    H272672   2.119   1.154  10.980  0.4319 -0.1879 -0.5476
17061TIP3   OH272673   2.970   1.167   3.154 -0.1465  0.7712  0.5343
17061TIP3    H172674   2.965   1.233   3.223  0.1262 -0.3980  1.7046
17061TIP3    H272675   3.062   1.139   3.154 -0.6929 -1.2637  1.7040
17062TIP3   OH272676   1.946   3.294   5.007 -0.2471  0.1466  0.4753
17062TIP3    H172677   1.888   3.367   4.985 -2.5070 -1.9918 -1.2652
17062TIP3    H272678   2.014   3.297   4.940 -0.9021  0.0951 -0.2077
17063TIP3   OH272679   3.238   2.649   2.499 -0.0256 -0.0511 -0.5129
17063TIP3    H172680   3.253   2.557   2.478  0.2393 -0.4867  1.3857
17063TIP3    H272681   3.320   2.678   2.540 -0.4336  0.7633 -0.2554
17064TIP3   OH272682   4.667   1.025   3.557  0.2981  0.7405 -0.2488
17064TIP3    H172683   4.581   0.985   3.568  0.5769 -0.2019 -1.3407
17064TIP3    H272684   4.715   1.000   3.636 -0.7140  2.1201  0.8595
17065TIP3   OH272685   5.308   4.232  10.682  0.0480 -0.4470 -0.2148
17065TIP3    H172686   5.369   4.278  10.625  1.3292 -0.7626  0.8390
17065TIP3    H272687   5.317   4.140  10.657 -0.2298 -0.4601 -0.2659
17066TIP3   OH272688   2.732   2.756   3.264 -0.3083  0.0635 -0.2723
17066TIP3    H172689   2.732   2.726   3.173  0.7401  1.8730 -0.9311
17066TIP3    H272690   2.753   2.678   3.315  1.3009 -0.5573 -1.7864
17067TIP3   OH272691   4.211   3.436   1.494 -0.5192  0.1843 -0.2914
17067TIP3    H172692   4.268   3.447   1.570  0.5235 -1.6647 -0.7474
17067TIP3    H272693   4.215   3.520   1.449  0.9297  0.4701  0.3141
17068TIP3   OH272694   1.634   2.183   0.349  0.0482  0.4007  0.3869
17068TIP3    H172695   1.615   2.271   0.317 -0.8715  0.3339  0.7317
17068TIP3    H272696   1.580   2.173   0.427  0.5091 -0.2968  0.6316
17069TIP3   OH272697   4.248   0.537  15.191  0.4034 -0.4361  0.8179
17069TIP3    H172698   4.291   0.476  15.251  0.5174 -0.6774  0.4893
17069TIP3    H272699   4.171   0.490  15.160 -0.2189  0.0622  1.5497
17070TIP3   OH272700   1.963   0.879  14.500 -0.0187  0.2770  0.6555
17070TIP3    H172701   1.914   0.841  14.573 -1.4887  1.9142  0.5934
17070TIP3    H272702   1.902   0.878  14.427  0.5100  1.0971  0.1847
17071TIP3   OH272703   4.232   6.310  12.381  0.0037  0.5244 -0.7770
17071TIP3    H172704   4.325   6.327  12.390 -0.2095  0.6699  1.9806
17071TIP3    H272705   4.190   6.392  12.406 -0.9198  0.9253 -3.3537
17072TIP3   OH272706   2.514   3.925   3.333  0.2860  0.1281  0.3322
17072TIP3    H172707   2.420   3.920   3.312  0.1855  1.1922  0.4398
17072TIP3    H272708   2.519   3.995   3.398  1.0659 -0.5002  0.9568
17073TIP3   OH272709   3.577   3.088   2.947 -0.0115 -0.1184 -0.4058
17073TIP3    H172710   3.506   3.026   2.966 -1.1250  1.2006 -0.0530
17073TIP3    H272711   3.630   3.044   2.881 -0.8184 -1.3938 -0.2489
17074TIP3   OH272712   0.190   3.208  14.300 -0.0221 -0.8261  0.5256
17074TIP3    H172713   0.279   3.174  14.310  0.0394 -0.3875  1.5700
17074TIP3    H272714   0.138   3.158  14.363 -0.4925 -0.9751  0.0262
17075TIP3   OH272715   0.498   5.075  14.968 -0.2875  0.2829  0.1675
17075TIP3    H172716   0.489   5.008  15.036  1.4374  0.1461  0.3136
17075TIP3    H272717   0.442   5.045  14.896 -0.5067 -0.6630  0.7197
17076TIP3   OH272718   3.537   2.011  12.442 -0.5908 -0.4982 -0.2690
17076TIP3    H172719   3.534   1.983  12.534 -1.2424  1.5120  0.3738
17076TIP3    H272720   3.545   1.929  12.393  2.1383 -1.5343  1.6254
17077TIP3   OH272721   5.034   4.186  15.083 -0.0412  0.0088  0.5841
17077TIP3    H172722   5.111   4.234  15.113  0.3506  0.3498 -0.9077
17077TIP3    H272723   4.982   4.250  15.036 -0.7323 -0.4660  0.6795
17078TIP3   OH272724   1.148   3.344   4.049 -1.1365 -0.2513 -0.2818
17078TIP3    H172725   1.188   3.365   3.964 -2.0903  0.6859 -0.5352
17078TIP3    H272726   1.158   3.250   4.058  0.0361 -0.2022 -0.8854
17079TIP3   OH272727   2.371   5.135   4.150 -0.3134  0.5900  0.4535
17079TIP3    H172728   2.441   5.177   4.101 -1.5130  1.8642 -0.2263
17079TIP3    H272729   2.304   5.202   4.160 -1.4093 -0.5555  1.1747
17080TIP3   OH272730   6.644   4.799  12.418  0.3663 -0.2519 -0.8386
17080TIP3    H172731   6.710   4.749  12.467 -1.6922 -2.0101  0.2734
17080TIP3    H272732   6.595   4.733  12.369 -1.4012  0.8526 -0.6262
17081TIP3   OH272733   3.334   5.392  15.943  0.0153 -0.3426 -0.2796
17081TIP3    H172734   3.242   5.419  15.936 -0.0242 -0.3566  0.1903
17081TIP3    H272735   3.373   5.421  15.860 -0.5213 -0.7747 -0.6875
17082TIP3   OH272736   0.952   1.489   0.767  0.2553 -0.2358 -0.7969
17082TIP3    H172737   0.874   1.542   0.782 -0.1971 -1.3633  1.2315
17082TIP3    H272738   0.991   1.480   0.854  0.0598 -3.5041 -0.9333
17083TIP3   OH272739   5.293   5.822   1.338  0.0295 -0.0442  0.1255
17083TIP3    H172740   5.347   5.837   1.261  1.5421  1.5770  1.4147
17083TIP3    H272741   5.227   5.891   1.336  1.5475  1.5355  1.4531
17084TIP3   OH272742   0.710   4.959   3.376  0.6058 -0.3322  0.5498
17084TIP3    H172743   0.700   4.918   3.462 -0.7833  0.4532  0.7809
17084TIP3    H272744   0.621   4.977   3.347  1.0436 -0.8234 -1.1934
17085TIP3   OH272745   0.140   6.032  15.200  0.3263 -0.3503 -0.7545
17085TIP3    H172746   0.234   6.032  15.220  0.1392 -0.5713  0.1836
17085TIP3    H272747   0.111   5.944  15.225 -0.6488  0.5595  1.5892
17086TIP3   OH272748   3.404   6.586   0.968 -0.1137  0.1259 -0.2555
17086TIP3    H172749   3.345   6.649   0.926  0.4960 -1.2679 -3.4767
17086TIP3    H272750   3.348   6.513   0.991 -0.4753  0.9525  1.6550
17087TIP3   OH272751   3.905   1.067  16.913  0.0611 -0.2830  0.1579
17087TIP3    H172752   3.894   0.975  16.887  1.0291 -0.0508 -1.1761
17087TIP3    H272753   3.928   1.112  16.832  0.9179  0.9178  1.0344
17088TIP3   OH272754   0.955   5.864   4.670 -0.0662 -0.2441 -0.1120
17088TIP3    H172755   1.047   5.843   4.657  0.6298  1.0003  2.1977
17088TIP3    H272756   0.914   5.780   4.694  0.9372 -0.4384  0.9850
17089TIP3   OH272757   4.512   6.553  11.631 -0.2540 -0.0390 -0.3183
17089TIP3    H172758   4.596   6.538  11.673 -0.6139  1.1939  0.9480
17089TIP3    H272759   4.528   6.541  11.538  1.2342 -0.1883 -0.0531
17090TIP3   OH272760   1.322   1.981   6.270  0.3588 -0.5170  0.1594
17090TIP3    H172761   1.335   2.001   6.177  1.4586 -1.7483  0.0110
17090TIP3    H272762   1.240   1.931   6.272 -0.3547  0.6196  0.0424
17091TIP3   OH272763   6.344   1.022  15.276 -0.4903 -0.4806  0.3926
17091TIP3    H172764   6.285   0.974  15.218  0.2695 -0.6651 -0.2463
17091TIP3    H272765   6.380   0.955  15.335 -1.1317 -0.3202  0.9853
17092TIP3   OH272766   2.488   0.154  15.383 -0.4005  0.1422  0.3473
17092TIP3    H172767   2.538   0.073  15.369 -1.8086 -0.4510 -1.7680
17092TIP3    H272768   2.519   0.187  15.467  1.0520 -1.9803  0.7343
17093TIP3   OH272769   4.178   3.193   3.447  0.0176  0.0597 -0.3972
17093TIP3    H172770   4.251   3.245   3.413  0.5529 -0.2029  0.3328
17093TIP3    H272771   4.105   3.256   3.453  0.2338  0.3692 -0.9387
17094TIP3   OH272772   3.700   4.936   0.753 -0.4296 -0.0718 -0.0373
17094TIP3    H172773   3.650   4.856   0.739  0.3371 -0.2722 -1.8032
17094TIP3    H272774   3.721   4.968   0.666  3.2401 -0.4802  0.5364
17095TIP3   OH272775   2.470   0.151   3.680  0.1826  0.2750 -0.1024
17095TIP3    H172776   2.418   0.227   3.654 -2.3362 -1.0221  0.7838
17095TIP3    H272777   2.494   0.168   3.771  0.1102  0.2817 -0.0842
17096TIP3   OH272778   4.092   5.331  14.478  0.6788  0.2734 -0.4586
17096TIP3    H172779   4.001   5.335  14.508  0.8435  2.4947 -0.0667
17096TIP3    H272780   4.132   5.263  14.533  0.1364  1.8745  2.1028
17097TIP3   OH272781   0.781   4.362  15.977  0.3803 -0.0935  0.5961
17097TIP3    H172782   0.797   4.375  16.071  2.0539  0.9940  0.1978
17097TIP3    H272783   0.868   4.346  15.940  0.0636  1.8273 -1.1167
17098TIP3   OH272784   4.961   0.758  11.189  0.3043 -0.2002 -0.8281
17098TIP3    H172785   4.893   0.744  11.255 -0.4534  1.4369 -1.2027
17098TIP3    H272786   5.041   0.726  11.229 -0.8792 -3.9053 -1.0291
17099TIP3   OH272787   4.639   5.441  11.966  0.5337 -0.2414 -0.3007
17099TIP3    H172788   4.727   5.469  11.994 -0.0079  0.4168  0.7951
17099TIP3    H272789   4.640   5.346  11.976  0.6679 -0.1192  1.1415
17100TIP3   OH272790   6.257   0.204   1.686  0.0369 -0.0469 -0.0121
17100TIP3    H172791   6.254   0.277   1.748  0.9195  0.1964 -0.2333
17100TIP3    H272792   6.224   0.129   1.734  0.1994  0.2609  0.5845
17101TIP3   OH272793   3.917   2.850   3.190 -0.6129  0.1818 -0.7029
17101TIP3    H172794   3.843   2.791   3.176 -1.6657  1.6609 -1.5475
17101TIP3    H272795   3.973   2.837   3.113  0.8170 -1.9578  0.5682
17102TIP3   OH272796   0.331   5.576   3.465 -0.0585  0.2066  0.4483
17102TIP3    H172797   0.344   5.628   3.386  1.3093 -2.7111 -1.4413
17102TIP3    H272798   0.243   5.540   3.456  1.3284 -3.1086 -1.9084
17103TIP3   OH272799   4.957   0.845   3.053  0.5109 -0.0930  0.5536
17103TIP3    H172800   4.973   0.924   3.001 -0.1470 -1.4470 -1.8768
17103TIP3    H272801   4.903   0.790   2.996  1.5463 -2.6041  1.8525
17104TIP3   OH272802   1.577   1.920   2.696  0.4866 -0.2721 -0.1528
17104TIP3    H172803   1.574   1.881   2.783  0.2192 -0.7071 -0.3512
17104TIP3    H272804   1.535   1.855   2.639 -0.6218  0.6097 -0.3769
17105TIP3   OH272805   1.356   2.547  11.799  0.0688 -0.2220 -0.7252
17105TIP3    H172806   1.354   2.613  11.730  0.5062  3.0714  2.1346
17105TIP3    H272807   1.267   2.512  11.801 -0.6621  1.5036 -1.2934
17106TIP3   OH272808   2.214   3.572  15.938  0.8137 -0.2867 -0.0168
17106TIP3    H172809   2.152   3.644  15.928  1.2719  0.7592  3.4782
17106TIP3    H272810   2.285   3.592  15.876  0.9860  2.3798  0.9411
17107TIP3   OH272811   2.976   1.747  14.409 -0.2430  0.0911  0.4250
17107TIP3    H172812   2.900   1.796  14.439 -1.0323 -0.6754 -0.2571
17107TIP3    H272813   3.021   1.721  14.489  0.1042  1.7489  0.8044
17108TIP3   OH272814   6.125   6.010   1.314 -1.1601 -0.4913 -0.2106
17108TIP3    H172815   6.118   5.985   1.222 -0.9888 -3.1249  0.3967
17108TIP3    H272816   6.069   5.948   1.360  0.6433 -0.8659  1.6663
17109TIP3   OH272817   3.624   4.795  16.498 -0.1842 -0.3515  0.3778
17109TIP3    H172818   3.583   4.730  16.441 -0.6363 -0.6088  0.9865
17109TIP3    H272819   3.661   4.744  16.570 -0.6842  0.0820  0.9448
17110TIP3   OH272820   3.043   3.854   0.597 -0.2491 -0.0892 -0.3662
17110TIP3    H172821   2.958   3.810   0.595 -0.6358  0.5230  1.1323
17110TIP3    H272822   3.063   3.863   0.690  0.6560  1.2757 -0.6692
17111TIP3   OH272823   6.515   6.007   2.553 -0.1389 -0.0456 -0.5908
17111TIP3    H172824   6.573   6.075   2.585 -0.0135  0.8061 -2.4515
17111TIP3    H272825   6.467   5.977   2.630  0.0978  1.8668  0.3526
17112TIP3   OH272826   0.157   3.211   0.115 -0.1987  0.1264 -0.6157
17112TIP3    H172827   0.102   3.289   0.108  1.4923  1.4132 -0.3051
17112TIP3    H272828   0.096   3.138   0.107 -1.8746  1.4649 -0.7219
17113TIP3   OH272829   4.374   4.639   4.425 -0.4189  0.8397 -0.1770
17113TIP3    H172830   4.462   4.676   4.424  0.4839 -1.1821 -0.1656
17113TIP3    H272831   4.319   4.706   4.384  0.6576  3.1441  1.8505
17114TIP3   OH272832   3.456   5.297   4.713 -0.0315 -0.5269  0.6534
17114TIP3    H172833   3.420   5.343   4.637  0.4929  0.8141  1.1898
17114TIP3    H272834   3.409   5.213   4.714 -0.6879 -0.2093 -0.6160
17115TIP3   OH272835   3.843   3.692  11.639 -0.0420 -0.5122  0.1659
17115TIP3    H172836   3.761   3.643  11.633  0.5782 -1.4284 -1.8373
17115TIP3    H272837   3.880   3.666  11.723 -0.4938 -2.2813 -0.1323
17116TIP3   OH272838   4.165   4.904  12.393 -0.0560 -0.2843 -0.4429
17116TIP3    H172839   4.091   4.845  12.410  0.0797  0.4192  3.6550
17116TIP3    H272840   4.237   4.846  12.369 -1.0367 -1.3068 -1.0397
17117TIP3   OH272841   6.815   4.287  16.709 -0.4104 -0.8677 -0.2049
17117TIP3    H172842   6.839   4.257  16.622 -0.3663  1.8150 -1.2223
17117TIP3    H272843   6.766   4.368  16.694  1.1752  0.6968  2.2641
17118TIP3   OH272844   6.678   1.476  11.984 -0.0021 -0.3532 -0.0599
17118TIP3    H172845   6.713   1.408  12.043  0.5231 -0.8043 -0.8723
17118TIP3    H272846   6.597   1.505  12.027 -1.1332 -2.6413 -0.4560
17119TIP3   OH272847   0.935   0.839  14.488  0.3560 -0.0439 -0.6071
17119TIP3    H172848   0.917   0.924  14.447 -1.8388 -0.4284 -0.5396
17119TIP3    H272849   0.888   0.842  14.571  0.2001 -1.3556 -0.6278
17120TIP3   OH272850   1.267   1.418  16.769  0.7378 -0.4242 -0.2714
17120TIP3    H172851   1.271   1.485  16.837  0.4077  0.5420 -1.1801
17120TIP3    H272852   1.223   1.344  16.811 -0.1805  0.4460  0.3351
17121TIP3   OH272853   2.834   2.768  14.890  0.1033 -0.4183 -0.0911
17121TIP3    H172854   2.742   2.795  14.889  0.1604 -0.2169 -1.3722
17121TIP3    H272855   2.831   2.672  14.882 -0.0007 -0.4040 -0.2307
17122TIP3   OH272856   3.100   4.446  15.598  0.1971 -0.0866 -0.4608
17122TIP3    H172857   3.087   4.391  15.522 -0.2573 -0.2383 -0.2753
17122TIP3    H272858   3.106   4.535  15.563  0.2806 -0.1857 -0.6978
17123TIP3   OH272859   4.217   4.738   0.060 -0.4505 -0.0295  0.2833
17123TIP3    H172860   4.247   4.774  -0.024 -0.3275  3.6055  1.7309
17123TIP3    H272861   4.293   4.692   0.094  0.0732  0.0108 -0.7724
17124TIP3   OH272862   2.590   3.684  15.715  0.3769 -0.4038  0.8778
17124TIP3    H172863   2.666   3.742  15.724  1.1615 -1.3362  0.4772
17124TIP3    H272864   2.601   3.619  15.784 -0.3179 -0.2760  1.1141
17125TIP3   OH272865   1.727   2.930   1.442  0.5344 -0.0797  0.6805
17125TIP3    H172866   1.702   2.860   1.502 -0.1479  0.7147  1.3653
17125TIP3    H272867   1.729   3.009   1.497  0.0824  0.6401 -0.2902
17126TIP3   OH272868   3.809   3.732   1.645  0.3744  0.4308 -0.0041
17126TIP3    H172869   3.819   3.640   1.619 -1.6156  0.5835 -1.5901
17126TIP3    H272870   3.718   3.738   1.676  0.3061  1.9456 -0.4145
17127TIP3   OH272871   1.788   2.290   2.391 -0.0840  0.1963 -0.5606
17127TIP3    H172872   1.882   2.304   2.398 -0.0644 -0.2611  0.2241
17127TIP3    H272873   1.751   2.338   2.466 -0.3779 -0.5141 -0.2479
17128TIP3   OH272874   2.509   3.113  12.689  0.5011  0.1480 -0.3327
17128TIP3    H172875   2.588   3.104  12.741 -0.6919  0.8899  1.7125
17128TIP3    H272876   2.454   3.038  12.714 -0.0099  0.3889 -0.7019
17129TIP3   OH272877   2.112   0.657   5.867  0.4144  0.0896  0.3376
17129TIP3    H172878   2.057   0.579   5.873  1.0778 -0.4151 -0.0442
17129TIP3    H272879   2.187   0.638   5.924  1.4290 -0.2668 -1.0879
17130TIP3   OH272880   2.712   3.396   4.422  0.3465 -0.2053 -0.3270
17130TIP3    H172881   2.741   3.470   4.369 -0.3238 -0.0671 -0.5172
17130TIP3    H272882   2.718   3.321   4.363 -0.3990 -0.0514 -0.6186
17131TIP3   OH272883   2.210   5.844  16.458 -0.0004 -0.2806  0.0100
17131TIP3    H172884   2.259   5.762  16.465  0.5766  0.0103 -0.4479
17131TIP3    H272885   2.229   5.889  16.540  0.8553  0.0059 -0.3273
17132TIP3   OH272886   5.992   0.001  12.941  0.0737 -0.5358  0.1110
17132TIP3    H172887   5.898   0.020  12.933  0.0010 -0.0052  1.7767
17132TIP3    H272888   6.002  -0.087  12.906 -1.3379 -1.2411  1.3673
17133TIP3   OH272889   5.188   4.641  15.708  0.2671 -0.0405 -0.3556
17133TIP3    H172890   5.185   4.699  15.631  2.7880  0.1881 -0.3448
17133TIP3    H272891   5.273   4.658  15.747  0.4724 -2.7298  0.5034
17134TIP3   OH272892   1.171   6.697   2.914 -0.5005 -0.3823  0.3567
17134TIP3    H172893   1.213   6.743   2.841 -1.3843  0.0205  0.0840
17134TIP3    H272894   1.183   6.755   2.989 -1.3060  0.1523  0.0894
17135TIP3   OH272895   1.595   6.186   3.471 -0.0173  0.0104 -0.1944
17135TIP3    H172896   1.597   6.153   3.382  0.7996  1.9547 -0.9651
17135TIP3    H272897   1.502   6.190   3.493 -0.1649 -3.0222  0.1247
17136TIP3   OH272898   0.597   4.638   2.819  0.2630  0.0778 -0.2088
17136TIP3    H172899   0.516   4.640   2.768  0.3788  0.8509 -0.3683
17136TIP3    H272900   0.571   4.668   2.906  0.7383  2.3189 -0.7945
17137TIP3   OH272901   5.908   0.257   6.230 -0.3567 -0.0130  0.0586
17137TIP3    H172902   5.861   0.268   6.313 -0.3514  0.8404 -0.0345
17137TIP3    H272903   5.999   0.239   6.256 -0.3524  0.2653  0.2416
17138TIP3   OH272904   0.402   4.512   6.179 -0.5169  0.5696  0.5034
17138TIP3    H172905   0.355   4.590   6.152 -0.8751 -0.2152 -1.2519
17138TIP3    H272906   0.370   4.494   6.268 -2.3844  0.9311 -0.0635
17139TIP3   OH272907   0.782   0.841  15.841  0.2973  0.2639 -0.4073
17139TIP3    H172908   0.818   0.910  15.896  2.3843  0.9565 -2.4956
17139TIP3    H272909   0.718   0.885  15.785  0.2060  0.1115 -0.4259
17140TIP3   OH272910   5.910   2.189  13.601 -0.0310 -0.2305 -0.6282
17140TIP3    H172911   5.906   2.284  13.597 -0.3578 -0.1534  0.9086
17140TIP3    H272912   5.887   2.160  13.513 -0.7776  1.0930 -0.8869
17141TIP3   OH272913   6.493   0.965   3.000  1.0525  0.2799  0.1606
17141TIP3    H172914   6.576   0.968   3.047  1.3027  0.2047 -0.2680
17141TIP3    H272915   6.492   0.879   2.958  1.3036  0.7236 -0.7994
17142TIP3   OH272916   6.317   5.417  10.634  0.0312  0.8280  0.7344
17142TIP3    H172917   6.227   5.427  10.662 -0.7693  0.1187 -1.3748
17142TIP3    H272918   6.334   5.493  10.579  0.1253  0.1206 -0.2465
17143TIP3   OH272919   3.836   0.394  14.567  0.2883 -0.3472  0.1235
17143TIP3    H172920   3.885   0.420  14.645  0.3153 -0.8089  0.2648
17143TIP3    H272921   3.831   0.298  14.572  0.1152 -0.3676 -0.3373
17144TIP3   OH272922   2.234   2.496   2.708 -0.0406 -0.1972  0.3535
17144TIP3    H172923   2.201   2.504   2.618 -1.3698  0.0401  0.8466
17144TIP3    H272924   2.253   2.586   2.735  1.8321 -0.3809 -0.1872
17145TIP3   OH272925   2.983   4.868   4.779  0.0781  0.0145  0.1409
17145TIP3    H172926   2.997   4.957   4.810  1.1221 -0.4975  1.2125
17145TIP3    H272927   2.924   4.878   4.705 -1.6527  1.3829  1.6137
17146TIP3   OH272928   6.818   5.777  14.099 -0.0694  0.3992  0.0245
17146TIP3    H172929   6.912   5.763  14.102 -0.0572 -0.3060 -1.9583
17146TIP3    H272930   6.804   5.827  14.018 -1.3153  1.3837  0.8032
17147TIP3   OH272931   6.716   3.589  14.884  0.4721 -0.3943 -0.3271
17147TIP3    H172932   6.665   3.624  14.810 -0.7972  0.5893  0.9599
17147TIP3    H272933   6.743   3.667  14.933  2.5673 -0.9553 -0.5181
17148TIP3   OH272934   1.007   2.579  12.004 -0.2766  0.1574 -0.0103
17148TIP3    H172935   0.913   2.579  12.026 -0.2888  0.4487 -0.0502
17148TIP3    H272936   1.037   2.666  12.031 -0.0454  0.1076 -0.1085
17149TIP3   OH272937   4.954   4.369   0.276 -0.1542 -0.0716 -0.4072
17149TIP3    H172938   5.017   4.410   0.335  2.2617 -0.4273 -2.6031
17149TIP3    H272939   4.914   4.441   0.228 -0.7509  0.0769  0.2815
17150TIP3   OH272940   5.018   2.418   2.296  0.4643 -0.3330  0.2933
17150TIP3    H172941   5.048   2.392   2.383  0.8975 -1.2734 -0.1267
17150TIP3    H272942   4.928   2.385   2.291 -0.6823  2.3091  1.4746
17151TIP3   OH272943   1.461   4.210   4.111  0.2461  0.3484  0.0667
17151TIP3    H172944   1.399   4.142   4.138 -0.9686  0.7723 -1.5046
17151TIP3    H272945   1.461   4.206   4.016  2.7782  0.2885 -0.0008
17152TIP3   OH272946   6.452   5.345  15.265 -0.2324  0.0359 -0.1689
17152TIP3    H172947   6.379   5.326  15.206  0.3242 -0.0997 -0.8302
17152TIP3    H272948   6.441   5.437  15.288  1.1216  0.9529 -2.7946
17153TIP3   OH272949   3.927   5.780   3.436 -0.1901 -0.0231  0.1610
17153TIP3    H172950   3.927   5.874   3.419  0.2169 -0.0430  0.0481
17153TIP3    H272951   3.985   5.770   3.513 -1.0334 -0.0673  0.8042
17154TIP3   OH272952   5.396   5.830   2.404 -0.1676  0.6950  0.0480
17154TIP3    H172953   5.462   5.895   2.380  0.3396 -0.1642 -0.9633
17154TIP3    H272954   5.319   5.853   2.353  0.8345 -0.9932 -2.4118
17155TIP3   OH272955   0.770   4.200   5.774  0.5985  0.0595  0.1527
17155TIP3    H172956   0.820   4.201   5.692  0.2123  0.3487 -0.0820
17155TIP3    H272957   0.777   4.290   5.807  0.1256  0.1357  0.0493
17156TIP3   OH272958   4.683   2.374  14.975 -0.6106  0.0602  0.4526
17156TIP3    H172959   4.741   2.349  14.904 -1.9839  1.6706 -1.3389
17156TIP3    H272960   4.614   2.426  14.933 -1.0201  1.8532  3.0615
17157TIP3   OH272961   1.965   0.708  11.784  0.5092  0.3793 -0.6746
17157TIP3    H172962   2.016   0.642  11.831 -0.8094 -0.2297 -0.0617
17157TIP3    H272963   1.929   0.764  11.853  1.1107  1.3876 -1.1546
17158TIP3   OH272964   4.600   4.348  13.533  0.1837  0.0208 -0.1735
17158TIP3    H172965   4.675   4.397  13.565 -0.8135  1.8949 -0.5745
17158TIP3    H272966   4.637   4.287  13.468  1.6793 -1.1168  1.6632
17159TIP3   OH272967   3.756   1.349  17.114 -0.2832 -0.6808 -0.1499
17159TIP3    H172968   3.679   1.298  17.089 -0.0132 -3.0104  3.1224
17159TIP3    H272969   3.756   1.347  17.209  2.9584  0.6945  0.0036
17160TIP3   OH272970   2.429   0.705   5.538 -0.6584  0.1075  0.7507
17160TIP3    H172971   2.419   0.746   5.624 -0.2213 -1.3624  1.5531
17160TIP3    H272972   2.348   0.656   5.525 -0.9231  0.7142  0.0954
17161TIP3   OH272973   4.189   2.603  16.755 -0.0983 -0.1003 -0.4284
17161TIP3    H172974   4.223   2.513  16.754  2.3476  0.7643 -0.4232
17161TIP3    H272975   4.244   2.649  16.817 -0.1165  1.8390 -1.7646
17162TIP3   OH272976   2.557   5.479   4.992 -0.0073 -0.7772 -0.0088
17162TIP3    H172977   2.499   5.544   4.954  2.5989  1.7384  0.0105
17162TIP3    H272978   2.545   5.488   5.086 -0.3254 -0.9913 -0.0288
17163TIP3   OH272979   2.866   2.044   5.155 -0.0929 -0.0185  0.1605
17163TIP3    H172980   2.944   2.097   5.135 -0.5908  0.3790 -0.8050
17163TIP3    H272981   2.830   2.084   5.234 -0.6860  1.3642 -0.7769
17164TIP3   OH272982   4.930   4.526   4.282 -0.0535 -0.0037 -0.6198
17164TIP3    H172983   4.913   4.497   4.372 -1.7844  1.8436 -0.2632
17164TIP3    H272984   5.025   4.530   4.275  0.2000  2.5552  2.1544
17165TIP3   OH272985   0.494   1.719   1.265  0.6605  0.2450  0.0081
17165TIP3    H172986   0.401   1.739   1.271  1.2319  3.0583  1.4482
17165TIP3    H272987   0.532   1.793   1.216  2.1702 -0.7382 -0.3913
17166TIP3   OH272988   1.371   6.263   5.609  0.2509  0.5076  0.0862
17166TIP3    H172989   1.294   6.298   5.654  0.5131 -1.2103  1.9710
17166TIP3    H272990   1.363   6.168   5.617  1.4579  0.2062 -1.6581
17167TIP3   OH272991   2.292   4.345   2.123  0.5565  0.3693  0.1366
17167TIP3    H172992   2.198   4.343   2.107  0.3196  0.0221  1.4299
17167TIP3    H272993   2.309   4.432   2.160  0.3526 -0.2811  1.8781
17168TIP3   OH272994   1.427   1.670   5.176 -0.2500  0.5844  0.6882
17168TIP3    H172995   1.335   1.679   5.150  0.5900  0.6894 -2.8052
17168TIP3    H272996   1.475   1.678   5.094  2.8549 -0.4593  2.2685
17169TIP3   OH272997   2.689   3.933   1.561 -0.8902  0.2145  0.7694
17169TIP3    H172998   2.636   3.866   1.604 -1.0202  1.0661  1.9821
17169TIP3    H272999   2.739   3.973   1.632 -1.3030  1.8365  0.1874
17170TIP3   OH273000   5.766   3.466   2.355  0.5490  0.2350 -0.5025
17170TIP3    H173001   5.786   3.446   2.446 -0.7435  0.7660 -0.0787
17170TIP3    H273002   5.841   3.432   2.306 -0.2930 -3.1942  0.3893
17171TIP3   OH273003   4.961   2.913  14.913  0.2244 -0.1124  0.3107
17171TIP3    H173004   5.028   2.901  14.846 -0.5746 -1.5793 -0.2583
17171TIP3    H273005   4.878   2.906  14.866 -0.3849  2.0711  0.9314
17172TIP3   OH273006   1.595   5.822   5.822 -0.4443 -0.1093 -0.3649
17172TIP3    H173007   1.537   5.747   5.834 -0.7236 -0.0265 -1.1391
17172TIP3    H273008   1.593   5.840   5.728 -2.3212  2.3731  0.0402
17173TIP3   OH273009   1.667   5.611   4.912 -0.2907 -0.4639  0.4053
17173TIP3    H173010   1.745   5.666   4.918  0.4000 -1.1914 -1.3907
17173TIP3    H273011   1.690   5.532   4.961  0.3653 -0.9455 -0.6547
17174TIP3   OH273012   3.674   3.792  12.430 -0.1272 -0.1607  0.0042
17174TIP3    H173013   3.653   3.878  12.394  2.0225  0.3360 -0.2127
17174TIP3    H273014   3.768   3.783  12.417 -0.3258 -2.6725 -0.2085
17175TIP3   OH273015   0.447   3.637  11.411  0.1992 -0.1526 -0.3793
17175TIP3    H173016   0.471   3.717  11.363  1.0101  1.4119  2.3847
17175TIP3    H273017   0.373   3.601  11.362  2.0487  0.1991 -3.7960
17176TIP3   OH273018   1.440   2.056   5.736 -0.9143 -0.0171 -0.3513
17176TIP3    H173019   1.410   2.039   5.647 -1.6464 -0.1192 -0.0976
17176TIP3    H273020   1.535   2.056   5.730 -0.9532 -0.2385 -1.0907
17177TIP3   OH273021   2.501   3.868   3.013  0.1589 -0.6128 -0.0468
17177TIP3    H173022   2.547   3.904   3.089 -0.4583 -0.9851  0.5173
17177TIP3    H273023   2.411   3.899   3.022 -0.3703 -2.1552  0.3934
17178TIP3   OH273024   5.192   2.646  17.107  0.3705 -0.8039 -0.5598
17178TIP3    H173025   5.260   2.698  17.063 -1.3126  1.1835 -0.9722
17178TIP3    H273026   5.241   2.578  17.153  2.7292  1.0434 -0.0971
17179TIP3   OH273027   2.217   5.590  14.777 -0.0519 -0.0075  0.9379
17179TIP3    H173028   2.131   5.556  14.804  0.1575 -0.3807  1.1417
17179TIP3    H273029   2.201   5.683  14.759 -0.5589 -0.1379  0.6923
17180TIP3   OH273030   4.819   1.785  14.775 -0.5366  0.0809 -0.6548
17180TIP3    H173031   4.789   1.871  14.745  1.5747  1.1670  0.1689
17180TIP3    H273032   4.868   1.750  14.701  0.5949  0.6627 -0.2130
17181TIP3   OH273033   1.771   2.841  17.018  0.3002 -0.4470  0.0960
17181TIP3    H173034   1.677   2.850  17.032  0.7905  2.9759  2.5534
17181TIP3    H273035   1.788   2.892  16.939  0.1726 -0.4709  0.0523
17182TIP3   OH273036   1.799   1.056   5.759 -0.5896 -0.3578  0.0728
17182TIP3    H173037   1.720   1.090   5.716 -1.0410 -1.5518 -0.0783
17182TIP3    H273038   1.776   0.966   5.782  0.0647 -0.1070  1.7787
17183TIP3   OH273039   5.178   1.499   0.408  0.3622 -0.0721  0.1680
17183TIP3    H173040   5.192   1.405   0.419  0.2149 -0.0775  0.3085
17183TIP3    H273041   5.111   1.505   0.339 -1.7126 -0.1619  2.0730
17184TIP3   OH273042   2.818   2.375  12.339  0.0848 -0.2190  0.4442
17184TIP3    H173043   2.861   2.297  12.375  0.0680 -0.8867 -0.9017
17184TIP3    H273044   2.785   2.346  12.254 -0.2827  1.1640  0.0955
17185TIP3   OH273045   6.284   6.300  11.189 -0.6699 -0.3033 -0.3416
17185TIP3    H173046   6.328   6.357  11.126 -0.5069 -0.1105 -0.0571
17185TIP3    H273047   6.351   6.282  11.256 -1.3324  0.8773  0.6805
17186TIP3   OH273048   0.379   4.010  15.002 -0.3143  0.7636 -0.5742
17186TIP3    H173049   0.421   3.942  14.949 -0.2518 -0.5364  1.0308
17186TIP3    H273050   0.435   4.087  14.991  0.2249  0.2506 -1.6057
17187TIP3   OH273051   3.848   4.546   2.287  0.6116 -0.6695 -0.1946
17187TIP3    H173052   3.893   4.499   2.217 -2.1207 -1.2580 -1.6907
17187TIP3    H273053   3.852   4.486   2.362  2.8878 -0.3704 -0.0224
17188TIP3   OH273054   3.950   2.768  17.011  0.7486  1.0037 -0.3743
17188TIP3    H173055   3.901   2.748  16.932  0.6246 -1.2531  0.2050
17188TIP3    H273056   3.926   2.858  17.032 -1.6079  0.6390 -1.1959
17189TIP3   OH273057   5.767   4.509  17.287 -0.6113  0.1107 -0.2004
17189TIP3    H173058   5.833   4.559  17.238 -0.0416  0.2526  0.6959
17189TIP3    H273059   5.741   4.568  17.358  0.3591 -0.9991  1.1114
17190TIP3   OH273060   1.486   4.259  13.279  0.1267 -0.2277 -0.0123
17190TIP3    H173061   1.430   4.327  13.242  0.2166  0.7455  1.5673
17190TIP3    H273062   1.486   4.190  13.213 -2.8323 -0.2110 -0.1743
17191TIP3   OH273063   6.280   4.419   6.111 -0.3222 -0.4022 -0.3192
17191TIP3    H173064   6.232   4.423   6.028 -1.1032 -1.4634  0.0585
17191TIP3    H273065   6.212   4.428   6.178  0.3078  0.4751  0.2237
17192TIP3   OH273066   0.195   6.184  14.972  0.4826  0.0979 -0.0365
17192TIP3    H173067   0.182   6.147  15.059  0.4421  1.6112  0.6292
17192TIP3    H273068   0.247   6.118  14.926 -1.6971 -1.9330  0.2174
17193TIP3   OH273069   5.038   0.014  11.735  0.0351 -0.5012  0.1121
17193TIP3    H173070   5.110  -0.043  11.709  1.0032  0.9303 -0.4227
17193TIP3    H273071   4.976   0.009  11.662  0.0134 -1.0265  0.1645
17194TIP3   OH273072   3.282   4.146  14.390  0.1916 -0.1150 -0.4449
17194TIP3    H173073   3.245   4.228  14.357 -0.9340 -1.1502 -1.8525
17194TIP3    H273074   3.352   4.124  14.329 -0.1329 -0.6823 -0.6180
17195TIP3   OH273075   1.702   4.739   5.010 -0.2879 -0.2003 -0.3393
17195TIP3    H173076   1.721   4.733   5.104 -2.0568  1.1134  0.1630
17195TIP3    H273077   1.746   4.819   4.981 -1.3744  0.5045 -0.1298
17196TIP3   OH273078   0.234   3.772   6.288 -0.6618  0.3000 -0.0145
17196TIP3    H173079   0.282   3.818   6.357  0.6962 -0.1631 -0.6143
17196TIP3    H273080   0.142   3.789   6.307 -0.2450  2.1402  0.5612
17197TIP3   OH273081   2.092   1.697   3.969 -0.5720 -0.1556 -0.1145
17197TIP3    H173082   2.075   1.769   4.029  0.5172  1.4085 -1.5702
17197TIP3    H273083   2.078   1.618   4.021  0.8645  1.0927  2.3343
17198TIP3   OH273084   6.059   3.187  14.309 -0.1925 -0.5922  0.5294
17198TIP3    H173085   6.013   3.105  14.326 -0.2319 -0.2810  2.1704
17198TIP3    H273086   6.097   3.210  14.394  1.6744 -0.0332 -0.4044
17199TIP3   OH273087   6.612   2.024   1.800 -0.0579  0.8180 -0.7271
17199TIP3    H173088   6.646   2.098   1.851  1.5135  0.2036 -0.8181
17199TIP3    H273089   6.563   2.066   1.729 -0.2076  1.7446 -0.1005
17200TIP3   OH273090   3.952   4.776  16.242  0.1995  0.0837 -0.6997
17200TIP3    H173091   4.043   4.785  16.213  1.2368 -0.0661  2.2105
17200TIP3    H273092   3.940   4.846  16.306 -0.6319 -1.8902  1.4420
17201TIP3   OH273093   5.133   4.748  14.419  0.1559 -0.0962  0.3985
17201TIP3    H173094   5.159   4.785  14.504  1.8720  0.4823 -0.3260
17201TIP3    H273095   5.044   4.780  14.406 -0.4374 -0.8008  2.2849
17202TIP3   OH273096   0.991   6.817   6.523  0.3813 -0.3216  0.4732
17202TIP3    H173097   0.991   6.834   6.618 -1.2439  0.4741  0.3657
17202TIP3    H273098   0.910   6.857   6.492  0.0344 -2.0423 -0.9996
17203TIP3   OH273099   6.073   1.328  16.245  0.3939 -0.5538 -0.1770
17203TIP3    H173100   6.083   1.416  16.208  1.5135  0.0798  1.5001
17203TIP3    H273101   6.001   1.337  16.308 -0.9806 -1.4267 -1.5643
17204TIP3   OH273102   6.362   0.901   5.385 -0.0071  0.3939  0.3500
17204TIP3    H173103   6.308   0.824   5.401  0.9899 -0.9007 -2.0408
17204TIP3    H273104   6.417   0.877   5.311  0.9136  3.1501  0.0275
17205TIP3   OH273105   5.457   2.662   2.935 -0.3739  0.1869 -0.1580
17205TIP3    H173106   5.459   2.756   2.916 -0.0704  0.3029  0.4293
17205TIP3    H273107   5.402   2.625   2.866  1.2952  0.4849 -1.7500
17206TIP3   OH273108   2.550   5.661   4.332  0.6451  0.0745 -0.0906
17206TIP3    H173109   2.561   5.610   4.412  0.3627 -0.0723 -0.1433
17206TIP3    H273110   2.530   5.750   4.363  0.9226  0.1061  0.0012
17207TIP3   OH273111   3.531   2.097   1.722 -0.6066 -0.4802  0.4962
17207TIP3    H173112   3.478   2.084   1.801  0.3459  1.5058  1.5277
17207TIP3    H273113   3.470   2.082   1.650 -1.8445 -1.0411  1.6217
17208TIP3   OH273114   0.313   2.290   3.109 -0.1507  0.1371  0.3824
17208TIP3    H173115   0.362   2.327   3.182 -0.0423 -0.1381  0.4514
17208TIP3    H273116   0.371   2.299   3.034 -0.3264  0.5687  0.2939
17209TIP3   OH273117   1.271   1.580  11.754  0.0837 -0.1109  0.0878
17209TIP3    H173118   1.313   1.666  11.754  0.9745 -0.5213  0.9446
17209TIP3    H273119   1.342   1.519  11.774 -0.1622 -1.2609 -2.2630
17210TIP3   OH273120   4.173   6.360   6.225  0.0444  0.8817 -0.0141
17210TIP3    H173121   4.193   6.408   6.305 -2.9610  0.2085  1.3025
17210TIP3    H273122   4.077   6.354   6.224  0.0114 -0.0846 -3.1264
17211TIP3   OH273123   2.901   1.008  17.239  0.2008  0.1788  0.1005
17211TIP3    H173124   2.872   0.990  17.149  0.5143 -1.2662  0.2548
17211TIP3    H273125   2.952   1.089  17.232 -1.9910  1.5890 -0.5409
17212TIP3   OH273126   0.943   6.325  11.061  0.1258 -0.0684 -0.4909
17212TIP3    H173127   0.917   6.371  10.981  1.2966  1.2922 -0.1227
17212TIP3    H273128   1.021   6.276  11.036 -0.6810 -1.3188 -0.6801
17213TIP3   OH273129   1.533   3.063  13.375  0.1572  0.2113 -0.0958
17213TIP3    H173130   1.624   3.034  13.366 -0.4714 -1.2961 -2.6735
17213TIP3    H273131   1.499   3.012  13.448  1.0558 -0.1148  0.1130
17214TIP3   OH273132   1.548   0.303   1.279 -0.0804  0.0602  0.2552
17214TIP3    H173133   1.518   0.217   1.248 -1.2215  0.7180 -0.5652
17214TIP3    H273134   1.633   0.315   1.238 -0.2359 -0.3775 -0.2093
17215TIP3   OH273135   5.125   3.373   3.201 -0.1210 -0.1065 -0.7100
17215TIP3    H173136   5.064   3.307   3.167 -0.7951  0.7045 -1.1108
17215TIP3    H273137   5.193   3.322   3.245 -1.3219 -1.0119  0.1489
17216TIP3   OH273138   0.548   2.550  14.772 -0.4093 -0.7386  0.6048
17216TIP3    H173139   0.630   2.526  14.815  0.0182  0.5891  0.5873
17216TIP3    H273140   0.567   2.542  14.678  0.0670  0.6468  0.5718
17217TIP3   OH273141   4.857   0.104  15.544  0.6947  0.4686  0.2736
17217TIP3    H173142   4.818   0.189  15.558  0.1630 -0.1288  2.9158
17217TIP3    H273143   4.783   0.044  15.536  1.0641  0.1339 -0.7854
17218TIP3   OH273144   1.125   2.393   4.007 -0.0461 -0.2314  0.8150
17218TIP3    H173145   1.115   2.409   3.913 -0.4729 -0.2104  0.8604
17218TIP3    H273146   1.160   2.474   4.042 -2.0715  0.5948  1.0264
17219TIP3   OH273147   0.471   1.485   3.054 -0.3949 -0.3520  0.6081
17219TIP3    H173148   0.540   1.548   3.033 -0.8092  0.7143  2.1994
17219TIP3    H273149   0.415   1.484   2.976  0.6244 -0.1574 -0.1473
17220TIP3   OH273150   4.409   1.989   5.925 -0.1907  0.3275  0.5331
17220TIP3    H173151   4.380   1.986   5.834  2.3804 -0.1645 -0.3455
17220TIP3    H273152   4.418   1.897   5.950  1.4341  0.4417  0.4434
17221TIP3   OH273153   3.717   0.447  17.019 -0.0564  0.1737 -0.8191
17221TIP3    H173154   3.755   0.414  16.937 -0.6345 -1.7052 -0.3827
17221TIP3    H273155   3.709   0.369  17.074  0.9177  1.4742  1.2959
17222TIP3   OH273156   1.689   5.709  12.120  0.4512 -0.4845 -0.3085
17222TIP3    H173157   1.666   5.672  12.206  1.3787 -0.8671 -0.2231
17222TIP3    H273158   1.661   5.643  12.057 -0.2324 -0.2028 -0.3118
17223TIP3   OH273159   6.476   2.314   4.630 -0.3438 -0.2393  0.0595
17223TIP3    H173160   6.550   2.255   4.616 -0.3090  0.1104 -1.4287
17223TIP3    H273161   6.433   2.319   4.544 -1.0566  0.9383  0.4611
17224TIP3   OH273162   4.458   6.600  10.868  0.1403  0.0252  0.2532
17224TIP3    H173163   4.526   6.656  10.830 -0.8163  0.9224 -0.1957
17224TIP3    H273164   4.506   6.536  10.921  1.3851 -0.0942 -0.9818
17225TIP3   OH273165   3.677   1.013   0.840 -0.1169  0.1036 -0.5114
17225TIP3    H173166   3.712   0.996   0.928  0.2306  1.0567 -0.4491
17225TIP3    H273167   3.733   0.961   0.782  1.3740  1.4863 -0.3984
17226TIP3   OH273168   4.440   4.907  13.197 -0.0504 -0.0297 -0.6458
17226TIP3    H173169   4.429   4.821  13.237  0.3290 -0.2053 -0.9166
17226TIP3    H273170   4.495   4.955  13.258 -0.3997  0.0750 -0.4149
17227TIP3   OH273171   0.549   4.433   3.213 -0.6322 -0.1551  0.4348
17227TIP3    H173172   0.548   4.369   3.142 -0.7867  1.3106 -0.9422
17227TIP3    H273173   0.457   4.441   3.238 -0.7173  0.1199  0.0436
17228TIP3   OH273174   6.692   2.840  15.015 -0.5240  0.0632  0.1401
17228TIP3    H173175   6.760   2.874  14.957 -0.0931  1.5203  1.4362
17228TIP3    H273176   6.611   2.879  14.982 -0.5476 -0.5492 -0.5484
17229TIP3   OH273177   6.779   2.660  11.892 -0.1251  0.1992  0.5671
17229TIP3    H173178   6.742   2.590  11.839 -0.7625  1.0547 -0.1531
17229TIP3    H273179   6.865   2.676  11.855 -0.2029  0.1708  0.3727
17230TIP3   OH273180   1.904   6.064   5.948 -0.1902 -0.2307  0.5987
17230TIP3    H173181   1.819   6.033   5.977  0.3436 -0.5371  1.8713
17230TIP3    H273182   1.907   6.155   5.977 -1.2116  0.7162 -1.9631
17231TIP3   OH273183   5.886   4.572  13.129  0.2582 -0.7832 -0.3766
17231TIP3    H173184   5.958   4.513  13.151  1.4307  0.8261  0.3250
17231TIP3    H273185   5.928   4.658  13.120 -1.7289  0.4545  1.3104
17232TIP3   OH273186   4.910   4.025  16.897  0.1688 -0.1741 -0.0470
17232TIP3    H173187   4.955   4.021  16.981  1.3380  0.5390 -0.6081
17232TIP3    H273188   4.868   4.111  16.895  0.6896  0.0776 -0.4468
17233TIP3   OH273189   6.065   5.360   2.764  0.0103 -0.0623  0.0859
17233TIP3    H173190   6.024   5.348   2.850 -0.9960 -2.4920 -0.6741
17233TIP3    H273191   6.086   5.272   2.734  0.4753  0.7381 -2.1286
17234TIP3   OH273192   3.407   5.608  14.596 -0.0597  0.0480 -0.0221
17234TIP3    H173193   3.316   5.579  14.602  0.1456 -0.2680  1.9994
17234TIP3    H273194   3.458   5.537  14.634  0.8713  0.9957  0.5460
17235TIP3   OH273195   4.967   5.990   6.496  0.4619  0.3846  0.1751
17235TIP3    H173196   4.968   5.906   6.450  0.7848  1.1158 -1.1794
17235TIP3    H273197   5.058   6.018   6.497  0.2251  1.2145 -0.3271
17236TIP3   OH273198   1.893   5.441   1.486 -0.3409 -0.5004  0.1374
17236TIP3    H173199   1.806   5.404   1.499 -0.3828 -0.7663 -0.8807
17236TIP3    H273200   1.927   5.452   1.575 -1.2826 -0.6883  0.5335
17237TIP3   OH273201   6.818   6.548   6.716  0.0840  0.4231  0.8622
17237TIP3    H173202   6.751   6.611   6.691  0.4392  0.2944 -0.5012
17237TIP3    H273203   6.850   6.579   6.801 -1.9021  0.3007  1.7073
17238TIP3   OH273204   6.537   4.210   3.008 -0.4254  0.3897 -0.4735
17238TIP3    H173205   6.565   4.264   3.082  1.7901 -0.7035 -0.4304
17238TIP3    H273206   6.442   4.205   3.017 -0.4551  2.2176  0.9157
17239TIP3   OH273207   1.030   1.217  12.257 -0.1260  0.0140  0.4866
17239TIP3    H173208   1.023   1.142  12.198  0.1783  0.0801  0.3622
17239TIP3    H273209   1.125   1.227  12.270  0.1606  2.5789 -2.3617
17240TIP3   OH273210   1.052   1.400  12.767  0.0760 -0.0611 -0.1682
17240TIP3    H173211   1.024   1.473  12.711 -2.6904 -1.9525 -1.4585
17240TIP3    H273212   1.116   1.439  12.827 -0.6237  3.1968 -1.3373
17241TIP3   OH273213   1.522   5.214   4.541  0.1534 -0.4207 -0.0931
17241TIP3    H173214   1.544   5.258   4.623 -1.7102 -0.2998  0.3749
17241TIP3    H273215   1.591   5.149   4.530  0.8466  0.0520  1.1695
17242TIP3   OH273216   6.353   1.226  14.893 -0.6326 -0.0247 -0.4533
17242TIP3    H173217   6.356   1.292  14.824  2.4238  0.5365  0.0334
17242TIP3    H273218   6.415   1.158  14.863 -1.2002 -1.0285  0.5738
17243TIP3   OH273219   0.142   1.124   2.987 -0.1974  0.6455  0.5383
17243TIP3    H173220   0.177   1.100   2.901 -0.9419  0.1946  0.3520
17243TIP3    H273221   0.145   1.042   3.037  0.4974  0.9692  1.0418
17244TIP3   OH273222   4.842   5.498  15.951  0.3837 -0.6040 -0.1450
17244TIP3    H173223   4.749   5.519  15.943  0.3992 -0.5346 -0.1476
17244TIP3    H273224   4.850   5.458  16.038  0.7904  1.8771  1.0625
17245TIP3   OH273225   4.895   1.580  14.022  0.1715  0.1007 -0.0712
17245TIP3    H173226   4.830   1.649  14.010 -2.5409 -2.1620  0.6609
17245TIP3    H273227   4.879   1.546  14.110  2.5487 -0.4126  0.2349
17246TIP3   OH273228   6.824   6.021  14.332  0.5818 -0.0069  0.3261
17246TIP3    H173229   6.747   6.006  14.277  1.9860  0.0874 -1.7511
17246TIP3    H273230   6.825   6.116  14.346  1.1920  0.1961 -1.0082
17247TIP3   OH273231   0.199   4.913   5.644  0.0358  0.1340 -0.2824
17247TIP3    H173232   0.278   4.967   5.647 -1.0944  1.9039 -1.0088
17247TIP3    H273233   0.214   4.846   5.712  3.1621 -1.1228 -1.9886
17248TIP3   OH273234   2.662   1.141  13.286  0.4527  0.1280 -0.9567
17248TIP3    H173235   2.617   1.138  13.201 -0.0266  0.6203 -0.7249
17248TIP3    H273236   2.631   1.063  13.332  1.5588 -0.7428 -1.6419
17249TIP3   OH273237   4.215   6.072  13.555 -0.3287  0.1019 -0.2416
17249TIP3    H173238   4.278   6.020  13.505 -0.9576  0.2997 -1.2704
17249TIP3    H273239   4.223   6.160  13.520 -1.5422  0.0249 -0.7810
17250TIP3   OH273240   4.375   0.202   5.815  1.0955  0.0879 -0.5748
17250TIP3    H173241   4.373   0.292   5.849 -0.3092  1.0464 -2.8843
17250TIP3    H273242   4.294   0.163   5.848  2.6163 -1.0648  2.0191
17251TIP3   OH273243   5.679   3.363   0.930  0.5906  0.1648 -0.0135
17251TIP3    H173244   5.644   3.298   0.869  0.0430  0.4753 -0.0418
17251TIP3    H273245   5.635   3.344   1.013 -0.3878  1.1506 -0.2821
17252TIP3   OH273246   6.798   1.100   0.839 -0.0068 -0.1017 -0.4929
17252TIP3    H173247   6.714   1.129   0.802  0.0717  0.0803 -0.5306
17252TIP3    H273248   6.784   1.099   0.933  1.0640  3.6869 -0.1298
17253TIP3   OH273249   0.423   5.885   0.169 -0.1414  0.3367 -0.3195
17253TIP3    H173250   0.487   5.916   0.234 -1.7118  0.1655  1.3997
17253TIP3    H273251   0.475   5.868   0.090  1.6670  1.6772  0.5151
17254TIP3   OH273252   2.191   3.984  11.876  0.9845  0.3758  0.1557
17254TIP3    H173253   2.177   3.898  11.835  1.2583  0.9919 -1.2947
17254TIP3    H273254   2.286   3.992  11.883  0.9434  0.1933  1.1712
17255TIP3   OH273255   3.577   0.083  16.162 -0.3377  0.0279  0.3135
17255TIP3    H173256   3.609   0.051  16.077  1.8014  0.6979  0.8099
17255TIP3    H273257   3.652   0.129  16.200 -1.3451  0.0192  2.4407
17256TIP3   OH273258   6.714   1.078   4.355  0.0947  0.0474 -0.3587
17256TIP3    H173259   6.647   1.055   4.291 -1.7254 -1.2373  1.8520
17256TIP3    H273260   6.667   1.083   4.438  2.3133  1.7803  0.9087
17257TIP3   OH273261   3.995   1.646   5.382 -0.0701  0.3978  0.4879
17257TIP3    H173262   3.999   1.550   5.377  0.7186  0.4600 -0.1730
17257TIP3    H273263   4.063   1.669   5.445 -0.7521  0.4936  1.2127
17258TIP3   OH273264   1.870   6.011   1.954 -0.7829  0.0586 -0.0228
17258TIP3    H173265   1.884   6.080   2.020 -1.7722  0.0721  0.1936
17258TIP3    H273266   1.856   6.059   1.872  0.6697  0.0372 -0.3175
17259TIP3   OH273267   6.289   2.924  16.329  0.4734  0.0828 -0.3108
17259TIP3    H173268   6.269   2.894  16.418 -2.0936 -0.1620 -0.9059
17259TIP3    H273269   6.371   2.973  16.339 -0.2345  0.9223  2.3806
17260TIP3   OH273270   3.071   0.816   0.880 -0.4703  0.2711  0.4744
17260TIP3    H173271   3.054   0.792   0.789 -3.5813 -0.3213  1.0865
17260TIP3    H273272   3.076   0.912   0.879  0.5450  0.2255 -0.4291
17261TIP3   OH273273   5.390   3.333   6.476 -0.5937 -0.1665 -0.1006
17261TIP3    H173274   5.387   3.273   6.550 -1.3139 -0.5943 -0.4587
17261TIP3    H273275   5.298   3.353   6.458 -0.4275 -0.0055 -0.8130
17262TIP3   OH273276   3.396   2.298  14.458  0.0144 -0.2314 -0.8636
17262TIP3    H173277   3.331   2.240  14.419  1.1507 -1.6869 -0.6797
17262TIP3    H273278   3.479   2.251  14.449  0.7878  0.8029  0.4332
17263TIP3   OH273279   1.935   1.929  15.252  0.0798  0.0964  0.5159
17263TIP3    H173280   1.879   1.948  15.327  0.1954  0.6967  0.4533
17263TIP3    H273281   1.876   1.933  15.177  0.3627  1.6449  0.3498
17264TIP3   OH273282   6.551   2.152  17.120  0.2659  0.3804 -0.1967
17264TIP3    H173283   6.456   2.161  17.132  0.5361  1.2279  1.6003
17264TIP3    H273284   6.571   2.065  17.156  0.5223  1.3483  2.1555
17265TIP3   OH273285   6.694   3.356  16.913  0.1096 -0.0563  0.5684
17265TIP3    H173286   6.654   3.363  17.000 -1.0240 -1.0719  0.1631
17265TIP3    H273287   6.674   3.266  16.885  0.7286  0.1565 -0.6118
17266TIP3   OH273288   4.345   1.435   0.859  0.6439  0.1517  0.2636
17266TIP3    H173289   4.401   1.433   0.781 -0.8359 -1.1963 -0.8260
17266TIP3    H273290   4.258   1.414   0.826  0.1250 -1.3274  2.4166
17267TIP3   OH273291   3.834   6.404  13.875  0.3611 -0.0954 -0.0713
17267TIP3    H173292   3.823   6.311  13.853 -0.7647  0.1387 -0.5814
17267TIP3    H273293   3.765   6.448  13.826  0.5251  0.9549  0.6133
17268TIP3   OH273294   0.689   1.073  15.724  0.4608 -0.2727  0.4560
17268TIP3    H173295   0.709   1.166  15.712 -0.9599  0.0260  0.2310
17268TIP3    H273296   0.605   1.060  15.679  1.6476 -2.1528 -1.4584
17269TIP3   OH273297   4.153   3.000  14.421 -0.5553  0.1821 -0.0656
17269TIP3    H173298   4.126   2.946  14.496 -0.1507 -0.9398 -0.6908
17269TIP3    H273299   4.110   2.958  14.346  1.2152 -0.3958 -0.8080
17270TIP3   OH273300   0.003   1.300   1.590  0.4334  0.6262 -0.1720
17270TIP3    H173301   0.042   1.350   1.518  0.2913  1.2528  0.1738
17270TIP3    H273302  -0.070   1.355   1.619  0.8169  0.6368  0.7930
17271TIP3   OH273303   4.074   4.751   1.865  0.3848 -0.4857 -0.0437
17271TIP3    H173304   4.046   4.768   1.775 -1.0348 -0.2809  0.4129
17271TIP3    H273305   4.000   4.706   1.905 -0.0741  1.6876  1.7401
17272TIP3   OH273306   5.743   1.638  17.105  0.0569  0.1124 -0.3683
17272TIP3    H173307   5.694   1.662  17.184 -2.5963  0.9716 -2.1510
17272TIP3    H273308   5.786   1.719  17.079  0.3564  0.0098 -0.1936
17273TIP3   OH273309   5.572   0.456   0.296 -0.4801 -0.0699 -0.0355
17273TIP3    H173310   5.664   0.459   0.322  0.0973  1.4152 -2.0139
17273TIP3    H273311   5.539   0.544   0.315 -1.5360 -0.5909  0.6676
17274TIP3   OH273312   2.168   6.228  16.646 -0.0228 -0.4175 -0.0468
17274TIP3    H173313   2.102   6.288  16.610  0.1889  0.4218  0.9134
17274TIP3    H273314   2.140   6.213  16.736 -0.1367 -1.8961 -0.3051
17275TIP3   OH273315   4.326   0.151   1.336  0.1316 -0.2357  0.8772
17275TIP3    H173316   4.356   0.228   1.385  0.9948  0.2715 -0.3899
17275TIP3    H273317   4.382   0.149   1.259 -0.6270 -1.5103  0.3324
17276TIP3   OH273318   3.125   6.581   0.756 -0.4250 -0.2238 -0.1033
17276TIP3    H173319   3.115   6.487   0.746 -1.2023  0.0262 -1.9363
17276TIP3    H273320   3.038   6.617   0.740  0.3521  0.9672 -1.9585
17277TIP3   OH273321   5.940   4.764  12.825 -0.0516 -0.5660  0.1912
17277TIP3    H173322   5.918   4.778  12.917 -1.9179  1.8560 -0.5161
17277TIP3    H273323   5.856   4.758  12.781  0.5954  2.7105 -1.8522
17278TIP3   OH273324   3.317   4.839  14.442  0.0330 -0.3795 -0.0053
17278TIP3    H173325   3.307   4.794  14.526  3.1287  0.2929  0.8393
17278TIP3    H273326   3.258   4.914  14.448 -0.5984 -0.9411  1.0915
17279TIP3   OH273327   0.687   0.269  12.495 -0.4244 -0.2153 -0.2713
17279TIP3    H173328   0.604   0.248  12.537 -0.3321 -0.4932 -0.2266
17279TIP3    H273329   0.682   0.225  12.410  0.2961 -1.5290  0.3231
17280TIP3   OH273330   1.570   0.463  15.508 -0.4335  0.3401  0.1021
17280TIP3    H173331   1.572   0.379  15.553  0.3807 -0.2135 -0.8989
17280TIP3    H273332   1.605   0.526  15.571  2.2539 -0.6861 -0.1957
17281TIP3   OH273333   2.135   1.186   3.120 -0.3208  0.2678 -0.0728
17281TIP3    H173334   2.140   1.157   3.029  0.7736  1.1437 -0.3103
17281TIP3    H273335   2.073   1.259   3.119  0.1595  0.6783 -0.2339
17282TIP3   OH273336   4.895   5.467  14.125  0.3982  0.1892 -0.7308
17282TIP3    H173337   4.920   5.494  14.214  0.4891 -0.8981 -0.4129
17282TIP3    H273338   4.801   5.481  14.121  0.4243  0.4311 -0.5336
17283TIP3   OH273339   2.266   3.955  11.082 -0.3877 -0.0252 -0.0419
17283TIP3    H173340   2.273   3.885  11.017  0.4907 -0.1110  0.1406
17283TIP3    H273341   2.187   3.933  11.132 -0.6038 -0.4100 -0.5401
17284TIP3   OH273342   4.102   2.406  13.793  0.0355  0.0572 -0.1335
17284TIP3    H173343   4.098   2.329  13.850 -1.4566 -1.7795 -2.4729
17284TIP3    H273344   4.010   2.427  13.775  0.3675 -0.6636 -3.2374
17285TIP3   OH273345   3.166   2.888  16.698  0.0531  0.3349 -0.0904
17285TIP3    H173346   3.168   2.837  16.617  0.0929  0.5630 -0.2355
17285TIP3    H273347   3.254   2.876  16.735 -0.1495 -0.2274  0.2098
17286TIP3   OH273348   3.038   0.182   0.389  0.1410 -0.4699  0.3985
17286TIP3    H173349   2.999   0.158   0.473 -0.7396 -2.1182 -0.4204
17286TIP3    H273350   3.074   0.099   0.355  2.0960  0.5087 -0.0549
17287TIP3   OH273351   4.994   4.950  11.346  0.1214 -0.8267 -0.1480
17287TIP3    H173352   4.958   5.012  11.409  2.0104 -1.0945  1.2865
17287TIP3    H273353   4.932   4.950  11.274 -0.3338  2.1544  0.1299
17288TIP3   OH273354   4.091   5.185  16.771  0.5570 -0.2669 -0.1580
17288TIP3    H173355   4.152   5.236  16.826 -0.1222 -0.9563  1.2988
17288TIP3    H273356   4.138   5.171  16.689  2.4363 -0.8818  0.9665
17289TIP3   OH273357   6.254   0.772  13.225  0.1760  0.4956  0.1393
17289TIP3    H173358   6.226   0.848  13.275  0.3677 -0.0548  1.0983
17289TIP3    H273359   6.228   0.792  13.135 -1.4608  0.8796  0.6716
17290TIP3   OH273360   3.695   1.367   5.526 -0.8025  0.0264  0.4602
17290TIP3    H173361   3.652   1.282   5.516 -2.0695  0.8111 -1.1827
17290TIP3    H273362   3.645   1.412   5.594 -0.5956 -0.2510  0.7982
17291TIP3   OH273363   5.769   4.354  17.049  0.0504 -0.0456  0.0198
17291TIP3    H173364   5.791   4.426  16.990  0.3948  0.0491  0.2559
17291TIP3    H273365   5.750   4.397  17.133 -2.3261 -0.0055 -0.4694
17292TIP3   OH273366   1.479   2.090   5.425 -0.1567  0.3891  0.1217
17292TIP3    H173367   1.396   2.052   5.452 -0.1446  0.5935  0.4496
17292TIP3    H273368   1.484   2.071   5.331 -1.0040  1.1745 -0.0985
17293TIP3   OH273369   4.347   3.668  15.215 -0.5833 -0.2971  0.6343
17293TIP3    H173370   4.274   3.695  15.271 -2.2558  2.5458 -2.5554
17293TIP3    H273371   4.405   3.744  15.211 -0.9089 -0.0918 -1.9369
17294TIP3   OH273372   2.844   1.259  10.920 -0.2285  0.1547  1.1529
17294TIP3    H173373   2.755   1.276  10.887  0.1955 -0.2489 -0.3041
17294TIP3    H273374   2.895   1.334  10.890  0.2766 -0.4643  0.4037
17295TIP3   OH273375   5.811   3.801  10.920  0.2403 -0.3514 -0.1235
17295TIP3    H173376   5.756   3.832  10.993 -0.4877 -0.3800 -0.6497
17295TIP3    H273377   5.755   3.740  10.873  0.3663  0.3742 -1.2535
17296TIP3   OH273378   4.178   3.679  12.234 -1.0806 -0.3873  0.2104
17296TIP3    H173379   4.219   3.765  12.235 -1.3461 -0.2552  1.2193
17296TIP3    H273380   4.203   3.640  12.150  0.3327  0.0412  0.4213
17297TIP3   OH273381   0.220   2.082  13.314  0.0576  0.5055  0.2795
17297TIP3    H173382   0.289   2.069  13.378 -0.1768 -2.5351  0.0724
17297TIP3    H273383   0.167   2.153  13.349  1.4407  0.7267  2.0602
17298TIP3   OH273384   0.241   5.782  13.395 -0.1880 -0.3913 -0.1378
17298TIP3    H173385   0.179   5.742  13.456  0.5616 -1.7763 -0.2622
17298TIP3    H273386   0.232   5.876  13.412 -1.7044 -0.6022  0.4275
17299TIP3   OH273387   4.918   6.106   4.093 -0.0030  0.2438 -1.0324
17299TIP3    H173388   4.969   6.183   4.120  1.2378 -0.9834  0.3127
17299TIP3    H273389   4.937   6.097   4.000  2.9083 -0.5299 -0.4791
17300TIP3   OH273390   1.261   2.173  13.890  0.3715 -0.5551  0.2383
17300TIP3    H173391   1.280   2.112  13.819  1.1442  1.8144 -1.7098
17300TIP3    H273392   1.343   2.220  13.905  0.3456 -1.2215  3.0381
17301TIP3   OH273393   4.107   5.290   5.685  0.3873  0.4000  0.0090
17301TIP3    H173394   4.101   5.200   5.718  0.7019  0.7333  1.0234
17301TIP3    H273395   4.127   5.342   5.763  0.4642  1.3172 -0.6142
17302TIP3   OH273396   6.665   4.581   5.955  0.1645 -0.8442 -0.3386
17302TIP3    H173397   6.693   4.667   5.927  1.3389 -1.2943 -0.5919
17302TIP3    H273398   6.618   4.545   5.880 -1.2509 -0.0467  0.1254
17303TIP3   OH273399   2.951   3.988   4.294  0.8944 -0.9455  0.4191
17303TIP3    H173400   2.901   4.035   4.360  1.1019  0.9534 -0.7059
17303TIP3    H273401   2.885   3.946   4.239  0.6106 -0.1173  0.1233
17304TIP3   OH273402   6.491   5.523  11.933 -0.1680 -0.0520  0.5165
17304TIP3    H173403   6.570   5.509  11.985  0.8504 -1.4095 -1.2822
17304TIP3    H273404   6.425   5.467  11.973  1.3651 -3.3270 -1.1511
17305TIP3   OH273405   4.420   2.735   1.217  0.4055 -0.2231 -0.0211
17305TIP3    H173406   4.395   2.786   1.294  1.7045 -0.7209  0.7638
17305TIP3    H273407   4.376   2.651   1.228  1.2087 -0.5706  0.5902
17306TIP3   OH273408   0.523   4.585  12.342  0.5096 -0.2240  0.4554
17306TIP3    H173409   0.443   4.612  12.297  0.6433  1.2156  0.9983
17306TIP3    H273410   0.503   4.499  12.378 -0.1915 -0.6345 -0.8513
17307TIP3   OH273411   1.009   3.010  17.144 -0.4536 -0.7851  0.0526
17307TIP3    H173412   1.073   3.029  17.213  0.5843  0.0596 -1.0856
17307TIP3    H273413   1.026   2.919  17.120  0.2628 -0.6017 -0.1579
17308TIP3   OH273414   6.541   3.171   5.141 -1.0393 -0.1804  0.2280
17308TIP3    H173415   6.611   3.235   5.136 -0.7215 -0.5587 -0.3358
17308TIP3    H273416   6.545   3.137   5.231  0.3893 -1.1664 -0.1698
17309TIP3   OH273417   2.042   3.114   0.933 -0.3397 -0.0329  0.0840
17309TIP3    H173418   2.052   3.023   0.907 -1.5843 -0.7534  1.9228
17309TIP3    H273419   2.104   3.125   1.006 -0.6541  0.4066  0.2898
17310TIP3   OH273420   4.424   1.598  13.013 -0.3564  0.6865 -0.0878
17310TIP3    H173421   4.515   1.594  12.981 -0.1940  2.1153  0.1034
17310TIP3    H273422   4.371   1.603  12.933 -0.1337  1.4735 -0.2035
17311TIP3   OH273423   1.021   0.697  13.069  0.0592 -0.6100 -0.2764
17311TIP3    H173424   1.026   0.785  13.106  0.0986 -0.7141 -0.0251
17311TIP3    H273425   1.028   0.639  13.146 -0.5199 -0.8240 -0.3771
17312TIP3   OH273426   2.109   2.215   4.837 -0.2513 -0.4673 -0.1295
17312TIP3    H173427   2.200   2.241   4.849 -0.1446 -1.0400  0.3505
17312TIP3    H273428   2.084   2.252   4.753  0.4260 -0.3144 -0.2652
17313TIP3   OH273429   3.663   2.150  10.938  0.1031  0.4052 -0.8855
17313TIP3    H173430   3.681   2.232  10.891 -0.0420  0.6897 -0.4475
17313TIP3    H273431   3.615   2.097  10.874 -3.2994  2.1498 -0.0157
17314TIP3   OH273432   0.942   6.814  12.436  0.2384  0.2557  0.1246
17314TIP3    H173433   0.930   6.735  12.383 -1.1332  0.7078 -0.2857
17314TIP3    H273434   0.903   6.792  12.521  0.0717  0.4011  0.0869
17315TIP3   OH273435   1.157   0.978  13.911  0.5369 -0.1837  0.2144
17315TIP3    H173436   1.206   1.061  13.908 -2.3625  1.6542 -0.8091
17315TIP3    H273437   1.168   0.947  14.000  2.6729  0.6412  0.2994
17316TIP3   OH273438   2.512   4.171   6.437 -0.0371  0.4031  0.5325
17316TIP3    H173439   2.426   4.195   6.471 -0.2503 -0.2196  0.4338
17316TIP3    H273440   2.545   4.251   6.396 -0.2656  0.8417  1.1970
17317TIP3   OH273441   4.101   5.098  17.071  0.3132  0.3114 -0.2318
17317TIP3    H173442   4.177   5.149  17.044 -0.5208  1.8943  0.3385
17317TIP3    H273443   4.027   5.141  17.030 -0.5597  0.4181  1.3958
17318TIP3   OH273444   4.981   4.577   0.067  0.1650 -0.3725 -0.4414
17318TIP3    H173445   5.057   4.606   0.016 -0.4718 -1.1909 -1.9140
17318TIP3    H273446   4.908   4.627   0.031 -0.7363 -2.7496 -2.1372
17319TIP3   OH273447   0.199   2.425  10.842 -0.0567 -0.4589 -0.0657
17319TIP3    H173448   0.273   2.482  10.863 -1.0466  0.7691  0.1863
17319TIP3    H273449   0.216   2.344  10.890 -0.1658  0.7608  2.1438
17320TIP3   OH273450   0.311   3.239   3.875 -1.1519  0.6217  0.3785
17320TIP3    H173451   0.344   3.167   3.822  2.3688  3.3402 -1.5843
17320TIP3    H273452   0.225   3.259   3.837 -1.5100 -1.4737 -0.0269
17321TIP3   OH273453   5.833   1.840  11.428 -0.0940 -0.6717 -0.1111
17321TIP3    H173454   5.886   1.779  11.479  0.8738  0.3704  0.1586
17321TIP3    H273455   5.746   1.835  11.467 -0.3262 -2.6233 -0.7442
17322TIP3   OH273456   4.986   0.882  11.574  0.3585  0.0008 -0.2660
17322TIP3    H173457   4.938   0.809  11.536  0.5515 -0.5605  0.5253
17322TIP3    H273458   5.074   0.874  11.537 -0.2599  1.4093 -2.2178
17323TIP3   OH273459   4.915   6.433   6.440 -0.1018  0.3845 -0.8673
17323TIP3    H173460   4.914   6.528   6.431  0.8194  0.2951 -2.2289
17323TIP3    H273461   4.992   6.405   6.391  1.5767 -0.8382  2.1900
17324TIP3   OH273462   5.017   2.168  15.670  0.0138 -0.5483 -0.3428
17324TIP3    H173463   5.090   2.221  15.637 -0.7905 -0.1889 -1.5805
17324TIP3    H273464   5.019   2.183  15.765 -0.6597  2.3916 -0.6964
17325TIP3   OH273465   4.120   6.741   5.374  0.4655 -0.4412 -0.7496
17325TIP3    H173466   4.093   6.788   5.295  0.5193  1.0394  0.0872
17325TIP3    H273467   4.039   6.708   5.411  0.2256  0.4902 -0.4251
17326TIP3   OH273468   4.502   0.384   0.629 -0.5308  0.6803 -0.1201
17326TIP3    H173469   4.524   0.371   0.721  2.9427 -1.5318 -1.0799
17326TIP3    H273470   4.502   0.479   0.618  0.1336  0.9708  1.9125
17327TIP3   OH273471   0.122   1.198   4.100  0.6912 -0.0342 -0.7266
17327TIP3    H173472   0.157   1.178   4.186 -0.6154 -1.8991 -0.5626
17327TIP3    H273473   0.191   1.248   4.057  1.6998  0.2338  1.0927
17328TIP3   OH273474   0.174   0.032  12.493 -0.0868  0.1442  0.5314
17328TIP3    H173475   0.110   0.005  12.558 -0.9665 -1.7181 -0.9941
17328TIP3    H273476   0.121   0.066  12.420  0.5437 -1.9545 -0.9911
17329TIP3   OH273477   5.840   1.361  11.459 -0.3130 -0.0649 -0.1546
17329TIP3    H173478   5.837   1.313  11.376 -0.0695  1.0616 -0.8309
17329TIP3    H273479   5.868   1.449  11.435  0.2856  0.1374  1.1974
17330TIP3   OH273480   4.697   2.783  14.466  0.5614 -0.3118 -0.3642
17330TIP3    H173481   4.652   2.862  14.495  0.0203 -0.8074  0.1738
17330TIP3    H273482   4.752   2.812  14.393 -1.0205  0.2165 -1.4096
17331TIP3   OH273483   1.759   6.362  13.781  0.0770  0.5245 -0.5210
17331TIP3    H173484   1.789   6.272  13.792  0.9506  0.9790  1.0530
17331TIP3    H273485   1.772   6.380  13.688 -1.2663 -1.3442 -1.1505
17332TIP3   OH273486   1.184   2.749   6.521 -0.3866  0.4677 -0.4423
17332TIP3    H173487   1.202   2.663   6.559  0.6277  1.4632  1.4594
17332TIP3    H273488   1.222   2.745   6.433  0.2372 -0.8084 -0.1375
17333TIP3   OH273489   0.859   6.707   0.799  0.0133 -0.0518 -0.1631
17333TIP3    H173490   0.861   6.737   0.890  0.6653  2.7922 -1.0375
17333TIP3    H273491   0.913   6.627   0.800  1.2686  0.7477  1.6970
17334TIP3   OH273492   5.165   4.926  16.116  0.5027 -0.1522  0.2619
17334TIP3    H173493   5.088   4.975  16.088  0.8669  1.1881  1.4876
17334TIP3    H273494   5.215   4.912  16.036 -0.1633  0.4973 -0.2775
17335TIP3   OH273495   6.774   5.817  17.218 -0.8387 -0.1608 -0.7020
17335TIP3    H173496   6.771   5.785  17.128 -2.2381 -0.5658 -0.5384
17335TIP3    H273497   6.792   5.911  17.210 -2.5314  0.1345 -1.5161
17336TIP3   OH273498   2.516   2.435  14.047  0.4183 -0.3265  0.1246
17336TIP3    H173499   2.534   2.349  14.011  1.5451 -0.2349  0.4087
17336TIP3    H273500   2.576   2.442  14.122  0.8601  0.9745 -0.3259
17337TIP3   OH273501   3.148   2.399  14.977 -0.1510  0.7067  0.4823
17337TIP3    H173502   3.192   2.395  14.892  0.8397 -0.3214  1.0071
17337TIP3    H273503   3.142   2.492  14.997 -1.1593  1.0094 -1.0790
17338TIP3   OH273504   6.458   1.772  16.492 -0.4619 -0.0133  0.1231
17338TIP3    H173505   6.498   1.708  16.551 -1.3632 -1.9525 -1.2695
17338TIP3    H273506   6.380   1.802  16.539  0.4496  0.7856  1.1653
17339TIP3   OH273507   3.788   4.276  17.195  0.0338  0.6392 -0.2327
17339TIP3    H173508   3.701   4.243  17.175  0.1302  0.1134  0.1952
17339TIP3    H273509   3.812   4.328  17.118 -1.1350  1.7947  0.1449
17340TIP3   OH273510   0.540   5.267  12.073  0.3581  0.9139  0.3490
17340TIP3    H173511   0.614   5.261  12.012 -1.6621 -0.7123 -2.1057
17340TIP3    H273512   0.493   5.345  12.046 -0.9305 -0.1892 -0.7506
17341TIP3   OH273513   5.592   3.539  16.044  0.1724  0.1203 -0.0254
17341TIP3    H173514   5.539   3.597  15.989  1.3936  0.5550 -0.7795
17341TIP3    H273515   5.681   3.573  16.038  1.2451 -2.5990 -1.6539
17342TIP3   OH273516   3.161   2.271  14.672 -0.2367 -0.2838  0.1557
17342TIP3    H173517   3.181   2.330  14.598  0.8967 -0.3095  0.4254
17342TIP3    H273518   3.077   2.231  14.648 -1.3152  1.8089  0.1946
17343TIP3   OH273519   4.981   5.256   5.408  0.2090 -0.8436 -0.3493
17343TIP3    H173520   4.895   5.264   5.366 -0.5640 -0.3515  1.2357
17343TIP3    H273521   5.025   5.339   5.389 -0.3718 -0.3785  0.2510
17344TIP3   OH273522   1.230   5.018   5.982 -0.0925  0.5042 -0.2313
17344TIP3    H173523   1.139   5.045   5.980 -0.9656 -2.1406 -2.7681
17344TIP3    H273524   1.250   5.009   6.075 -2.3657  1.2393  0.3894
17345TIP3   OH273525   6.485   2.076  14.959 -0.4427 -0.2281 -0.7064
17345TIP3    H173526   6.460   2.080  15.051 -0.2440  1.6530 -0.6912
17345TIP3    H273527   6.410   2.111  14.912  0.8675  2.6980 -0.8759
17346TIP3   OH273528   1.736   3.146  14.084  0.1043  0.2403  0.1131
17346TIP3    H173529   1.727   3.219  14.023 -0.9849 -2.3378 -3.1865
17346TIP3    H273530   1.647   3.127  14.112  0.2587 -0.3388  0.2326
17347TIP3   OH273531   6.758   0.374  17.015  0.1469  0.2549 -0.3048
17347TIP3    H173532   6.777   0.455  16.969  1.3824  0.0524 -0.1872
17347TIP3    H273533   6.839   0.324  17.011 -0.5182 -0.8842 -0.1757
17348TIP3   OH273534   4.240   4.683   4.821 -0.3880  0.1104 -0.5267
17348TIP3    H173535   4.255   4.706   4.729 -0.2168  0.9550 -0.2945
17348TIP3    H273536   4.274   4.758   4.870 -1.1637 -0.0049  0.1998
17349TIP3   OH273537   2.311   1.075   2.505 -0.7146 -0.2136  0.3820
17349TIP3    H173538   2.232   1.051   2.457 -1.8466  1.3840  1.3438
17349TIP3    H273539   2.340   0.994   2.546 -1.0996 -1.0953 -1.0210
17350TIP3   OH273540   1.480   1.983   4.744  0.3082  0.5049  0.7960
17350TIP3    H173541   1.553   2.044   4.732  0.2517  0.1808 -1.8009
17350TIP3    H273542   1.403   2.032   4.714 -0.0795 -0.0890  0.8040
17351TIP3   OH273543   5.462   2.201  15.856 -0.0233 -0.0491  0.2013
17351TIP3    H173544   5.450   2.283  15.904  3.7337  0.4127  0.5871
17351TIP3    H273545   5.453   2.133  15.923  0.8072  0.3162  0.6924
17352TIP3   OH273546   1.373   6.264  14.881  0.7630  0.0620 -0.4376
17352TIP3    H173547   1.339   6.317  14.809  1.6250  1.0160 -0.1685
17352TIP3    H273548   1.319   6.289  14.956 -0.7922 -1.6530 -0.9094
17353TIP3   OH273549   1.068   1.478  11.948 -0.1123  0.0604  0.2402
17353TIP3    H173550   1.142   1.443  11.998 -0.0087  0.8232  0.6267
17353TIP3    H273551   1.109   1.530  11.879 -0.2538  2.3965  1.8082
17354TIP3   OH273552   1.966   4.703   0.454  0.4261 -0.3414  0.7109
17354TIP3    H173553   1.901   4.634   0.442 -0.8112  0.8242  0.4662
17354TIP3    H273554   2.048   4.656   0.471 -0.3278 -1.8577  0.3464
17355TIP3   OH273555   3.246   2.762  13.947  0.1507 -0.2814 -0.4333
17355TIP3    H173556   3.151   2.750  13.956  0.1207 -0.4751 -0.9992
17355TIP3    H273557   3.259   2.779  13.854  0.4835  1.4627 -0.0960
17356TIP3   OH273558   5.580   2.359  16.669  0.2322 -0.0313 -0.8115
17356TIP3    H173559   5.595   2.426  16.602 -2.5627  0.9943 -0.5829
17356TIP3    H273560   5.501   2.389  16.715  1.7390 -0.9141  2.6822
17357TIP3   OH273561   1.281   6.114   4.068  0.2907 -0.2933  0.0390
17357TIP3    H173562   1.261   6.187   4.127  1.0892  0.9955 -1.2148
17357TIP3    H273563   1.342   6.060   4.117  0.3498  0.3337  0.6822
17358TIP3   OH273564   5.040   5.881  13.272 -0.3560  0.3486  0.5203
17358TIP3    H173565   5.064   5.897  13.363 -0.5518  1.6093  0.3658
17358TIP3    H273566   5.108   5.821  13.240 -0.7653 -0.7979  1.7160
17359TIP3   OH273567   2.929   4.037   2.523 -0.3379  0.1041 -0.8028
17359TIP3    H173568   2.843   4.004   2.495 -0.3919  0.3218 -0.8915
17359TIP3    H273569   2.990   4.002   2.457 -0.6507  1.8152 -2.0601
17360TIP3   OH273570   1.915   5.226  10.390  0.2449  0.6475 -0.2108
17360TIP3    H173571   1.994   5.179  10.363  0.5520  1.4663 -0.7729
17360TIP3    H273572   1.948   5.299  10.443 -0.0932  1.2200 -0.7742
17361TIP3   OH273573   2.120   5.946   2.975  0.1028 -0.0858 -0.3327
17361TIP3    H173574   2.114   5.913   2.885 -0.6018  0.2557 -0.4122
17361TIP3    H273575   2.092   5.873   3.030  2.4008 -0.9848 -0.2361
17362TIP3   OH273576   1.633   1.355  15.151  0.0375  0.1164  0.2707
17362TIP3    H173577   1.541   1.333  15.137 -0.0679 -0.2342  1.3710
17362TIP3    H273578   1.661   1.398  15.070 -1.6783  2.1349  0.6539
17363TIP3   OH273579   3.771   2.398   3.934 -0.0788 -0.2342 -0.3644
17363TIP3    H173580   3.757   2.457   3.860  0.3047  0.6381  0.2349
17363TIP3    H273581   3.779   2.311   3.895 -0.4667  0.1374 -1.2874
17364TIP3   OH273582   6.408   4.659  14.762 -0.7667  0.0575 -0.1255
17364TIP3    H173583   6.397   4.735  14.819 -0.4012  1.1743 -1.4825
17364TIP3    H273584   6.503   4.649  14.753 -0.8077 -0.7164  0.2371
17365TIP3   OH273585   3.207   5.676  13.062  0.5990  0.3709  0.1608
17365TIP3    H173586   3.293   5.637  13.080  0.2369  0.5190  2.6066
17365TIP3    H273587   3.214   5.766  13.091 -0.3664  0.4020  0.3542
17366TIP3   OH273588   6.043   3.263   5.971  0.0185 -0.1621  0.0251
17366TIP3    H173589   6.114   3.209   5.936  1.1813  0.3708  1.4340
17366TIP3    H273590   5.988   3.203   6.021  1.4020 -0.0742  1.7312
17367TIP3   OH273591   3.790   1.073  15.668  0.3047  0.0054 -0.1072
17367TIP3    H173592   3.698   1.057  15.687  0.7574  0.2001  2.5841
17367TIP3    H273593   3.835   1.059  15.751  2.5433  1.2340 -1.0239
17368TIP3   OH273594   1.808   2.797   3.488 -0.0654  0.1911  0.3359
17368TIP3    H173595   1.757   2.861   3.439  0.5256  1.1080  0.8950
17368TIP3    H273596   1.780   2.712   3.453 -1.0866  0.7297 -0.1919
17369TIP3   OH273597   2.000   2.185   6.051 -0.6269  0.8562 -0.6417
17369TIP3    H173598   1.936   2.233   6.104 -1.0848  0.5386 -0.9012
17369TIP3    H273599   1.950   2.113   6.013  0.1059  0.0002 -0.0324
17370TIP3   OH273600   4.638   2.103  15.510  0.1457 -0.1967  0.0422
17370TIP3    H173601   4.552   2.060  15.503 -0.2183  0.6446 -0.9478
17370TIP3    H273602   4.624   2.174  15.572  0.5382 -0.9678  1.0473
17371TIP3   OH273603   4.615   6.508   1.367 -0.2468  0.4217  0.4589
17371TIP3    H173604   4.666   6.567   1.312 -0.6026  0.1035 -0.2189
17371TIP3    H273605   4.546   6.564   1.404  0.1600  0.6959  0.8087
17372TIP3   OH273606   0.896   1.037  13.705  0.0218 -0.4484  0.2947
17372TIP3    H173607   0.934   1.106  13.649 -0.1514 -0.5135  0.0947
17372TIP3    H273608   0.864   0.972  13.643 -0.7295 -0.2307  0.4514
17373TIP3   OH273609   4.850   4.641  14.449  0.6823 -0.0908 -0.1237
17373TIP3    H173610   4.846   4.590  14.368  0.6193 -1.4684  0.7299
17373TIP3    H273611   4.815   4.727  14.424  0.9247 -0.3918 -1.6196
17374TIP3   OH273612   4.653   0.926   3.096 -0.0165  0.2340 -0.5724
17374TIP3    H173613   4.705   0.967   3.164 -1.9438  0.7432  0.6644
17374TIP3    H273614   4.716   0.876   3.044  1.4612 -0.6155  1.8914
17375TIP3   OH273615   2.995   0.528   0.175 -0.7438 -0.2460 -0.1375
17375TIP3    H173616   3.081   0.489   0.188 -0.4972  0.8002  1.7017
17375TIP3    H273617   2.938   0.453   0.155  0.0567 -1.3480  1.5136
17376TIP3   OH273618   4.580   2.976  10.614  0.4283 -0.4732  0.5033
17376TIP3    H173619   4.663   2.972  10.567  0.6120 -0.9047  0.8537
17376TIP3    H273620   4.571   3.068  10.639 -0.2303  0.0048 -1.3303
17377TIP3   OH273621   0.754   2.601  16.917 -0.4937 -0.5710 -0.5149
17377TIP3    H173622   0.815   2.569  16.850 -0.4947 -1.4508 -0.1179
17377TIP3    H273623   0.804   2.598  16.998 -0.0794  1.7464 -0.6414
17378TIP3   OH273624   1.533   4.472  13.060 -0.0296  0.2134 -0.3974
17378TIP3    H173625   1.530   4.503  12.970 -0.0532  0.1064 -0.4341
17378TIP3    H273626   1.595   4.399  13.058  0.0341  0.2643 -0.3104
17379TIP3   OH273627   1.653   5.166  14.339 -0.4545  0.6756 -0.0018
17379TIP3    H173628   1.582   5.103  14.353 -0.7018  0.6127 -1.4255
17379TIP3    H273629   1.626   5.215  14.262  1.9847 -0.7169 -1.8756
17380TIP3   OH273630   2.464   3.287  14.723  0.1500 -0.0080  0.7014
17380TIP3    H173631   2.425   3.361  14.677  0.2103 -0.8200 -0.6934
17380TIP3    H273632   2.528   3.327  14.782 -0.5512  1.1132  0.7260
17381TIP3   OH273633   6.802   3.855   3.871 -0.0228  0.1535 -0.1208
17381TIP3    H173634   6.715   3.878   3.906 -0.8078 -2.3095 -0.3002
17381TIP3    H273635   6.796   3.874   3.778 -1.0736 -1.7300 -0.4874
17382TIP3   OH273636   0.501   1.037   5.091  0.5089 -0.1227 -0.3394
17382TIP3    H173637   0.528   1.020   5.181 -0.1019 -0.0284 -0.1333
17382TIP3    H273638   0.551   0.974   5.038  1.1882  0.1094  0.0182
17383TIP3   OH273639   0.004   4.651  14.616  0.2670  0.1329  0.2161
17383TIP3    H173640  -0.017   4.558  14.622  0.4664 -0.0166 -1.0428
17383TIP3    H273641  -0.048   4.682  14.541  1.7505  0.5559 -0.6890
17384TIP3   OH273642   6.498   3.479   6.105  0.9692  0.1995 -0.2971
17384TIP3    H173643   6.499   3.478   6.009  0.1847 -2.7597 -0.3733
17384TIP3    H273644   6.406   3.492   6.129  0.9557 -0.4443  0.0155
17385TIP3   OH273645   5.247   2.301   4.355 -0.0768 -0.3036 -0.3113
17385TIP3    H173646   5.173   2.257   4.311  0.6711 -0.9328 -0.9637
17385TIP3    H273647   5.308   2.230   4.375  0.5998  0.2876 -0.2653
17386TIP3   OH273648   6.020   5.954  16.831  0.0373 -0.0732 -0.3191
17386TIP3    H173649   5.982   6.042  16.824 -0.6398 -0.2127  1.2340
17386TIP3    H273650   5.949   5.895  16.805 -0.1321 -0.2385  0.5029
17387TIP3   OH273651   0.731   5.894  13.316  0.0236 -0.3385  0.4472
17387TIP3    H173652   0.657   5.856  13.268 -0.2629  0.9398 -0.1764
17387TIP3    H273653   0.747   5.833  13.388  0.2259 -2.1331 -1.0508
17388TIP3   OH273654   2.533   5.459   2.840 -0.4229 -0.0793 -0.6222
17388TIP3    H173655   2.476   5.386   2.866  2.0278 -1.5667  1.0019
17388TIP3    H273656   2.544   5.510   2.920  0.9048 -0.1221 -0.7671
17389TIP3   OH273657   1.834   1.244  16.540 -0.1929  0.0221 -0.1258
17389TIP3    H173658   1.882   1.289  16.472  3.0083 -1.4387  0.9672
17389TIP3    H273659   1.777   1.311  16.578  0.9703  1.8909 -1.5242
17390TIP3   OH273660   5.187   5.426  15.705  0.1208 -0.1358  0.3235
17390TIP3    H173661   5.272   5.465  15.686  0.6106 -1.0550  0.5940
17390TIP3    H273662   5.189   5.408  15.799 -1.0494  1.4130  0.7020
17391TIP3   OH273663   0.813   2.948  12.147  0.5772 -0.0929 -0.1601
17391TIP3    H173664   0.815   2.922  12.240  0.8948 -0.1127 -0.1737
17391TIP3    H273665   0.747   2.889  12.108 -2.0697  2.0956  0.6997
17392TIP3   OH273666   0.170   6.514   0.023  0.4874 -0.0781 -0.1507
17392TIP3    H173667   0.078   6.529   0.005  0.4629  1.1620  0.8806
17392TIP3    H273668   0.206   6.601   0.038  1.1562 -0.7239  2.4769
17393TIP3   OH273669   1.551   3.600   2.766 -0.1163 -0.3109  0.5336
17393TIP3    H173670   1.466   3.561   2.746 -0.1686 -0.2734  0.6807
17393TIP3    H273671   1.565   3.663   2.695 -1.2065  1.2307  1.6241
17394TIP3   OH273672   2.867   1.771   5.205  0.0619 -0.2864 -0.0406
17394TIP3    H173673   2.917   1.824   5.267  2.1590 -0.8943 -1.1273
17394TIP3    H273674   2.868   1.822   5.124  2.1374 -1.8938 -1.1087
17395TIP3   OH273675   2.478   1.731  14.529 -0.7269  0.8584  0.1487
17395TIP3    H173676   2.540   1.682  14.584 -0.3119  3.5882  2.3577
17395TIP3    H273677   2.402   1.674  14.523 -0.0887 -0.3312  2.1490
17396TIP3   OH273678   2.609   1.201  11.252 -0.4178  0.3898 -0.0588
17396TIP3    H173679   2.694   1.168  11.223 -0.2824 -0.2283  0.9893
17396TIP3    H273680   2.630   1.264  11.321 -0.7983  0.1638  0.2701
17397TIP3   OH273681   5.903   0.958  11.433  0.0997  0.3535 -0.1672
17397TIP3    H173682   5.855   0.994  11.358  1.1026  1.6849 -0.2049
17397TIP3    H273683   5.977   1.017  11.445 -0.5167  0.7045  2.4595
17398TIP3   OH273684   0.868   5.962  13.923 -0.1825  0.0650  0.4023
17398TIP3    H173685   0.856   5.869  13.906 -1.0191 -0.0125  1.3399
17398TIP3    H273686   0.793   5.987  13.976  0.8856  0.9024  1.5844
17399TIP3   OH273687   2.040   2.052  12.985 -0.0474  0.7241  0.0436
17399TIP3    H173688   2.023   2.094  12.901 -0.3558  0.8477  0.1660
17399TIP3    H273689   1.973   2.088  13.044 -1.7151 -1.5266 -0.3581
17400TIP3   OH273690   6.611   6.658   3.130  0.2956 -0.1651 -0.0222
17400TIP3    H173691   6.558   6.599   3.184 -1.6353  1.0994 -0.4135
17400TIP3    H273692   6.616   6.614   3.045  0.4734 -0.6093  0.2131
17401TIP3   OH273693   3.257   3.450  14.357  0.1624 -0.0517 -0.1057
17401TIP3    H173694   3.299   3.454  14.443 -0.5728 -1.4850  0.3506
17401TIP3    H273695   3.282   3.365  14.322 -1.4996 -0.5002 -0.2705
17402TIP3   OH273696   5.268   1.379   3.464  0.0346 -0.2121  0.0108
17402TIP3    H173697   5.209   1.435   3.515 -0.5759 -0.0681 -0.8373
17402TIP3    H273698   5.210   1.313   3.426  0.1473  0.8390 -2.1038
17403TIP3   OH273699   3.131   5.336  15.666  0.5927  0.4100 -0.0826
17403TIP3    H173700   3.105   5.315  15.576 -0.1826 -0.3088  0.2991
17403TIP3    H273701   3.184   5.260  15.693 -1.0473 -0.4539  0.8243
17404TIP3   OH273702   1.014   5.172   5.721 -0.1590  0.0470 -0.0452
17404TIP3    H173703   1.010   5.153   5.814 -0.7783  3.4454  0.7527
17404TIP3    H273704   0.939   5.125   5.684 -1.2169  0.4054  1.5492
17405TIP3   OH273705   1.462   0.926  12.333 -0.9795  0.5634  0.8138
17405TIP3    H173706   1.476   0.836  12.305 -1.5977  0.4927  0.7230
17405TIP3    H273707   1.546   0.954  12.369  0.0118  0.8589 -1.6091
17406TIP3   OH273708   5.130   2.578  11.562  0.2511 -0.2550  1.0074
17406TIP3    H173709   5.102   2.511  11.500 -0.4218 -1.0307  2.0986
17406TIP3    H273710   5.197   2.535  11.615  1.1471  0.5426  0.5399
17407TIP3   OH273711   5.751   3.693  17.108  0.6018 -0.5876 -0.0398
17407TIP3    H173712   5.751   3.624  17.042 -0.4751 -0.3439 -0.3220
17407TIP3    H273713   5.659   3.700  17.135  0.7148  0.6070  0.1046
17408TIP3   OH273714   6.109   4.970  15.830 -0.4406  0.5602  0.6478
17408TIP3    H173715   6.202   4.974  15.809  0.0255 -0.0064  2.4591
17408TIP3    H273716   6.068   5.029  15.767  0.8310 -0.9103 -1.7076
17409TIP3   OH273717   1.751   1.389   5.061  0.3885  0.2291  0.6028
17409TIP3    H173718   1.712   1.346   5.138 -2.0106 -0.7305 -1.0384
17409TIP3    H273719   1.677   1.407   5.004  1.8795  2.6179 -0.7400
17410TIP3   OH273720   3.661   4.934   2.312 -0.1469  0.3996 -0.0567
17410TIP3    H173721   3.655   5.029   2.310 -0.2401  0.4173  0.7479
17410TIP3    H273722   3.599   4.907   2.380 -0.0692 -0.2241 -0.2267
17411TIP3   OH273723   6.726   6.174   4.557  0.1356 -0.0675 -0.2671
17411TIP3    H173724   6.764   6.179   4.469 -0.8813 -2.9955 -0.9901
17411TIP3    H273725   6.649   6.231   4.553  0.8321  0.8775 -0.8077
17412TIP3   OH273726   6.058   4.055   4.597  0.2632 -0.6747  0.4296
17412TIP3    H173727   5.988   4.120   4.595  0.1518 -0.6866  2.1792
17412TIP3    H273728   6.052   4.011   4.512 -0.4264  0.7797 -0.3192
17413TIP3   OH273729   3.489   5.876   0.641  0.0616  0.3968 -0.2228
17413TIP3    H173730   3.471   5.847   0.551 -1.6018 -0.9900  0.4933
17413TIP3    H273731   3.574   5.836   0.663 -0.6040 -1.1947 -0.4269
17414TIP3   OH273732   5.730   0.176   1.968 -0.0793 -0.0794 -0.1579
17414TIP3    H173733   5.755   0.231   2.042  0.1499 -0.0860 -0.2320
17414TIP3    H273734   5.642   0.207   1.944  0.0445  0.2417 -0.1943
17415TIP3   OH273735   3.517   0.853  15.066 -0.7929 -0.5562  0.5335
17415TIP3    H173736   3.497   0.787  14.999 -0.0462 -1.2147  0.9362
17415TIP3    H273737   3.611   0.866  15.059 -1.1208  1.6185 -0.5478
17416TIP3   OH273738   1.026   5.305  16.947 -0.1956 -0.1910  0.1319
17416TIP3    H173739   1.061   5.234  17.000 -1.4598 -2.2691 -1.6726
17416TIP3    H273740   1.084   5.308  16.870 -0.5068  0.3426 -0.0906
17417TIP3   OH273741   2.543   2.387   6.484  0.1146 -0.0359 -0.0156
17417TIP3    H173742   2.478   2.352   6.546 -0.5305  0.8361 -0.1815
17417TIP3    H273743   2.619   2.407   6.538 -0.7864  1.6501  0.7069
17418TIP3   OH273744   2.961   6.269  15.146 -0.1924 -0.8258  0.6580
17418TIP3    H173745   2.969   6.344  15.205 -2.5343 -1.3318  1.7197
17418TIP3    H273746   2.974   6.306  15.059 -0.3110  0.6317  1.2237
17419TIP3   OH273747   1.112   1.317  16.058  0.0103  0.6010 -0.3275
17419TIP3    H173748   1.204   1.314  16.085 -0.1515 -0.3746  0.1892
17419TIP3    H273749   1.063   1.308  16.140 -0.5012 -3.7712 -0.8705
17420TIP3   OH273750   5.223   0.736  11.527  0.4283  0.0567  0.0395
17420TIP3    H173751   5.299   0.698  11.571  0.1177 -0.6130  0.0114
17420TIP3    H273752   5.242   0.727  11.434  0.8378  0.9703  0.0250
17421TIP3   OH273753   2.760   3.921  15.717 -0.6020 -0.2594 -0.0053
17421TIP3    H173754   2.718   3.992  15.765 -0.5100 -0.6013  0.5853
17421TIP3    H273755   2.826   3.886  15.777  1.8502  1.4344 -1.5326
17422TIP3   OH273756   0.857   3.165  14.321 -0.6141  0.1645  0.2788
17422TIP3    H173757   0.943   3.123  14.335 -1.2776 -1.5332 -0.4271
17422TIP3    H273758   0.856   3.186  14.228  0.0192  2.6281  0.7489
17423TIP3   OH273759   6.204   6.267   0.161  0.0503 -0.1046  0.6054
17423TIP3    H173760   6.276   6.217   0.123  0.3027 -0.8804  2.0227
17423TIP3    H273761   6.203   6.349   0.111  2.5947  0.3785  1.1686
17424TIP3   OH273762   2.289   5.316   6.709 -0.1733 -0.4964 -0.3054
17424TIP3    H173763   2.362   5.349   6.761 -0.4507  0.8390 -0.7218
17424TIP3    H273764   2.223   5.386   6.713 -1.0628 -1.2840 -0.6868
17425TIP3   OH273765   1.286   4.090  10.649 -0.7293  0.2270 -0.1736
17425TIP3    H173766   1.340   4.011  10.651  0.3581  0.8714 -1.9169
17425TIP3    H273767   1.198   4.058  10.626 -0.6075 -0.5726  0.3972
17426TIP3   OH273768   4.197   6.185  13.074  0.1211  0.1470 -0.4813
17426TIP3    H173769   4.176   6.253  13.010 -1.6592  2.6964  2.4800
17426TIP3    H273770   4.283   6.211  13.108 -0.6307  1.1327  0.7644
17427TIP3   OH273771   3.616   5.940  11.821 -0.2084  0.2066 -0.2416
17427TIP3    H173772   3.690   5.880  11.825  1.0468  1.7121  0.2006
17427TIP3    H273773   3.601   5.967  11.911 -0.6587  0.6526 -0.4425
17428TIP3   OH273774   6.016   3.121   2.355 -0.3194  0.5841  0.1849
17428TIP3    H173775   6.108   3.118   2.380 -0.0334 -1.1692 -0.9155
17428TIP3    H273776   6.010   3.196   2.296  0.8015 -0.3317 -1.1364
17429TIP3   OH273777   6.058   0.580  12.740  0.2084 -0.2879 -0.3279
17429TIP3    H173778   6.092   0.664  12.708 -1.0182  0.4315  0.1745
17429TIP3    H273779   6.035   0.531  12.661  0.9755 -0.1805 -0.6269
17430TIP3   OH273780   3.261   0.085   3.891 -0.2269  0.0239  0.0612
17430TIP3    H173781   3.299   0.017   3.946  1.1650 -0.2214 -1.1370
17430TIP3    H273782   3.318   0.161   3.904 -0.8344  0.4659  0.1793
17431TIP3   OH273783   3.433   2.869  10.665 -0.8592 -0.1392 -0.0830
17431TIP3    H173784   3.497   2.910  10.608 -0.1457 -0.8310  0.1898
17431TIP3    H273785   3.350   2.876  10.618 -0.1771 -1.3333 -1.5448
17432TIP3   OH273786   0.949   3.032   2.076  0.4395  0.7724  0.5750
17432TIP3    H173787   1.015   3.074   2.131  1.0983  0.2136  0.2147
17432TIP3    H273788   0.872   3.025   2.133  1.2175 -0.1224  1.5564
17433TIP3   OH273789   1.089   3.762  14.559 -0.0435  0.7485  0.1062
17433TIP3    H173790   1.096   3.690  14.497 -1.6744 -0.4759  1.2253
17433TIP3    H273791   1.041   3.830  14.512 -0.7142  0.0767 -0.2127
17434TIP3   OH273792   0.292   3.636   4.238 -0.1954 -0.5047 -0.8448
17434TIP3    H173793   0.267   3.598   4.154 -0.0353  0.8936 -1.5608
17434TIP3    H273794   0.245   3.583   4.303 -0.6110 -1.3823 -1.8253
17435TIP3   OH273795   3.631   3.921   5.865 -0.5807 -0.1247 -0.3451
17435TIP3    H173796   3.619   3.835   5.905 -3.7501 -0.0908 -0.9854
17435TIP3    H273797   3.603   3.983   5.933  0.8912  0.3914 -0.1770
17436TIP3   OH273798   3.680   3.041  14.274 -0.0961  0.2128  0.3977
17436TIP3    H173799   3.597   3.008  14.241 -0.3865  1.4814 -0.2171
17436TIP3    H273800   3.656   3.117  14.327  0.6057  0.0264  0.9951
17437TIP3   OH273801   5.428   2.062   6.236 -0.1153 -0.0359  0.0128
17437TIP3    H173802   5.442   2.128   6.169 -0.2071  0.1479  0.1746
17437TIP3    H273803   5.497   2.076   6.300 -1.5311  1.4871  1.2993
17438TIP3   OH273804   6.397   2.244   0.426 -0.1954 -0.3939  0.3388
17438TIP3    H173805   6.426   2.290   0.347 -0.8048  1.1239  0.9493
17438TIP3    H273806   6.358   2.163   0.394 -2.1236  1.0123 -1.1313
17439TIP3   OH273807   4.328   5.479   1.877  0.1975  0.1603 -0.8822
17439TIP3    H173808   4.343   5.385   1.881  1.3048  0.0837 -3.9800
17439TIP3    H273809   4.244   5.488   1.832  0.0928  0.6392 -0.5940
17440TIP3   OH273810   1.654   1.361  11.721  0.7311  0.1550 -0.1868
17440TIP3    H173811   1.688   1.273  11.703  1.6891  0.1650  1.3680
17440TIP3    H273812   1.678   1.412  11.644 -3.6943 -1.7926 -3.2874
17441TIP3   OH273813   5.084   4.729   4.783 -0.1609 -0.0451  0.2612
17441TIP3    H173814   5.075   4.637   4.761 -0.3174  0.2545 -0.9936
17441TIP3    H273815   5.062   4.776   4.703 -4.2568  1.2906  1.9205
17442TIP3   OH273816   0.073   1.831  14.802 -0.4355 -0.0273  0.6475
17442TIP3    H173817  -0.002   1.880  14.767 -0.0347  0.3049  0.2596
17442TIP3    H273818   0.145   1.893  14.801 -0.0033 -0.5270  0.4724
17443TIP3   OH273819   4.872   2.320  12.462  0.6116 -0.7015 -0.3716
17443TIP3    H173820   4.856   2.374  12.539 -1.5600 -0.2705 -1.0328
17443TIP3    H273821   4.898   2.235  12.497 -0.3577 -0.5163  0.8528
17444TIP3   OH273822   1.331   4.906  12.676 -0.1706  0.6681  0.3339
17444TIP3    H173823   1.407   4.851  12.698  0.2098  0.4462 -1.3857
17444TIP3    H273824   1.344   4.986  12.727  2.1738  1.3572 -1.1851
17445TIP3   OH273825   4.085   4.499   0.252 -0.6952  0.1800 -0.9126
17445TIP3    H173826   4.012   4.438   0.255  1.3549 -2.5982 -2.4349
17445TIP3    H273827   4.051   4.577   0.209 -2.8080 -0.9145 -1.3291
17446TIP3   OH273828   5.318   4.469  12.188  0.0947 -0.1209  0.0852
17446TIP3    H173829   5.327   4.485  12.094  0.3328  2.1672  0.4464
17446TIP3    H273830   5.224   4.453  12.200 -0.0839  0.4807 -0.4267
17447TIP3   OH273831   2.752   4.505  13.489 -0.0315 -0.4116  0.0285
17447TIP3    H173832   2.740   4.575  13.425  1.2293 -0.8650 -0.7178
17447TIP3    H273833   2.665   4.466  13.497 -0.6129  0.8085 -0.0221
17448TIP3   OH273834   5.675   0.463   3.536 -0.0219  0.4747  0.3997
17448TIP3    H173835   5.580   0.459   3.529  0.0046  0.9022 -0.2417
17448TIP3    H273836   5.691   0.480   3.629 -0.5155 -0.8530  0.7484
17449TIP3   OH273837   4.631   3.433  12.204  0.3021 -0.0982  0.5797
17449TIP3    H173838   4.702   3.387  12.160  1.0472  0.9131  0.6861
17449TIP3    H273839   4.675   3.501  12.256 -0.8081  1.5430 -0.5293
17450TIP3   OH273840   2.719   3.879   3.588 -0.1725 -0.3258  0.3729
17450TIP3    H173841   2.732   3.933   3.510 -2.6537  0.0210  0.1412
17450TIP3    H273842   2.651   3.924   3.637 -1.4696 -2.6009  0.7799
17451TIP3   OH273843   5.920   2.766  13.108 -0.2196 -0.1574  0.0641
17451TIP3    H173844   5.832   2.790  13.135  0.0131  0.4389  0.3002
17451TIP3    H273845   5.978   2.821  13.161  0.2593  1.0904 -1.6521
17452TIP3   OH273846   0.972   2.970   6.530  0.3260 -0.1207  0.0332
17452TIP3    H173847   1.032   3.039   6.559 -0.7715  0.1004  1.9667
17452TIP3    H273848   1.021   2.889   6.546  0.4850  0.0981  0.7203
17453TIP3   OH273849   4.321   4.182  13.563 -0.2257  0.3723  0.4786
17453TIP3    H173850   4.318   4.142  13.650 -1.2371  0.3032  0.4240
17453TIP3    H273851   4.329   4.276  13.581 -1.0217  0.4092  0.6623
17454TIP3   OH273852   6.702   3.184   4.038 -0.3019  0.3173  0.6285
17454TIP3    H173853   6.629   3.125   4.056 -1.6461  2.0307  1.0801
17454TIP3    H273854   6.750   3.141   3.968 -2.0511 -0.6250 -0.0732
17455TIP3   OH273855   0.714   6.353  15.047 -0.0164  0.2224 -0.1830
17455TIP3    H173856   0.647   6.421  15.049 -0.5578 -0.3110  0.9084
17455TIP3    H273857   0.722   6.324  15.138  0.8664 -0.5286 -0.4792
17456TIP3   OH273858   5.103   0.641   2.383  0.4424 -0.3746  0.2602
17456TIP3    H173859   5.159   0.717   2.371  1.1020 -0.9978 -0.6751
17456TIP3    H273860   5.028   0.657   2.326 -0.0529  0.1566  1.0316
17457TIP3   OH273861   3.620   5.450   1.091  0.3721  0.1719 -0.1010
17457TIP3    H173862   3.618   5.536   1.050 -0.5124 -0.3812 -1.2662
17457TIP3    H273863   3.685   5.400   1.041 -0.4376 -0.3871 -0.6204
17458TIP3   OH273864   0.466   0.047  11.157 -0.6416 -0.0628 -0.1441
17458TIP3    H173865   0.406  -0.027  11.150 -1.9171  0.6721  2.1530
17458TIP3    H273866   0.551   0.007  11.176 -1.3031 -0.9721  0.9964
17459TIP3   OH273867   1.816   2.907  12.421  0.0347  0.8982  0.4466
17459TIP3    H173868   1.784   2.866  12.340 -0.3204  0.1289  0.9594
17459TIP3    H273869   1.773   2.992  12.424  0.5152  1.1832 -0.4760
17460TIP3   OH273870   2.332   3.802   4.037 -0.6280 -0.4109  0.4712
17460TIP3    H173871   2.265   3.736   4.016 -0.4185 -0.4906  0.0488
17460TIP3    H273872   2.373   3.769   4.117 -1.3834 -0.1426  0.9761
17461TIP3   OH273873   4.987   0.255  13.239  0.3572 -0.0498 -0.0938
17461TIP3    H173874   5.060   0.306  13.204 -0.6884  1.2233 -0.4889
17461TIP3    H273875   4.934   0.234  13.162  1.4890 -3.0618 -0.1865
17462TIP3   OH273876   6.315   5.996  16.697  0.2105 -0.1141  0.3712
17462TIP3    H173877   6.364   5.922  16.660 -0.0035  0.2021 -0.5783
17462TIP3    H273878   6.234   5.958  16.729 -0.9535 -0.0183 -2.2039
17463TIP3   OH273879   1.855   0.152   0.168  0.4690 -0.6548  0.1483
17463TIP3    H173880   1.776   0.100   0.184  0.5626 -0.7030  0.4576
17463TIP3    H273881   1.895   0.161   0.254  1.8913 -2.3312 -0.2936
17464TIP3   OH273882   4.322   4.283   4.945 -0.6748 -0.6819 -0.1897
17464TIP3    H173883   4.275   4.310   4.866  0.2627  0.8219 -0.2753
17464TIP3    H273884   4.386   4.353   4.960 -1.3966 -0.4864  2.4034
17465TIP3   OH273885   6.266   6.539  15.489 -0.0181  0.1125  0.2614
17465TIP3    H173886   6.266   6.591  15.408 -1.9692 -1.8888 -1.1530
17465TIP3    H273887   6.306   6.456  15.464 -1.6014 -0.9358  0.9974
17466TIP3   OH273888   1.624   5.553  16.549  0.3350 -0.7691 -0.1988
17466TIP3    H173889   1.619   5.480  16.610  1.0552 -0.2879  0.4713
17466TIP3    H273890   1.562   5.532  16.480 -0.1239 -1.5739  0.4447
17467TIP3   OH273891   1.958   4.623   2.252 -0.0449  0.1807  0.3387
17467TIP3    H173892   1.877   4.652   2.210 -0.3982 -1.8342 -0.4853
17467TIP3    H273893   2.025   4.681   2.217 -0.8376  0.6214 -0.4975
17468TIP3   OH273894   3.554   2.341   4.590  0.3657 -0.2993  0.1660
17468TIP3    H173895   3.618   2.394   4.543 -1.3826 -0.6157 -2.7884
17468TIP3    H273896   3.489   2.405   4.622  0.8217 -0.2225  0.9592
17469TIP3   OH273897   0.469   5.751   5.475 -0.7964  0.3508 -0.7703
17469TIP3    H173898   0.462   5.665   5.433 -1.2378  1.0077 -2.1283
17469TIP3    H273899   0.378   5.779   5.488 -0.7337 -0.6008  2.4186
17470TIP3   OH273900   4.672   4.944   3.724 -0.2546 -0.0344  0.6678
17470TIP3    H173901   4.689   5.003   3.798  0.3808  1.3607 -0.5369
17470TIP3    H273902   4.754   4.942   3.675 -0.5621 -1.2060  0.1683
17471TIP3   OH273903   1.558   3.688   6.776  0.6907  0.3800 -0.3724
17471TIP3    H173904   1.536   3.774   6.811  0.2017 -0.4051  1.3557
17471TIP3    H273905   1.614   3.648   6.843  1.6803 -0.3144 -1.5633
17472TIP3   OH273906   4.744   5.740  12.745 -0.0291  0.0710  0.1048
17472TIP3    H173907   4.682   5.699  12.805 -0.9877  0.1773 -0.7879
17472TIP3    H273908   4.703   5.733  12.659  1.6790 -0.8249 -0.6978
17473TIP3   OH273909   4.210   5.335   6.028 -0.7458  0.4873 -0.2483
17473TIP3    H173910   4.294   5.304   6.063  0.3450  1.9629 -1.4348
17473TIP3    H273911   4.173   5.389   6.098 -1.1818 -0.8752  0.6243
17474TIP3   OH273912   3.056   0.248   5.372  0.1560 -0.0879 -0.1545
17474TIP3    H173913   3.122   0.266   5.305  1.0001 -0.2274  0.6168
17474TIP3    H273914   2.977   0.224   5.323 -0.0432  2.3476 -1.1635
17475TIP3   OH273915   5.201   1.935  15.149 -0.2937 -0.0130  0.0919
17475TIP3    H173916   5.143   1.988  15.204 -0.2402 -0.5593  0.6881
17475TIP3    H273917   5.208   1.984  15.067 -1.8684 -0.0925 -0.1267
17476TIP3   OH273918   3.492   3.426  14.122 -0.4712  0.0935 -0.2703
17476TIP3    H173919   3.551   3.464  14.187 -1.6161  0.9181  0.3225
17476TIP3    H273920   3.455   3.348  14.164  0.3990 -0.6069 -0.7595
17477TIP3   OH273921   6.558   6.810   3.492 -0.5110  0.4978  0.3371
17477TIP3    H173922   6.600   6.779   3.572  0.3354  0.6027 -0.0599
17477TIP3    H273923   6.499   6.738   3.467  1.3365 -0.8298 -0.5051
17478TIP3   OH273924   2.787   6.803   2.421  0.0789 -0.2975  0.0479
17478TIP3    H173925   2.792   6.728   2.479 -1.4786 -0.2075  0.3495
17478TIP3    H273926   2.815   6.877   2.475 -0.2651 -0.3808  0.3446
17479TIP3   OH273927   5.145   5.375   0.225 -0.0937  0.4539  0.0691
17479TIP3    H173928   5.073   5.416   0.274  0.4632 -0.7409  2.0008
17479TIP3    H273929   5.165   5.296   0.275  0.3163 -1.0491 -2.3196
17480TIP3   OH273930   1.595   1.191   6.482  0.1370  0.5070 -0.1872
17480TIP3    H173931   1.674   1.201   6.428  1.2795  0.0954  1.3368
17480TIP3    H273932   1.601   1.102   6.517 -0.0198  1.1071  1.4310
17481TIP3   OH273933   6.511   4.984   1.238 -0.0683 -0.2902 -0.0345
17481TIP3    H173934   6.604   5.006   1.249 -0.0343  1.2483 -2.6391
17481TIP3    H273935   6.472   5.003   1.323  1.9767 -1.0125  1.1401
17482TIP3   OH273936   6.729   5.709  11.568  0.1626  0.3403  0.1298
17482TIP3    H173937   6.733   5.626  11.616  1.1374  0.4674  0.2965
17482TIP3    H273938   6.802   5.760  11.602  2.7733 -0.6211 -3.3885
17483TIP3   OH273939   5.127   0.628   3.951 -0.1788 -0.2265  0.0873
17483TIP3    H173940   5.161   0.666   3.870  0.2125 -0.8914 -0.0704
17483TIP3    H273941   5.154   0.688   4.020  0.6917 -0.3711 -0.1228
17484TIP3   OH273942   5.496   2.647  14.506 -0.4046  0.1292  0.1785
17484TIP3    H173943   5.533   2.685  14.426 -3.1669  2.5245 -0.1409
17484TIP3    H273944   5.425   2.591  14.475  0.0168 -0.8220  0.8973
17485TIP3   OH273945   0.473   3.291  14.179 -0.0331  0.4467  0.6021
17485TIP3    H173946   0.496   3.284  14.271 -2.7885  0.3126  1.3796
17485TIP3    H273947   0.455   3.201  14.151  0.7460  0.4890 -0.0740
17486TIP3   OH273948   1.415   6.095   2.992 -0.1800  0.3655  0.0321
17486TIP3    H173949   1.348   6.037   2.954 -0.6083  1.1359 -0.4037
17486TIP3    H273950   1.365   6.157   3.046  0.0957  1.4162 -0.8883
17487TIP3   OH273951   1.615   2.774   0.091  0.0466  0.1642 -0.0252
17487TIP3    H173952   1.571   2.846   0.046 -1.0937  0.0088  0.7957
17487TIP3    H273953   1.544   2.713   0.114  0.7213 -0.2225  1.1191
17488TIP3   OH273954   5.683   4.269  13.225  0.6142  0.2618  0.8192
17488TIP3    H173955   5.642   4.300  13.144 -0.6697  0.8620  1.6680
17488TIP3    H273956   5.773   4.304  13.221  0.3032  1.0199  0.0649
17489TIP3   OH273957   6.730   3.605   2.887  0.1470  0.5760 -0.3750
17489TIP3    H173958   6.670   3.532   2.871  0.5816 -0.0660  0.7706
17489TIP3    H273959   6.682   3.682   2.857 -1.6006  0.1753  1.1359
17490TIP3   OH273960   5.278   1.593   4.865  0.0594  0.0905 -0.0744
17490TIP3    H173961   5.243   1.663   4.921  0.1822  0.9451 -1.0436
17490TIP3    H273962   5.345   1.550   4.919  0.1297  0.8562  0.4555
17491TIP3   OH273963   3.106   4.397   3.748  0.3918 -0.1419 -0.2614
17491TIP3    H173964   3.145   4.365   3.667  0.3427  0.8704 -0.7042
17491TIP3    H273965   3.033   4.452   3.719 -0.1212 -0.4066  0.5009
17492TIP3   OH273966   5.187   6.181   0.758 -0.5156  0.3253  0.3429
17492TIP3    H173967   5.200   6.218   0.671  0.5274  2.0201  1.1753
17492TIP3    H273968   5.264   6.206   0.808 -2.1694  1.5797  2.4671
17493TIP3   OH273969   0.826   0.704   1.188  0.0498  0.6461  0.3061
17493TIP3    H173970   0.892   0.772   1.173 -0.2446  0.4101 -2.6643
17493TIP3    H273971   0.797   0.679   1.100 -3.4203  0.1696  1.4252
17494TIP3   OH273972   3.966   4.970  15.978  0.0082 -0.2685 -0.1565
17494TIP3    H173973   4.050   4.989  15.936 -0.3375 -0.2103 -0.8393
17494TIP3    H273974   3.937   4.889  15.936 -0.1829 -0.3952  0.2217
17495TIP3   OH273975   2.879   3.334  15.762  0.4928  0.1424 -0.2261
17495TIP3    H173976   2.917   3.360  15.846 -1.3271  0.5915  0.5032
17495TIP3    H273977   2.950   3.288  15.717  2.0779  1.5275  0.7580
17496TIP3   OH273978   5.919   5.910  10.810 -0.0427  0.3109 -0.1080
17496TIP3    H173979   5.910   5.979  10.744  0.1553  0.3227 -0.1234
17496TIP3    H273980   5.950   5.834  10.761  3.2039  1.1377  0.3764
17497TIP3   OH273981   4.425   3.945  11.266  0.0091 -0.4382  0.4970
17497TIP3    H173982   4.477   4.026  11.267 -0.0935 -0.3325 -0.6759
17497TIP3    H273983   4.487   3.877  11.239  0.0257 -0.7068  1.1944
17498TIP3   OH273984   0.637   0.012  15.768 -0.3470 -0.2592 -0.4421
17498TIP3    H173985   0.700   0.084  15.777  0.3009 -0.6958 -1.2348
17498TIP3    H273986   0.630  -0.026  15.855 -0.2622  0.4205 -0.1410
17499TIP3   OH273987   3.402   3.901  13.794 -0.1737 -0.0769 -0.0742
17499TIP3    H173988   3.414   3.991  13.764  0.1299  0.0916  0.5380
17499TIP3    H273989   3.329   3.868  13.742 -0.4642  0.6120 -0.1201
17500TIP3   OH273990   3.034   5.028   5.126  0.0593 -0.1521 -0.9784
17500TIP3    H173991   2.974   5.039   5.052 -1.2487 -1.4758 -0.1552
17500TIP3    H273992   3.032   5.113   5.171 -1.0860 -0.1270 -1.0461
17501TIP3   OH273993   2.083   3.255   3.476 -0.3819 -0.3364 -0.3362
17501TIP3    H173994   2.121   3.325   3.530 -1.8576 -0.4053  0.8314
17501TIP3    H273995   2.159   3.202   3.450  1.2463  3.1259 -3.6015
17502TIP3   OH273996   3.995   2.829   3.691 -0.3556 -0.3708  0.2507
17502TIP3    H173997   4.022   2.893   3.757  1.2757 -1.0819  0.3305
17502TIP3    H273998   3.987   2.879   3.610  1.1204 -0.0810  0.2627
17503TIP3   OH273999   3.365   4.297  16.518  0.4824 -0.4575  0.5088
17503TIP3    H174000   3.272   4.278  16.504  0.3688  1.1741 -1.2876
17503TIP3    H274001   3.393   4.232  16.583 -1.5540 -1.9028  0.0306
17504TIP3   OH274002   1.025   3.752   3.565 -0.1201  0.1113  0.2933
17504TIP3    H174003   0.985   3.680   3.612  0.2967 -0.5327 -0.3091
17504TIP3    H274004   1.102   3.713   3.523 -1.3222  0.2490 -2.2192
17505TIP3   OH274005   3.788   3.957   3.899  0.2093  0.2175 -0.1895
17505TIP3    H174006   3.728   4.029   3.920  1.8862  0.9500  2.6706
17505TIP3    H274007   3.758   3.884   3.954 -0.2532 -0.6775 -1.5681
17506TIP3   OH274008   1.611   5.528  14.581 -0.0385  0.0753 -0.3636
17506TIP3    H174009   1.523   5.502  14.609 -0.2838 -0.3728 -1.5110
17506TIP3    H274010   1.600   5.618  14.550 -0.5670 -0.6442 -2.4384
17507TIP3   OH274011   1.027   5.172   0.386  0.0296 -0.2761  0.2693
17507TIP3    H174012   1.021   5.107   0.455 -1.4088  0.1152  0.5380
17507TIP3    H274013   0.962   5.145   0.321 -0.6647  0.9067  0.4288
17508TIP3   OH274014   1.007   1.301   3.240  0.1175  0.6528 -0.0638
17508TIP3    H174015   1.019   1.208   3.225 -1.7532  0.1731  1.0865
17508TIP3    H274016   1.042   1.317   3.328 -1.1612  0.6299  0.4758
17509TIP3   OH274017   4.398   2.187  12.356 -0.1834 -0.3744 -0.9001
17509TIP3    H174018   4.486   2.160  12.327 -0.7029 -1.2542 -1.7089
17509TIP3    H274019   4.373   2.257  12.297  1.3462  2.3765  1.4746
17510TIP3   OH274020   3.942   3.392   5.421  0.4656  0.2337  0.0317
17510TIP3    H174021   4.015   3.335   5.397  0.1700 -0.9095  1.6031
17510TIP3    H274022   3.968   3.479   5.393  2.3440 -0.1751  0.3724
17511TIP3   OH274023   5.868   2.937  12.123 -0.4999  0.2690 -0.2259
17511TIP3    H174024   5.857   2.854  12.076 -2.6459  0.2725  0.2096
17511TIP3    H274025   5.798   2.938  12.188  0.8819  1.4068  1.3335
17512TIP3   OH274026   1.804   1.242  11.164 -0.4603  0.5519 -0.0570
17512TIP3    H174027   1.887   1.213  11.200 -0.6192 -0.0023 -0.1224
17512TIP3    H274028   1.769   1.165  11.120 -0.9312  0.8255 -0.1710
17513TIP3   OH274029   2.046   1.306   0.115  0.6497  0.1906  0.2272
17513TIP3    H174030   2.064   1.326   0.023 -1.8638 -1.1027 -0.6361
17513TIP3    H274031   1.971   1.361   0.137 -0.0670 -1.0089  0.8589
17514TIP3   OH274032   1.648   3.434   0.180 -0.9780 -0.3408  0.3148
17514TIP3    H174033   1.668   3.380   0.257  1.0895 -0.5090 -0.2722
17514TIP3    H274034   1.624   3.520   0.216 -0.7806 -0.6313  1.1629
17515TIP3   OH274035   4.067   5.686   2.358 -0.7467 -0.1248 -0.2061
17515TIP3    H174036   4.051   5.726   2.272 -1.5601  1.0720  0.4614
17515TIP3    H274037   4.094   5.759   2.413 -0.6636 -0.7993  0.6621
17516TIP3   OH274038   4.740   0.260  13.512 -0.0882 -0.8778  0.2507
17516TIP3    H174039   4.650   0.261  13.481 -0.3836 -2.6494  0.9501
17516TIP3    H274040   4.793   0.267  13.432 -0.8323 -0.9683 -0.2584
17517TIP3   OH274041   2.047   3.305  14.767 -0.2078  1.2872  0.3751
17517TIP3    H174042   2.089   3.359  14.700 -0.7831  0.9540 -0.2637
17517TIP3    H274043   2.079   3.217  14.750  0.4893  1.3674  1.2256
17518TIP3   OH274044   5.844   2.238   4.136 -0.1151 -0.2053  0.1274
17518TIP3    H174045   5.890   2.282   4.065  0.4528 -0.5723  0.2637
17518TIP3    H274046   5.908   2.232   4.207 -0.9518  0.9790  1.0125
17519TIP3   OH274047   3.531   3.155   1.889 -0.3562  0.5913 -0.7699
17519TIP3    H174048   3.480   3.182   1.966 -1.2205  0.8501 -1.4128
17519TIP3    H274049   3.508   3.219   1.821  0.1500  0.1801 -1.3393
17520TIP3   OH274050   0.029   1.761  17.118 -1.3993  0.2545  0.1586
17520TIP3    H174051   0.086   1.751  17.194 -1.9254 -2.9682  0.2825
17520TIP3    H274052   0.063   1.838  17.072  3.9961 -2.0821 -0.5250
17521TIP3   OH274053   1.494   1.630   3.650  0.0696  0.1539  0.2615
17521TIP3    H174054   1.518   1.542   3.623  3.0480  0.2315  2.2112
17521TIP3    H274055   1.526   1.686   3.579 -0.5734 -0.2173 -0.3304
17522TIP3   OH274056   0.855   2.146   2.169 -0.2620 -0.0275  0.0912
17522TIP3    H174057   0.871   2.230   2.212 -0.4254  0.1956 -0.2814
17522TIP3    H274058   0.943   2.113   2.148 -0.2239  0.5908 -0.7906
17523TIP3   OH274059   2.063   3.836  13.018 -0.7084 -0.0641  0.0922
17523TIP3    H174060   2.039   3.798  12.934  0.9042 -1.4239  0.1889
17523TIP3    H274061   2.028   3.775  13.083  0.7446 -0.7380  0.2877
17524TIP3   OH274062   4.211   4.387  16.138  0.4289 -0.3038 -0.3043
17524TIP3    H174063   4.189   4.364  16.048  0.4849  0.5483 -0.5390
17524TIP3    H274064   4.172   4.317  16.191 -0.6928 -0.1324 -0.8892
17525TIP3   OH274065   5.993   5.009   1.568  0.5975 -0.2985  0.1624
17525TIP3    H174066   5.899   5.006   1.551  0.6917 -1.2505 -0.2692
17525TIP3    H274067   6.006   4.947   1.640  0.8975 -0.2166  0.1803
17526TIP3   OH274068   5.585   5.285   4.898 -0.9290  0.0739 -0.2422
17526TIP3    H174069   5.617   5.203   4.934  1.6072  1.3962  0.7594
17526TIP3    H274070   5.622   5.289   4.810 -1.6655 -0.1506 -0.5740
17527TIP3   OH274071   2.810   5.726  12.910 -0.3036 -0.1178  0.2388
17527TIP3    H174072   2.736   5.670  12.890  1.0993 -1.6078 -1.0866
17527TIP3    H274073   2.867   5.672  12.965 -0.1045  0.9441  1.1261
17528TIP3   OH274074   0.702   1.652   5.793  0.2893 -0.0224  0.3989
17528TIP3    H174075   0.621   1.670   5.841 -0.6949 -0.7579 -0.8951
17528TIP3    H274076   0.748   1.736   5.790  0.6364 -0.0544  2.9656
17529TIP3   OH274077   3.750   6.285  16.325 -0.0183  0.5377 -0.3467
17529TIP3    H174078   3.698   6.323  16.255 -1.6891 -1.9677 -0.5809
17529TIP3    H274079   3.828   6.250  16.281 -1.1164 -1.1373 -1.0657
17530TIP3   OH274080   1.730   3.475   5.223 -0.2864  0.1894  0.2329
17530TIP3    H174081   1.682   3.406   5.177 -2.4099  1.6375  0.1055
17530TIP3    H274082   1.781   3.429   5.289 -0.8182 -1.5643 -0.4986
17531TIP3   OH274083   5.496   2.765  11.507 -0.7500 -0.0674 -0.9099
17531TIP3    H174084   5.459   2.736  11.423  0.2667 -0.9898 -1.0642
17531TIP3    H274085   5.515   2.858  11.494  2.1994 -0.7903 -2.8242
17532TIP3   OH274086   1.677   3.519   0.764  0.6979 -0.1055  0.3155
17532TIP3    H174087   1.743   3.586   0.746  1.1275 -0.4538  0.5545
17532TIP3    H274088   1.727   3.437   0.770  0.3044 -0.3122  0.9445
17533TIP3   OH274089   5.676   4.506   1.668  0.2499 -0.3220  0.1268
17533TIP3    H174090   5.693   4.454   1.590  1.6337  1.2004 -0.6183
17533TIP3    H274091   5.584   4.530   1.661  0.0593 -1.1714 -0.4252
17534TIP3   OH274092   2.301   6.558   3.421 -0.2061  0.4241 -0.4129
17534TIP3    H174093   2.275   6.483   3.474 -0.2880  0.9032  0.2411
17534TIP3    H274094   2.259   6.633   3.464  0.2034  0.8896 -0.8170
17535TIP3   OH274095   0.411   1.324   4.607 -0.0862 -0.1628  0.0417
17535TIP3    H174096   0.434   1.391   4.672 -2.3863  1.5161 -0.7420
17535TIP3    H274097   0.371   1.254   4.658  0.3825  0.0292  0.6824
17536TIP3   OH274098   4.530   4.195   4.346 -0.0006  0.0401  0.0899
17536TIP3    H174099   4.473   4.128   4.308  1.1604 -0.0443 -1.6191
17536TIP3    H274100   4.480   4.277   4.337 -0.2137 -0.1593 -0.5562
17537TIP3   OH274101   5.036   0.752   3.319 -0.0327 -0.0909 -0.5243
17537TIP3    H174102   5.080   0.836   3.323 -1.2918  0.5960 -0.6762
17537TIP3    H274103   5.025   0.736   3.225 -1.1915  0.3321 -0.4652
17538TIP3   OH274104   4.679   5.982   4.086  0.0120 -0.4892 -0.3052
17538TIP3    H174105   4.760   6.030   4.104  0.2861 -0.5746 -1.2688
17538TIP3    H274106   4.643   5.963   4.173  0.8487 -0.1544  0.1285
17539TIP3   OH274107   0.998   3.948   2.559 -0.0529 -0.5028 -0.3085
17539TIP3    H174108   0.945   3.882   2.604 -0.8383  0.0819 -0.3537
17539TIP3    H274109   0.968   3.944   2.468  1.0152 -1.1760 -0.6398
17540TIP3   OH274110   4.614   4.604  16.175 -0.3783  0.0535  0.5022
17540TIP3    H174111   4.595   4.670  16.242  0.8224  0.2486  0.6736
17540TIP3    H274112   4.576   4.524  16.210 -3.0598  0.8679 -0.3268
17541TIP3   OH274113   2.016   2.413  14.842 -0.2349 -0.5154 -0.3698
17541TIP3    H174114   2.092   2.374  14.798  1.1952  0.0830  1.4215
17541TIP3    H274115   1.967   2.339  14.876  0.9436 -0.8628  0.6180
17542TIP3   OH274116   4.011   4.406   5.755  0.2023 -1.2570  0.4488
17542TIP3    H174117   4.005   4.459   5.835 -3.1114 -0.6069 -0.0688
17542TIP3    H274118   4.069   4.456   5.697  0.3999 -0.2839  1.4560
17543TIP3   OH274119   2.030   5.622  12.958 -0.2658 -0.3749  0.0700
17543TIP3    H174120   1.952   5.594  13.006 -1.5299  1.6193 -0.7166
17543TIP3    H274121   2.076   5.680  13.018 -1.1050  0.9917 -0.5660
17544TIP3   OH274122   1.432   5.247  16.530  0.1705 -0.2558 -0.4729
17544TIP3    H174123   1.442   5.152  16.530  0.8981 -0.2899  2.6880
17544TIP3    H274124   1.341   5.261  16.554  0.3151 -0.1720  0.0327
17545TIP3   OH274125   2.796   1.886  11.738  0.2174 -0.5007 -0.1831
17545TIP3    H174126   2.831   1.862  11.652  0.8777 -1.5414  0.3573
17545TIP3    H274127   2.845   1.831  11.800  0.3194  0.8002  0.9316
17546TIP3   OH274128   6.343   6.254   3.317 -0.1975  0.6964  0.0954
17546TIP3    H174129   6.374   6.228   3.230 -3.3108  2.6733 -1.8036
17546TIP3    H274130   6.304   6.174   3.353  2.0865 -0.4243  0.2663
17547TIP3   OH274131   5.577   3.968   1.558 -0.5289  0.4922 -0.7668
17547TIP3    H174132   5.568   4.034   1.489  0.5208  2.3502  0.7608
17547TIP3    H274133   5.524   4.002   1.630  0.5546  0.0145  0.2917
17548TIP3   OH274134   1.227   0.399   1.851 -0.3529 -0.5687 -0.2939
17548TIP3    H174135   1.285   0.380   1.925  0.3993  1.1297 -0.4072
17548TIP3    H274136   1.234   0.321   1.796  1.7973 -0.4869 -0.2476
17549TIP3   OH274137   5.982   6.631  13.331 -0.1150 -0.5035  0.0556
17549TIP3    H174138   6.010   6.711  13.287 -1.9559 -0.1562 -0.5832
17549TIP3    H274139   5.972   6.567  13.260  1.4630 -1.3636  0.5764
17550TIP3   OH274140   1.410   1.753   2.483 -0.3542  0.4908  0.4164
17550TIP3    H174141   1.409   1.680   2.421  0.8922  0.9513 -0.1770
17550TIP3    H274142   1.329   1.743   2.532 -0.4820 -0.9727 -0.0235
17551TIP3   OH274143   0.678   5.714   1.676  0.2982 -0.0305  0.5373
17551TIP3    H174144   0.639   5.752   1.754 -1.5539  1.8571 -1.1796
17551TIP3    H274145   0.654   5.774   1.605  1.4336 -1.9105 -1.5753
17552TIP3   OH274146   1.871   5.958   2.273  0.3570 -0.3546 -0.1416
17552TIP3    H174147   1.884   5.887   2.211 -0.1235 -0.3866 -0.2096
17552TIP3    H274148   1.812   5.922   2.339 -0.0740  0.0535 -0.3002
17553TIP3   OH274149   4.578   6.581  12.553  0.3063  0.2881  0.0057
17553TIP3    H174150   4.555   6.553  12.642 -2.1604  1.9454 -0.0271
17553TIP3    H274151   4.574   6.676  12.556  2.5583  0.4912 -1.3415
17554TIP3   OH274152   4.325   5.953  16.026  0.0332 -0.5694  0.3979
17554TIP3    H174153   4.372   5.927  15.946 -0.9700 -1.1489 -0.0254
17554TIP3    H274154   4.359   5.894  16.094 -0.4842 -1.3852 -0.0340
17555TIP3   OH274155   2.723   3.890  10.568  0.0730 -0.1635 -0.7259
17555TIP3    H174156   2.657   3.866  10.503 -1.8587 -0.6195  1.2748
17555TIP3    H274157   2.681   3.957  10.621  1.9902  0.9625 -0.5598
17556TIP3   OH274158   1.668   0.035  16.687  0.2545  0.6847 -0.2923
17556TIP3    H174159   1.722   0.075  16.755  1.1378 -1.7658  0.5640
17556TIP3    H274160   1.705   0.067  16.605  1.9855  0.3689  0.3161
17557TIP3   OH274161   0.816   1.444  13.450 -0.5293 -0.0573 -0.0258
17557TIP3    H174162   0.753   1.418  13.382  0.9771 -1.0147 -1.1146
17557TIP3    H274163   0.772   1.516  13.496 -1.7095  0.4870 -1.8713
17558TIP3   OH274164   6.633   3.193  12.253 -0.1972  0.2689 -0.4510
17558TIP3    H174165   6.553   3.192  12.201 -1.3721 -1.3039  1.2760
17558TIP3    H274166   6.672   3.107  12.239  0.5761  0.5909 -0.3255
17559TIP3   OH274167   1.731   1.460   1.834 -0.2103 -0.0980  0.2369
17559TIP3    H174168   1.770   1.379   1.867 -1.2504 -1.2474 -1.2021
17559TIP3    H274169   1.792   1.490   1.767 -1.0793 -1.1976 -1.1098
17560TIP3   OH274170   3.160   0.102  11.972 -0.0027  0.0819 -0.0353
17560TIP3    H174171   3.192   0.012  11.977 -0.1876  0.0769  3.4953
17560TIP3    H274172   3.237   0.154  11.953  0.3613 -0.6637 -0.6969
17561TIP3   OH274173   2.777   0.533   2.711  0.0433 -0.1543 -0.4615
17561TIP3    H174174   2.702   0.558   2.656  0.6548  0.2052 -1.1485
17561TIP3    H274175   2.852   0.537   2.652  0.5960 -0.5956  0.2026
17562TIP3   OH274176   0.682   0.347  14.934  0.3790 -0.0225 -0.4876
17562TIP3    H174177   0.634   0.298  15.001 -0.6200  0.7296 -0.6280
17562TIP3    H274178   0.621   0.354  14.860  0.9052  0.4740 -0.8892
17563TIP3   OH274179   1.722   5.031   2.790 -0.0710 -0.6222 -0.1053
17563TIP3    H174180   1.748   4.941   2.772 -0.4452 -0.6853 -0.3473
17563TIP3    H274181   1.653   5.049   2.726  0.1280 -0.1021 -0.1797
17564TIP3   OH274182   3.329   2.639  14.310  0.2601 -0.2980  0.0116
17564TIP3    H174183   3.250   2.651  14.259  0.0640 -3.0898 -0.4720
17564TIP3    H274184   3.380   2.574  14.262  2.9789  1.5259  0.2116
17565TIP3   OH274185   4.060   6.513  16.115 -0.7001  0.0235  0.5126
17565TIP3    H174186   4.028   6.456  16.045  1.1644  1.9285 -2.0940
17565TIP3    H274187   4.154   6.495  16.119 -0.1053  2.6081 -0.2159
17566TIP3   OH274188   3.554   0.313   4.726  0.5277  0.6084 -0.1707
17566TIP3    H174189   3.494   0.373   4.770 -1.4913 -0.1702 -1.6794
17566TIP3    H274190   3.590   0.364   4.654 -1.6975 -0.0416 -1.8616
17567TIP3   OH274191   3.951   4.336   6.158  0.6566  0.5854 -0.0102
17567TIP3    H174192   4.006   4.351   6.235 -0.0765 -0.7915  0.8181
17567TIP3    H274193   3.861   4.350   6.189  0.1441 -2.3060  0.0858
17568TIP3   OH274194   3.751   6.228  12.006  0.1957 -0.3729 -0.4737
17568TIP3    H174195   3.673   6.172  12.010 -0.2520  0.3111  0.8438
17568TIP3    H274196   3.815   6.183  12.061 -0.0610  0.2332  0.3352
17569TIP3   OH274197   0.129   6.338   4.477 -0.5681 -0.5930 -0.1422
17569TIP3    H174198   0.189   6.280   4.523  0.1291 -0.3154 -0.6811
17569TIP3    H274199   0.070   6.370   4.544  0.1708 -0.5204  0.4871
17570TIP3   OH274200   6.348   1.316   4.943  0.2359 -0.4302  0.4789
17570TIP3    H174201   6.272   1.372   4.953 -0.4336 -1.1467 -0.4364
17570TIP3    H274202   6.423   1.372   4.964 -0.5626  0.1435  1.8597
17571TIP3   OH274203   1.765   6.425  13.506  0.0466 -0.2557  1.1496
17571TIP3    H174204   1.744   6.507  13.461 -1.7083 -0.4756  1.5188
17571TIP3    H274205   1.853   6.404  13.475 -0.9551 -0.3247 -2.1171
17572TIP3   OH274206   1.358   1.317  14.429 -0.0145  0.5141  0.6503
17572TIP3    H174207   1.355   1.308  14.334 -0.7045  1.0842  0.6082
17572TIP3    H274208   1.451   1.317  14.450  0.1408 -0.1695  0.0382
17573TIP3   OH274209   4.512   5.499   1.590 -0.0986 -0.0888  0.2220
17573TIP3    H174210   4.607   5.511   1.592  0.1765 -1.9458  1.8626
17573TIP3    H274211   4.501   5.404   1.581 -1.8557  0.2278 -1.6090
17574TIP3   OH274212   0.757   0.585   4.865 -0.0473 -0.6710 -0.5243
17574TIP3    H174213   0.833   0.528   4.853 -0.3810 -1.3993  0.6667
17574TIP3    H274214   0.758   0.642   4.788  1.3445 -1.0681 -0.8367
17575TIP3   OH274215   1.594   0.791   4.842 -0.3613  0.8473  0.8064
17575TIP3    H174216   1.509   0.809   4.802  0.8357  3.1487 -1.0061
17575TIP3    H274217   1.620   0.706   4.807 -1.8536  0.1739  1.2931
17576TIP3   OH274218   3.194   3.809  12.242  0.0785  0.8311  0.0517
17576TIP3    H174219   3.114   3.853  12.273  0.9268  2.3863  0.1566
17576TIP3    H274220   3.204   3.733  12.300 -1.4186  0.4943 -0.0919
17577TIP3   OH274221   4.915   4.350   2.448 -0.1957 -0.2565  0.0605
17577TIP3    H174222   4.991   4.321   2.498  1.5223  0.3357 -2.0235
17577TIP3    H274223   4.850   4.281   2.459  1.3812 -1.7438  0.3760
17578TIP3   OH274224   4.762   1.591  12.638 -0.3089 -0.6153 -0.2375
17578TIP3    H174225   4.753   1.670  12.585 -1.4916 -0.9441 -0.5539
17578TIP3    H274226   4.675   1.551  12.637 -0.2817 -0.8315  1.6347
17579TIP3   OH274227   3.817   1.482   3.910 -0.1593 -0.6263  0.0952
17579TIP3    H174228   3.746   1.520   3.858 -2.1503  0.7292  3.4319
17579TIP3    H274229   3.876   1.556   3.927  1.6953 -1.5502 -1.9038
17580TIP3   OH274230   3.640   4.334   0.945  0.1303  0.3669 -0.0035
17580TIP3    H174231   3.568   4.388   0.913  1.7828  1.8069 -1.5051
17580TIP3    H274232   3.605   4.245   0.946 -1.1750  0.7833 -2.3215
17581TIP3   OH274233   6.570   1.122   4.583  0.3646  0.5258  0.5869
17581TIP3    H174234   6.564   1.071   4.664  0.2241  1.0449  0.9114
17581TIP3    H274235   6.507   1.193   4.595  0.8166  0.9860  0.2966
17582TIP3   OH274236   4.902   2.688   1.949  0.4042 -0.0109  0.0143
17582TIP3    H174237   4.853   2.751   1.895  2.9838  2.0747 -0.1122
17582TIP3    H274238   4.905   2.609   1.895 -1.5770  0.2308 -0.5429
17583TIP3   OH274239   0.772   5.290   0.215  0.3212  0.3088  0.4219
17583TIP3    H174240   0.679   5.271   0.229  0.0821 -1.8273 -2.8379
17583TIP3    H274241   0.816   5.206   0.229  1.3670  0.6568 -0.6232
17584TIP3   OH274242   3.999   1.088   1.117 -0.3793  0.3198 -0.3421
17584TIP3    H174243   3.951   1.089   1.034 -1.5850  0.4252  0.3315
17584TIP3    H274244   4.059   1.162   1.111 -0.8340  0.6492 -0.9071
17585TIP3   OH274245   2.294   3.919   2.407 -0.6688 -0.1815 -0.1190
17585TIP3    H174246   2.208   3.939   2.371 -0.3127 -1.1437 -1.6003
17585TIP3    H274247   2.276   3.860   2.481 -1.2540 -1.3658 -1.1673
17586TIP3   OH274248   0.036   3.417   0.397  0.9350  0.1311  0.4392
17586TIP3    H174249   0.116   3.410   0.449  1.0921  1.7089  0.4441
17586TIP3    H274250   0.047   3.496   0.345 -0.6578  0.4568  0.5261
17587TIP3   OH274251   1.422   0.539  15.255  0.1690 -0.1683  0.2494
17587TIP3    H174252   1.444   0.532  15.348 -0.9201  2.3504  0.7906
17587TIP3    H274253   1.348   0.480  15.243  0.2756 -0.4673  1.0087
17588TIP3   OH274254   1.160   1.782  15.703  0.6242 -0.1891 -0.6395
17588TIP3    H174255   1.078   1.831  15.706 -0.9423 -2.7005  0.0852
17588TIP3    H274256   1.226   1.844  15.734 -1.2928  1.3156  0.6446
17589TIP3   OH274257   5.902   4.675  15.497 -0.1876 -0.4130 -0.4030
17589TIP3    H174258   5.927   4.651  15.587 -1.8382 -0.8804 -0.0252
17589TIP3    H274259   5.929   4.600  15.444  0.9397 -0.0664 -0.3444
17590TIP3   OH274260   2.514   4.131  16.253 -0.5493 -0.5888 -0.5114
17590TIP3    H174261   2.512   4.178  16.169  0.7110 -1.8104 -1.2679
17590TIP3    H274262   2.432   4.082  16.254 -1.3508  0.7112 -0.2283
17591TIP3   OH274263   0.058   1.572   3.775 -0.2455  0.0950  0.2634
17591TIP3    H174264   0.144   1.604   3.748 -0.0017 -2.0098 -1.7050
17591TIP3    H274265   0.064   1.567   3.871  1.8276  0.0137  0.1706
17592TIP3   OH274266   4.223   1.439  12.539 -0.6602  0.2878 -0.2645
17592TIP3    H174267   4.150   1.494  12.508 -1.2340 -0.2383  0.1210
17592TIP3    H274268   4.297   1.463  12.483 -1.1156  0.8770 -0.6254
17593TIP3   OH274269   5.228   3.823   6.129 -0.4029 -0.2167 -0.4641
17593TIP3    H174270   5.193   3.791   6.213  1.1138  0.1455  0.3516
17593TIP3    H274271   5.185   3.908   6.116 -0.5248 -0.1986  0.0357
17594TIP3   OH274272   0.102   6.661   2.194 -0.1777 -0.1849  0.2221
17594TIP3    H174273   0.156   6.670   2.116 -1.5638 -0.6422 -0.8153
17594TIP3    H274274   0.046   6.739   2.195 -0.3691 -0.3211  0.6110
17595TIP3   OH274275   3.291   1.457   3.359  0.2508 -0.0695  0.2396
17595TIP3    H174276   3.304   1.460   3.265 -0.8866  1.7094  0.0942
17595TIP3    H274277   3.360   1.513   3.395 -1.0703  1.6607  0.1928
17596TIP3   OH274278   0.221   0.992  12.707 -0.2147  0.5111  0.0649
17596TIP3    H174279   0.146   0.975  12.650  1.4057 -0.0889 -2.0181
17596TIP3    H274280   0.265   0.908  12.714  1.1780  1.1921 -0.1546
17597TIP3   OH274281   5.701   3.391   4.492  0.0237  0.2686  0.2526
17597TIP3    H174282   5.792   3.393   4.463  0.9454  1.2969  2.9142
17597TIP3    H274283   5.657   3.457   4.439  0.9266  0.1200 -0.7131
17598TIP3   OH274284   6.237   3.272   4.032 -0.1854  0.1430 -0.3026
17598TIP3    H174285   6.228   3.176   4.030 -0.3669  0.1733 -1.5476
17598TIP3    H274286   6.177   3.303   3.964  1.6741  0.9804 -1.6388
17599TIP3   OH274287   5.461   5.499   4.020  0.3769 -0.0591 -1.0489
17599TIP3    H174288   5.469   5.510   4.114 -0.5585 -2.0824 -0.6915
17599TIP3    H274289   5.368   5.514   4.002  0.2368 -1.2641 -1.3912
17600TIP3   OH274290   0.139   1.419   2.390  0.0631 -0.9323  0.5261
17600TIP3    H174291   0.091   1.338   2.378  0.1505 -0.6867 -1.8722
17600TIP3    H274292   0.084   1.486   2.350  1.0020 -0.1768  0.4559
17601TIP3   OH274293   4.767   6.719  14.075  0.7393 -0.4812 -1.3572
17601TIP3    H174294   4.746   6.813  14.073  0.3428 -0.5534 -0.8183
17601TIP3    H274295   4.698   6.680  14.129  1.5588 -0.9078 -0.5857
17602TIP3   OH274296   0.464   3.951  16.484  0.0392 -0.3166 -0.5124
17602TIP3    H174297   0.523   3.899  16.538 -1.3889 -0.8496  0.5953
17602TIP3    H274298   0.495   4.041  16.495  0.3374 -0.5207  0.4727
17603TIP3   OH274299   6.635   5.414   0.267  0.0984  0.2852 -0.1425
17603TIP3    H174300   6.666   5.485   0.211  0.6545  0.9139  0.9287
17603TIP3    H274301   6.541   5.429   0.275  0.1739  0.7777 -0.1146
17604TIP3   OH274302   2.922   5.793  15.215  0.0081 -0.0919 -0.2835
17604TIP3    H174303   2.912   5.841  15.133  0.9541  1.4400  0.4593
17604TIP3    H274304   2.832   5.775  15.243 -0.3913  1.7679 -0.3026
17605TIP3   OH274305   3.868   2.808   1.064 -0.2404 -0.2075  0.2010
17605TIP3    H174306   3.879   2.812   1.159  0.2683 -0.1102  0.1415
17605TIP3    H274307   3.958   2.803   1.030 -0.3657  0.7155 -0.3137
17606TIP3   OH274308   1.834   4.463  14.312 -0.1681 -0.0482 -0.3175
17606TIP3    H174309   1.872   4.381  14.280  1.0387  0.6912 -0.8299
17606TIP3    H274310   1.902   4.528  14.298 -2.0919  1.6345 -2.6109
17607TIP3   OH274311   0.130   2.877  16.560 -0.0356 -0.0471  0.2434
17607TIP3    H174312   0.103   2.880  16.651  0.0624  1.0067  0.2494
17607TIP3    H274313   0.214   2.923  16.558  0.1983 -0.4842 -0.2961
17608TIP3   OH274314   5.644   4.330   4.974 -0.5363  0.4576 -0.1149
17608TIP3    H174315   5.728   4.286   4.960 -1.5640 -0.9181 -2.4545
17608TIP3    H274316   5.599   4.276   5.039  0.4161  1.3259  1.3201
17609TIP3   OH274317   5.543   2.468   4.631  0.4139 -0.1906  0.1509
17609TIP3    H174318   5.588   2.515   4.562  0.7848 -0.7087  0.0384
17609TIP3    H274319   5.567   2.514   4.712  1.5726 -0.7654  0.1570
17610TIP3   OH274320   6.073   6.232  12.002 -0.1420 -0.5527 -0.2814
17610TIP3    H174321   6.080   6.244  12.096  0.5288 -2.8891  0.0240
17610TIP3    H274322   6.148   6.279  11.966 -0.8227  1.0084  0.2125
17611TIP3   OH274323   4.143   1.762  13.981 -0.4408  0.2154 -0.5222
17611TIP3    H174324   4.160   1.807  14.064 -1.3345 -1.0080  0.3608
17611TIP3    H274325   4.080   1.694  14.003  0.7786 -1.4298 -1.8295
17612TIP3   OH274326   0.059   6.013  10.377 -0.0367  0.7735  0.3837
17612TIP3    H174327   0.131   6.045  10.322 -1.5103  2.2027 -0.8039
17612TIP3    H274328   0.021   5.941  10.327 -0.2009  0.8295  0.4277
17613TIP3   OH274329   5.129   6.825   1.143  0.1511  0.3306 -0.1064
17613TIP3    H174330   5.088   6.773   1.212  0.9014 -2.0795 -1.3429
17613TIP3    H274331   5.078   6.804   1.064  3.9894 -3.7374 -1.9851
17614TIP3   OH274332   4.078   6.406   4.574  0.3475 -0.6016 -0.2401
17614TIP3    H174333   4.036   6.422   4.489  0.0300 -0.9703 -0.1587
17614TIP3    H274334   4.171   6.425   4.559  0.1098  0.5074 -0.3438
17615TIP3   OH274335   0.130   6.400   4.182 -0.4623 -0.2394  0.1720
17615TIP3    H174336   0.208   6.454   4.170 -0.1338 -0.9753 -1.1120
17615TIP3    H274337   0.121   6.391   4.277  0.7254  0.2607  0.3417
17616TIP3   OH274338   4.240   5.632  11.259 -0.1543  0.1134  0.1115
17616TIP3    H174339   4.159   5.655  11.214  2.2268  1.2364 -4.2099
17616TIP3    H274340   4.264   5.711  11.307 -2.1137 -0.6933  2.6875
17617TIP3   OH274341   2.796   6.382   1.447  0.3792 -0.3369  0.0089
17617TIP3    H174342   2.762   6.374   1.358 -3.0408 -0.6444  1.1903
17617TIP3    H274343   2.849   6.303   1.460  1.3398 -0.0435 -1.8531
17618TIP3   OH274344   0.042   4.554   0.764  0.2242 -0.0786  0.2119
17618TIP3    H174345  -0.021   4.610   0.810  1.1183 -0.2258  1.6810
17618TIP3    H274346  -0.010   4.506   0.700 -0.8573  1.0927  0.1804
17619TIP3   OH274347   5.475   0.647  10.997 -0.1392 -0.0540  0.1367
17619TIP3    H174348   5.484   0.621  11.088  0.2083  1.1413  0.4637
17619TIP3    H274349   5.464   0.742  11.000 -2.3775 -0.2089 -0.9218
17620TIP3   OH274350   4.383   3.241   1.778  0.0261  0.3257  0.3049
17620TIP3    H174351   4.332   3.215   1.854  0.0478 -0.9186 -0.0907
17620TIP3    H274352   4.362   3.334   1.766 -1.2109  0.1379  0.8658
17621TIP3   OH274353   2.699   1.254   2.228 -0.1301  0.5379  0.4871
17621TIP3    H174354   2.711   1.265   2.134 -0.8877 -1.1474  0.1481
17621TIP3    H274355   2.627   1.190   2.236  1.9152 -1.7631  2.1027
17622TIP3   OH274356   3.236   1.719  11.020  0.2920  0.2915  0.1001
17622TIP3    H174357   3.208   1.793  10.965 -0.4420  0.4702  0.6936
17622TIP3    H274358   3.291   1.666  10.962 -0.2365  0.6182 -0.7278
17623TIP3   OH274359   2.445   6.698   4.302  0.0972 -0.2814  0.1617
17623TIP3    H174360   2.518   6.743   4.259 -0.5824  1.7783  1.0421
17623TIP3    H274361   2.485   6.658   4.380  0.6151 -0.7836 -0.3513
17624TIP3   OH274362   4.358   3.926  12.586 -0.1139  0.5064 -0.6858
17624TIP3    H174363   4.401   3.851  12.545  1.5762  0.9169  0.2481
17624TIP3    H274364   4.326   3.893  12.670  0.9480  0.8898 -0.1144
17625TIP3   OH274365   1.886   5.674  14.578  0.0829 -0.0212 -0.4763
17625TIP3    H174366   1.976   5.648  14.557  0.2998  1.2848 -1.2317
17625TIP3    H274367   1.838   5.591  14.583  1.3318 -0.7429  0.0023
17626TIP3   OH274368   2.108   3.930  12.672  0.2608 -0.0438  0.6399
17626TIP3    H174369   2.053   3.870  12.722  2.4971 -0.4256  2.8122
17626TIP3    H274370   2.184   3.877  12.646 -0.6242  0.1935 -3.1117
17627TIP3   OH274371   3.833   6.172   3.829  0.0580 -0.2754 -0.2772
17627TIP3    H174372   3.765   6.162   3.896  0.9916 -1.1036  0.5912
17627TIP3    H274373   3.844   6.266   3.819 -0.1006 -0.1370  0.7543
17628TIP3   OH274374   4.642   3.295   3.231  0.5177 -0.2823 -0.0891
17628TIP3    H174375   4.666   3.208   3.263 -0.0536 -0.6150 -0.5466
17628TIP3    H274376   4.670   3.296   3.140 -2.4024 -1.2421 -1.1277
17629TIP3   OH274377   2.573   5.347   5.986 -0.7232  0.5573 -0.2201
17629TIP3    H174378   2.642   5.282   6.000  0.0044  0.9416 -1.7688
17629TIP3    H274379   2.582   5.408   6.059  2.2735  1.9934 -1.6457
17630TIP3   OH274380   1.182   3.198  14.823 -0.0380 -0.2644 -0.2885
17630TIP3    H174381   1.219   3.161  14.742 -0.6052 -1.2364 -0.1277
17630TIP3    H274382   1.104   3.245  14.794 -0.6265 -1.1860 -0.2539
17631TIP3   OH274383   2.911   6.778  15.521  0.5909  0.3694  0.1999
17631TIP3    H174384   2.927   6.738  15.607 -0.9006  1.2257  0.9245
17631TIP3    H274385   2.916   6.872  15.538 -0.3624  0.5613 -0.4931
17632TIP3   OH274386   3.400   4.230   2.146  0.2634 -0.7443  0.5163
17632TIP3    H174387   3.480   4.231   2.199 -0.1267 -0.1623  1.1102
17632TIP3    H274388   3.360   4.145   2.164 -0.6340  0.0160  2.3572
17633TIP3   OH274389   2.834   3.092   5.735 -0.1902 -0.1861  0.4767
17633TIP3    H174390   2.746   3.060   5.754  0.1433 -0.5351  1.5122
17633TIP3    H274391   2.892   3.030   5.780  0.5692  0.2732  0.1502
17634TIP3   OH274392   3.473   4.911  15.304 -0.2765  0.8837 -0.1622
17634TIP3    H174393   3.389   4.928  15.347  0.5152 -0.7204  2.1855
17634TIP3    H274394   3.467   4.821  15.273  1.3727 -0.1514  2.2460
17635TIP3   OH274395   6.575   2.605   2.480 -0.0475 -0.1530  0.0528
17635TIP3    H174396   6.561   2.517   2.445  0.4001 -0.3239  0.2969
17635TIP3    H274397   6.584   2.593   2.574  0.4869  0.0985  0.0362
17636TIP3   OH274398   3.438   0.421  12.281  0.0771  0.1639 -0.3483
17636TIP3    H174399   3.357   0.468  12.302  1.7569  2.7628  0.8178
17636TIP3    H274400   3.453   0.365  12.357 -1.0643 -1.0729 -0.9941
17637TIP3   OH274401   3.392   2.831  12.417 -0.1654 -0.9724  0.7835
17637TIP3    H174402   3.336   2.760  12.448  0.6786 -1.5726  0.9734
17637TIP3    H274403   3.433   2.866  12.496 -1.9449  0.9864  0.9381
17638TIP3   OH274404   5.403   4.120   4.390  0.3746 -0.1354 -0.4016
17638TIP3    H174405   5.419   4.105   4.297 -0.5786  1.4936 -0.8717
17638TIP3    H274406   5.319   4.167   4.393 -1.0609 -2.5215  1.4536
17639TIP3   OH274407   0.580   5.048  17.225 -0.4951 -0.2525  0.4970
17639TIP3    H174408   0.599   5.141  17.235 -1.2226 -0.0550  0.1106
17639TIP3    H274409   0.510   5.044  17.160 -0.8655 -1.0336  0.9244
17640TIP3   OH274410   2.607   3.306  16.135  0.0858 -0.3549  0.0950
17640TIP3    H174411   2.524   3.259  16.126 -1.0529  1.9029 -2.1254
17640TIP3    H274412   2.597   3.357  16.215 -2.1530  2.4265 -1.7821
17641TIP3   OH274413   3.131   6.347   4.013 -0.4809 -0.1968 -0.0614
17641TIP3    H174414   3.193   6.276   4.029 -0.5665 -0.3257 -0.2979
17641TIP3    H274415   3.103   6.335   3.922 -1.0791 -0.3191  0.1312
17642TIP3   OH274416   5.355   0.250   5.316  0.3781 -0.0932  0.5000
17642TIP3    H174417   5.341   0.313   5.245 -1.5296 -0.7289  0.2491
17642TIP3    H274418   5.285   0.269   5.378 -0.6192 -2.3049  0.1407
17643TIP3   OH274419   0.492   3.921   5.382 -0.0445 -0.0551  0.0152
17643TIP3    H174420   0.549   3.970   5.323  0.5886 -0.1435  0.5466
17643TIP3    H274421   0.532   3.834   5.386 -1.3644 -0.7777 -1.2328
17644TIP3   OH274422   2.503   3.782   4.795  0.5189  0.6151  0.6542
17644TIP3    H174423   2.562   3.713   4.824  0.1560  0.2042  0.4119
17644TIP3    H274424   2.418   3.740   4.787  0.8966  0.2182 -2.7598
17645TIP3   OH274425   4.761   5.322  17.060 -0.6479 -0.0987  0.4665
17645TIP3    H174426   4.682   5.330  17.113 -0.5064 -2.4917  1.1394
17645TIP3    H274427   4.833   5.333  17.123 -0.4830 -1.4317  0.5470
17646TIP3   OH274428   0.261   0.475  16.365 -0.5659  0.7957 -0.5309
17646TIP3    H174429   0.251   0.488  16.459 -1.2357 -0.3035 -0.4241
17646TIP3    H274430   0.204   0.400  16.345  1.2649 -0.4285 -1.4265
17647TIP3   OH274431   1.584   2.858  16.423  0.8396  0.1664  0.0862
17647TIP3    H174432   1.631   2.873  16.341 -2.0720  2.3167 -1.3628
17647TIP3    H274433   1.652   2.866  16.491  3.0280  0.1150 -1.9415
17648TIP3   OH274434   2.411   5.468  11.383  0.0177 -0.5054  0.1858
17648TIP3    H174435   2.445   5.406  11.448  2.1031 -0.8259 -1.1073
17648TIP3    H274436   2.461   5.449  11.304 -2.1005  0.2105 -1.4021
17649TIP3   OH274437   5.378   2.469  17.228  0.4192 -0.2742 -0.0761
17649TIP3    H174438   5.420   2.518  17.299 -0.7420 -0.9457  1.1441
17649TIP3    H274439   5.450   2.440  17.172  1.2624  1.3579  0.1046
17650TIP3   OH274440   1.869   3.670   1.813  0.1535 -0.3176  0.4479
17650TIP3    H174441   1.931   3.734   1.847  0.3040 -0.5080  0.5337
17650TIP3    H274442   1.921   3.611   1.758  0.1194 -0.7029  0.8217
17651TIP3   OH274443   4.870   2.980  10.798  0.1694  0.2692 -0.5271
17651TIP3    H174444   4.959   3.011  10.780  0.0658  1.3658  0.7196
17651TIP3    H274445   4.834   2.959  10.711  1.7054 -0.4155 -1.0307
17652TIP3   OH274446   5.083   6.778  16.091  0.1834 -0.5838  0.0477
17652TIP3    H174447   5.131   6.791  16.173  0.9513  1.6014 -0.6829
17652TIP3    H274448   5.149   6.743  16.031  0.3798  0.5335 -0.4061
17653TIP3   OH274449   2.878   5.697  14.830 -0.1115  0.8535  0.7516
17653TIP3    H174450   2.801   5.752  14.814 -1.2760 -1.3240 -2.0213
17653TIP3    H274451   2.930   5.706  14.750  0.0348 -1.3997  0.5492
17654TIP3   OH274452   3.909   3.630  11.918  0.0032  0.6925  0.2052
17654TIP3    H174453   3.868   3.653  12.001  0.5647  0.2154  0.6282
17654TIP3    H274454   3.941   3.541  11.931  1.1849  1.0459 -0.0815
17655TIP3   OH274455   1.295   5.676   2.536  0.1336 -0.0944 -0.2637
17655TIP3    H174456   1.217   5.661   2.482  0.7821  0.9286 -1.5559
17655TIP3    H274457   1.366   5.637   2.485  0.5823 -0.2762  0.4958
17656TIP3   OH274458   2.812   3.604   4.236 -0.2055 -0.5829  0.2401
17656TIP3    H174459   2.870   3.587   4.162 -0.3264  0.4050 -0.0844
17656TIP3    H274460   2.775   3.691   4.220 -1.4806 -1.0227  0.6413
17657TIP3   OH274461   6.453   3.374   0.178  0.2365 -0.8578 -0.1363
17657TIP3    H174462   6.495   3.451   0.217  0.0544 -2.1311  2.8574
17657TIP3    H274463   6.363   3.402   0.161  0.0489 -0.4968  1.3374
17658TIP3   OH274464   5.089   0.176   4.144 -0.0130  0.2211 -0.1448
17658TIP3    H174465   5.180   0.204   4.137  0.1376  0.2006  1.3590
17658TIP3    H274466   5.060   0.210   4.229 -0.0681 -3.3670  1.4689
17659TIP3   OH274467   4.326   5.915  13.777  0.6475 -0.0304 -0.1040
17659TIP3    H174468   4.269   5.982  13.738 -1.2926 -2.6991 -2.2190
17659TIP3    H274469   4.284   5.893  13.860  0.0259 -0.1937 -0.4576
17660TIP3   OH274470   6.403   4.956   5.419 -0.1901  0.6401  0.4294
17660TIP3    H174471   6.488   4.990   5.393  1.6358 -2.1344  2.2442
17660TIP3    H274472   6.374   4.905   5.344  0.4511  0.4159  0.3275
17661TIP3   OH274473   6.010   4.553   3.362  0.0731  0.3119 -0.3839
17661TIP3    H174474   5.920   4.557   3.394 -0.0420 -2.1893 -0.2472
17661TIP3    H274475   6.047   4.638   3.388 -1.4097  0.3199  2.1057
17662TIP3   OH274476   3.894   0.782   6.485 -0.0266  0.3470  0.1214
17662TIP3    H174477   3.943   0.703   6.503 -0.2496  0.1256 -0.2362
17662TIP3    H274478   3.960   0.847   6.459  0.4721  1.0414  2.8228
17663TIP3   OH274479   6.641   2.700   0.423 -0.8036  0.5532  0.4944
17663TIP3    H174480   6.559   2.653   0.438 -2.6927  2.8381 -1.6388
17663TIP3    H274481   6.641   2.718   0.329  1.8377  1.2583  0.5533
17664TIP3   OH274482   5.795   4.651  14.530  0.1022 -0.0918  0.0635
17664TIP3    H174483   5.733   4.636  14.458  0.8395  2.2581 -1.1404
17664TIP3    H274484   5.829   4.739  14.515  0.5348  0.3834  3.1411
17665TIP3   OH274485   1.569   3.507   3.013 -0.1215  0.4910  0.0674
17665TIP3    H174486   1.589   3.547   2.927 -0.2298 -1.4716 -0.9176
17665TIP3    H274487   1.478   3.478   3.005  0.1462 -0.4997  0.5049
17666TIP3   OH274488   4.586   1.024  13.691  0.1025  0.0677 -0.3207
17666TIP3    H174489   4.623   0.949  13.644  0.3333  0.0088 -0.0487
17666TIP3    H274490   4.657   1.054  13.748 -0.5343 -0.6271  0.8936
17667TIP3   OH274491   2.674   6.821  14.443 -0.3022 -0.1861  0.0235
17667TIP3    H174492   2.639   6.737  14.413  0.0042  0.0455 -1.0408
17667TIP3    H274493   2.601   6.883  14.432 -0.2712 -0.1536  0.0011
17668TIP3   OH274494   1.521   0.871  12.926  0.3160 -0.1087  0.1729
17668TIP3    H174495   1.473   0.921  12.860  0.4397 -0.7586 -0.4260
17668TIP3    H274496   1.586   0.822  12.876 -0.0342 -1.1342  0.6909
17669TIP3   OH274497   6.780   6.018  13.936  0.0433  0.0421  0.7070
17669TIP3    H174498   6.779   6.089  13.872  1.2304  0.0660  0.7032
17669TIP3    H274499   6.801   6.059  14.019  1.2959 -0.3544  0.6084
17670TIP3   OH274500   6.307   2.715  14.260 -0.2189  0.2019  0.1410
17670TIP3    H174501   6.298   2.748  14.349  0.0282  0.8898 -0.0818
17670TIP3    H274502   6.217   2.713  14.226 -0.3554 -0.4233  0.5256
17671TIP3   OH274503   0.934   2.822  10.522  0.6567  0.1867 -0.0011
17671TIP3    H174504   0.880   2.799  10.447  1.0477 -0.3279 -0.1295
17671TIP3    H274505   0.882   2.795  10.598 -0.6049  2.5010  0.0240
17672TIP3   OH274506   4.957   3.137  11.756 -0.0440  0.0030 -0.1567
17672TIP3    H174507   5.013   3.200  11.802  0.4291  0.4536 -1.3091
17672TIP3    H274508   4.991   3.136  11.666  0.0707 -2.0329 -0.1303
17673TIP3   OH274509   3.240   2.028   3.044  0.4140 -0.1201  0.0591
17673TIP3    H174510   3.278   1.981   2.970  0.8909 -1.3765  1.0845
17673TIP3    H274511   3.304   2.097   3.064 -0.2992  1.0627 -1.4579
17674TIP3   OH274512   1.725   5.551   2.234  0.4317  0.5972 -0.0010
17674TIP3    H174513   1.633   5.569   2.255  0.0584 -0.0600 -0.9768
17674TIP3    H274514   1.758   5.634   2.201 -0.1967  0.5253 -0.8693
17675TIP3   OH274515   1.185   0.874   6.311 -0.0426  0.3152 -0.0781
17675TIP3    H174516   1.229   0.813   6.370 -1.0104 -0.8804 -0.5522
17675TIP3    H274517   1.189   0.958   6.357 -1.2113 -0.6614  1.9646
17676TIP3   OH274518   5.998   0.065  11.416 -0.2851 -0.1763  0.4268
17676TIP3    H174519   6.039   0.025  11.493  1.8309  0.3242 -0.3736
17676TIP3    H274520   6.049   0.145  11.401 -0.4401 -0.4193 -1.6587
17677TIP3   OH274521   6.243   1.928  16.663 -0.4069 -0.0071 -0.1928
17677TIP3    H174522   6.159   1.956  16.699 -0.5962 -1.0258  0.1830
17677TIP3    H274523   6.300   1.920  16.739 -0.3054 -0.4640 -0.3174
17678TIP3   OH274524   4.209   0.448   4.147  0.4361  0.0424  0.4310
17678TIP3    H174525   4.263   0.375   4.177 -1.0305 -1.1737  0.2615
17678TIP3    H274526   4.126   0.407   4.121 -0.5738  1.8187  0.6833
17679TIP3   OH274527   4.550   3.525   2.554  0.2186 -0.3166  0.3234
17679TIP3    H174528   4.527   3.611   2.519 -3.4011 -0.5019  1.8894
17679TIP3    H274529   4.603   3.544   2.632 -0.6323  0.5012  0.7123
17680TIP3   OH274530   6.469   5.857   5.065  0.3552  0.4111  0.4059
17680TIP3    H174531   6.463   5.763   5.081 -1.1298 -0.0352 -2.1603
17680TIP3    H274532   6.495   5.864   4.973  0.1598  2.5151  0.4543
17681TIP3   OH274533   2.936   3.070   2.989  0.0163  0.1574 -0.1836
17681TIP3    H174534   2.928   3.126   2.911 -1.1657  2.7585  1.6625
17681TIP3    H274535   3.027   3.078   3.016 -0.0410  0.8771 -0.1874
17682TIP3   OH274536   1.709   6.463  14.949  0.0140 -0.6981  0.4560
17682TIP3    H174537   1.690   6.552  14.980 -0.9328 -1.7943  3.4190
17682TIP3    H274538   1.675   6.461  14.860  1.7593  2.4104 -0.4136
17683TIP3   OH274539   4.480   4.220   0.533  0.0761  0.0759 -0.0391
17683TIP3    H174540   4.562   4.177   0.558  1.4185  1.6053 -1.5363
17683TIP3    H274541   4.505   4.312   0.521 -1.2599  0.1413 -3.0704
17684TIP3   OH274542   3.320   3.252   5.226  0.2856 -0.2368  0.3268
17684TIP3    H174543   3.338   3.160   5.205  2.4677  0.1060  0.5023
17684TIP3    H274544   3.263   3.249   5.303  0.4769 -1.4248  0.4308
17685TIP3   OH274545   6.813   4.718   0.003 -0.1779 -0.0793 -0.3299
17685TIP3    H174546   6.811   4.752  -0.086 -1.2979  0.1868 -0.2135
17685TIP3    H274547   6.735   4.754   0.045  0.0630 -0.6077  0.6093
17686TIP3   OH274548   2.404   0.090  16.492 -0.4761 -0.2140  0.1684
17686TIP3    H174549   2.427   0.016  16.549  1.9697 -0.9336 -1.5795
17686TIP3    H274550   2.422   0.168  16.546  1.0083 -0.8735  0.6757
17687TIP3   OH274551   6.208   0.679  14.884 -0.0053 -0.2229 -0.0033
17687TIP3    H174552   6.276   0.727  14.837 -0.8744  1.1587  0.0988
17687TIP3    H274553   6.170   0.621  14.818  0.1016  0.2576 -0.4908
17688TIP3   OH274554   6.615   3.374   1.391  0.8043  0.4742  0.3482
17688TIP3    H174555   6.650   3.386   1.479 -0.0147  0.6174  0.6612
17688TIP3    H274556   6.531   3.330   1.404  0.5189  0.7988 -0.3391
17689TIP3   OH274557   3.835   0.951  16.162  0.3047 -0.2152 -0.1312
17689TIP3    H174558   3.895   0.878  16.175  0.3590 -0.3592 -1.1235
17689TIP3    H274559   3.771   0.943  16.233  0.2394 -1.2948 -0.2991
17690TIP3   OH274560   3.068   5.696  15.638  0.2076  0.6463  0.0719
17690TIP3    H174561   3.142   5.717  15.695 -0.3257  2.0805  0.2688
17690TIP3    H274562   2.992   5.700  15.696 -0.0797 -0.4563 -0.2075
17691TIP3   OH274563   3.595   2.996   4.952  0.0225  0.0689  0.6482
17691TIP3    H174564   3.552   2.948   4.881 -0.4971 -1.1289  1.7162
17691TIP3    H274565   3.632   3.073   4.910  0.6724 -1.1238 -1.1304
17692TIP3   OH274566   1.473   0.857  15.469 -0.4882  0.1933 -0.2448
17692TIP3    H174567   1.556   0.835  15.428  0.0336  0.7891  0.4594
17692TIP3    H274568   1.408   0.804  15.423  0.1621  0.3462 -1.3726
17693TIP3   OH274569   2.684   1.210  11.840  0.1430  0.1825  0.2466
17693TIP3    H174570   2.625   1.227  11.914  0.5407  0.0103  0.6065
17693TIP3    H274571   2.744   1.285  11.840 -1.2584  1.3885 -1.3285
17694TIP3   OH274572   5.757   5.236   2.338 -0.1645  0.0527 -0.2794
17694TIP3    H174573   5.754   5.157   2.285  0.1579 -0.3347  0.2688
17694TIP3    H274574   5.726   5.209   2.424  0.1972  0.4563 -0.0143
17695TIP3   OH274575   5.489   4.302  11.797 -0.4807 -0.5428  0.4397
17695TIP3    H174576   5.410   4.352  11.816  0.0040  0.3476  0.1861
17695TIP3    H274577   5.560   4.367  11.798  0.2426 -1.3101  0.6151
17696TIP3   OH274578   4.018   2.875  10.676 -0.5492 -0.4707 -0.3757
17696TIP3    H174579   4.024   2.910  10.765 -1.0589 -0.3260 -0.3965
17696TIP3    H274580   4.074   2.933  10.624  0.1993 -0.8908 -0.0580
17697TIP3   OH274581   3.708   1.310   0.515 -0.2324 -0.1982  0.2308
17697TIP3    H174582   3.794   1.318   0.555 -0.9357  1.5928  1.5033
17697TIP3    H274583   3.721   1.336   0.424  0.5300  0.3183  0.4798
17698TIP3   OH274584   6.503   4.817  16.500 -0.5727 -0.1064  0.0155
17698TIP3    H174585   6.461   4.742  16.458 -0.3782  0.5577 -1.4276
17698TIP3    H274586   6.499   4.798  16.594 -0.1174 -2.1222 -0.3323
17699TIP3   OH274587   5.040   6.569  15.292 -0.1841  0.4221  0.7519
17699TIP3    H174588   5.086   6.523  15.222 -1.4817 -0.1346  0.2457
17699TIP3    H274589   5.036   6.660  15.263  0.6160  0.4862  0.8213
17700TIP3   OH274590   4.198   2.749  16.423  0.0763  0.3617 -0.0138
17700TIP3    H174591   4.276   2.699  16.400  0.0493  0.5903 -0.6215
17700TIP3    H274592   4.154   2.695  16.489  0.6818  0.1755  0.2416
17701TIP3   OH274593   4.908   6.224  12.073  0.2012 -0.1798  0.0748
17701TIP3    H174594   4.979   6.228  12.010 -0.9183 -0.3020 -1.2410
17701TIP3    H274595   4.918   6.303  12.126  0.6064  0.4137 -0.8689
17702TIP3   OH274596   1.868   2.973  16.001 -0.3727  0.1776  0.8333
17702TIP3    H174597   1.836   2.886  15.977  0.6722  0.3692 -1.4881
17702TIP3    H274598   1.959   2.957  16.029  0.4273  0.6771 -1.3291
17703TIP3   OH274599   6.014   6.204  14.592 -0.3004  0.1616  0.0470
17703TIP3    H174600   6.018   6.275  14.528  1.2167 -1.7645 -2.1406
17703TIP3    H274601   6.105   6.193  14.620 -0.3046 -1.6781 -0.5725
17704TIP3   OH274602   3.201   4.624  12.071  0.4426 -0.1760 -0.4129
17704TIP3    H174603   3.213   4.715  12.047  1.2802  0.5949  2.6080
17704TIP3    H274604   3.239   4.575  11.998 -0.6501  1.8073 -2.4289
17705TIP3   OH274605   6.060   2.317  12.275  0.1101  0.1021  0.0266
17705TIP3    H174606   6.105   2.319  12.191  1.7503  0.1181  0.8668
17705TIP3    H274607   6.028   2.227  12.283 -1.5901  0.5358 -1.3423
17706TIP3   OH274608   0.358   3.006   0.177  0.4794  0.4871  0.8359
17706TIP3    H174609   0.289   2.941   0.166  0.2076  0.9733 -0.5173
17706TIP3    H274610   0.315   3.090   0.162  1.5320  0.7395 -1.0424
17707TIP3   OH274611   1.860   3.326  13.526  0.3126  0.0438 -0.4217
17707TIP3    H174612   1.834   3.307  13.436  0.8744 -2.4118 -0.1456
17707TIP3    H274613   1.953   3.348  13.520  0.3265 -0.0263 -0.4684
17708TIP3   OH274614   1.942   6.509  12.782  0.1061  0.0448 -0.9048
17708TIP3    H174615   2.030   6.536  12.808  0.9091 -2.2022 -1.1396
17708TIP3    H274616   1.947   6.501  12.686  0.2033 -1.7811 -0.7820
17709TIP3   OH274617   4.139   3.541  17.104 -0.2603 -0.0349 -0.0779
17709TIP3    H174618   4.101   3.475  17.163 -0.6666 -0.5975 -0.9420
17709TIP3    H274619   4.214   3.497  17.064  1.0975  0.9368  1.3065
17710TIP3   OH274620   5.899   1.306  13.711 -0.1511 -0.8423  1.1212
17710TIP3    H174621   5.805   1.287  13.708 -0.2065 -0.5702  1.1080
17710TIP3    H274622   5.909   1.386  13.659 -0.0750 -0.2123  2.0832
17711TIP3   OH274623   6.663   6.644   0.306 -0.3316  0.6792 -0.1110
17711TIP3    H174624   6.696   6.554   0.300 -0.4606  0.6341 -0.1418
17711TIP3    H274625   6.741   6.696   0.325 -0.0899  0.6851 -1.0727
17712TIP3   OH274626   0.355   4.650  17.099  0.9688 -0.3974 -0.0597
17712TIP3    H174627   0.306   4.642  17.018  1.3617  1.9968 -0.5862
17712TIP3    H274628   0.295   4.619  17.167 -0.4246  0.2938 -0.9464
17713TIP3   OH274629   1.614   3.212   3.308  0.4138 -0.4179 -0.2468
17713TIP3    H174630   1.596   3.301   3.278 -0.9761 -0.1564  1.2201
17713TIP3    H274631   1.702   3.217   3.346  0.1688  0.4481  0.2277
17714TIP3   OH274632   3.784   1.701  12.640  0.2410  0.7944  0.3443
17714TIP3    H174633   3.725   1.676  12.569  1.2780  0.2911 -0.3649
17714TIP3    H274634   3.786   1.625  12.698  1.5350  0.0925 -0.5629
17715TIP3   OH274635   2.730   5.664   0.643  0.1359  0.0636  0.1680
17715TIP3    H174636   2.761   5.664   0.734 -0.3891  3.4712  0.4481
17715TIP3    H274637   2.662   5.597   0.642 -0.6442  0.7013  2.6210
17716TIP3   OH274638   4.081   5.891  11.948 -0.2861  0.3430 -0.5495
17716TIP3    H174639   4.085   5.801  11.982  0.6241  0.0891 -1.2832
17716TIP3    H274640   4.052   5.943  12.022  1.0864 -0.2717  0.4656
17717TIP3   OH274641   1.982   1.544   4.508  0.0981  0.7170  0.0951
17717TIP3    H174642   2.037   1.470   4.534 -0.2341  0.9237  1.4582
17717TIP3    H274643   1.980   1.601   4.585 -1.8390  0.8154  0.0368
17718TIP3   OH274644   4.229   3.035   4.893 -0.8363  0.3721  1.1026
17718TIP3    H174645   4.316   3.041   4.853 -1.6482  0.0544 -0.7890
17718TIP3    H274646   4.220   2.942   4.915 -1.3171  0.0812 -0.2325
17719TIP3   OH274647   6.446   1.184   1.764 -0.6244 -0.3684  0.0091
17719TIP3    H174648   6.382   1.123   1.728 -0.7846  0.5528 -1.3402
17719TIP3    H274649   6.418   1.270   1.731  0.8165  0.1578  0.0897
17720TIP3   OH274650   0.364   2.524   5.016  0.0300  0.3173 -0.7835
17720TIP3    H174651   0.434   2.463   4.994  1.8531  2.1704 -0.3422
17720TIP3    H274652   0.328   2.491   5.098  2.5076  0.9937  0.6683
17721TIP3   OH274653   0.761   1.558  17.246  0.5276 -0.2333  0.7549
17721TIP3    H174654   0.791   1.475  17.210  1.4663  0.0690  0.8155
17721TIP3    H274655   0.666   1.551  17.247  0.4650 -0.3299 -1.5663
17722TIP3   OH274656   3.485   1.417  15.387  0.2902 -0.3706 -0.0425
17722TIP3    H174657   3.501   1.333  15.345 -0.7516  0.3462 -2.0216
17722TIP3    H274658   3.519   1.482  15.324  0.4927  0.7147  1.1392
17723TIP3   OH274659   1.769   6.801  17.144 -0.1916 -0.7181 -0.2586
17723TIP3    H174660   1.803   6.762  17.224 -0.8830  0.2975  0.5615
17723TIP3    H274661   1.747   6.891  17.169 -3.1357 -1.1906 -0.7982
17724TIP3   OH274662   2.372   0.349  16.305 -0.9678  0.7648 -0.1025
17724TIP3    H174663   2.459   0.375  16.336 -0.9566 -0.3347  0.8249
17724TIP3    H274664   2.354   0.266  16.349 -2.8949  1.4249  0.4805
17725TIP3   OH274665   6.499   0.452  12.199 -0.4092 -0.3223  0.1489
17725TIP3    H174666   6.591   0.478  12.196 -0.3498 -0.6053 -1.3821
17725TIP3    H274667   6.450   0.535  12.195 -0.2378 -0.1804  0.8186
17726TIP3   OH274668   6.730   5.279  15.285  0.7550  0.5179  0.3783
17726TIP3    H174669   6.751   5.250  15.374 -0.4843 -2.1385 -0.1049
17726TIP3    H274670   6.641   5.313  15.292 -0.0188 -1.2819 -0.0772
17727TIP3   OH274671   0.018   1.522  13.364  0.4275  0.1091 -0.1098
17727TIP3    H174672   0.090   1.562  13.414  0.5802  0.5230 -0.6445
17727TIP3    H274673   0.043   1.430  13.356  1.4453  0.4463 -1.1903
17728TIP3   OH274674   1.418   2.270   6.064 -0.6773  0.3116  0.8157
17728TIP3    H174675   1.374   2.222   6.134 -2.3242 -0.1074 -0.4418
17728TIP3    H274676   1.483   2.209   6.030 -1.3277 -0.2879  0.6146
17729TIP3   OH274677   0.503   6.269  14.857  0.0516  0.0379 -0.6646
17729TIP3    H174678   0.567   6.293  14.925  2.7387 -0.4731 -2.8284
17729TIP3    H274679   0.460   6.191  14.891  0.1627  0.7164  1.1191
17730TIP3   OH274680   0.655   0.961   5.655 -0.0009 -0.5207  0.3837
17730TIP3    H174681   0.741   0.962   5.614  0.4080 -0.8882  1.2135
17730TIP3    H274682   0.620   1.049   5.640  0.7776 -0.1671  0.5780
17731TIP3   OH274683   2.705   0.894   0.662  0.2647 -0.0757  0.0066
17731TIP3    H174684   2.721   0.980   0.702  0.5297  0.1770 -0.6267
17731TIP3    H274685   2.616   0.872   0.687 -0.0281  0.6815 -0.3568
17732TIP3   OH274686   2.368   3.414   0.345 -0.3901 -0.1605 -0.2748
17732TIP3    H174687   2.339   3.498   0.309 -0.2469  0.7023  1.5178
17732TIP3    H274688   2.463   3.417   0.340 -0.4058 -1.3818 -2.6316
17733TIP3   OH274689   1.687   1.041  14.712  0.1894  0.9453 -0.4118
17733TIP3    H174690   1.603   1.068  14.675  0.5616 -0.5237 -2.5215
17733TIP3    H274691   1.668   0.959  14.757  0.3646  0.9406 -0.3466
17734TIP3   OH274692   3.529   0.585   3.996 -0.5120  0.0830  0.2342
17734TIP3    H174693   3.477   0.645   3.941 -1.3994 -1.5768 -0.8383
17734TIP3    H274694   3.617   0.590   3.959 -0.3792  1.3062  0.6751
17735TIP3   OH274695   6.516   5.340  12.449  0.4029  0.1144  0.3255
17735TIP3    H174696   6.551   5.257  12.418 -0.2286 -0.1543  0.3258
17735TIP3    H274697   6.424   5.323  12.466  0.0330  1.0528 -0.5867
17736TIP3   OH274698   3.830   5.338   0.940 -0.2579 -0.6800 -0.3038
17736TIP3    H174699   3.833   5.244   0.960  0.3853 -0.2470  1.8575
17736TIP3    H274700   3.917   5.358   0.906 -1.1437 -1.2782 -3.2408
17737TIP3   OH274701   2.999   3.149  13.085  0.2496  0.5116 -0.2243
17737TIP3    H174702   3.030   3.094  13.013  3.4609 -1.9652  2.6834
17737TIP3    H274703   2.904   3.134  13.087  0.2942 -0.7478 -2.7459
17738TIP3   OH274704   6.226   0.991   1.646 -0.1557  0.1144 -0.2450
17738TIP3    H174705   6.155   1.043   1.609 -1.3675 -1.0620  0.3322
17738TIP3    H274706   6.199   0.973   1.736  0.5938 -0.8578 -0.1929
17739TIP3   OH274707   3.201   0.580   5.624  0.4478  0.7670  0.2690
17739TIP3    H174708   3.203   0.540   5.711  0.7444 -1.0064 -0.5073
17739TIP3    H274709   3.116   0.555   5.588 -0.2685  2.6515  0.5145
17740TIP3   OH274710   4.282   3.478  14.401 -0.2447 -0.3704 -0.1166
17740TIP3    H174711   4.254   3.547  14.462 -1.1241 -1.3760  0.6618
17740TIP3    H274712   4.308   3.525  14.322 -2.8190  0.7863 -0.3864
17741TIP3   OH274713   3.980   1.953   2.140 -0.1033  0.5519 -0.2285
17741TIP3    H174714   3.956   2.031   2.092  0.5245  1.6289  1.1341
17741TIP3    H274715   4.026   1.985   2.218 -0.5175 -1.1236  0.7696
17742TIP3   OH274716   2.198   3.792   1.034 -0.4354  0.0733  0.3253
17742TIP3    H174717   2.165   3.816   0.948 -1.1361 -1.0103  0.2678
17742TIP3    H274718   2.119   3.767   1.083  0.2539 -2.9136  0.0916
17743TIP3   OH274719   5.679   6.114   3.057 -0.0941 -0.1737 -0.1555
17743TIP3    H174720   5.610   6.155   3.005 -0.0434  0.4446  0.2490
17743TIP3    H274721   5.654   6.021   3.061 -0.4639 -0.0998 -0.6931
17744TIP3   OH274722   4.717   6.209  13.145 -0.3423  0.2664 -0.0871
17744TIP3    H174723   4.730   6.114  13.151 -1.6328  0.0288 -0.7595
17744TIP3    H274724   4.758   6.243  13.224 -0.0226 -0.8629  0.2628
17745TIP3   OH274725   3.587   0.694  16.811 -0.2683  0.1132  0.0413
17745TIP3    H174726   3.566   0.648  16.893  0.1855  1.2383  0.8047
17745TIP3    H274727   3.675   0.665  16.789  0.2746  1.0864  0.8737
17746TIP3   OH274728   2.441   0.303  16.018 -0.1725 -0.0988 -0.0871
17746TIP3    H174729   2.409   0.278  16.105 -0.8214  0.7003 -0.0766
17746TIP3    H274730   2.523   0.256  16.008 -0.7927 -1.3175  0.3680
17747TIP3   OH274731   4.284   1.092  16.375 -0.2992  0.6770 -0.0643
17747TIP3    H174732   4.225   1.166  16.362  0.8342  1.6563  0.1535
17747TIP3    H274733   4.371   1.128  16.356  0.3428 -0.4289  0.7111
17748TIP3   OH274734   5.328   3.191   2.721 -0.5140 -0.2694  0.6491
17748TIP3    H174735   5.313   3.105   2.682 -0.7359 -0.4826  1.2044
17748TIP3    H274736   5.422   3.195   2.736  0.1781  1.0922 -2.9027
17749TIP3   OH274737   4.974   0.006   4.655  0.1784  0.9978 -0.0383
17749TIP3    H174738   4.888  -0.034   4.662  0.7855 -0.0933  1.7962
17749TIP3    H274739   4.989   0.046   4.741  1.8432  0.4061 -0.0165
17750TIP3   OH274740   6.400   1.258  10.921  0.4161  0.0160 -0.3200
17750TIP3    H174741   6.473   1.210  10.882  1.6761  0.9658  0.7556
17750TIP3    H274742   6.345   1.283  10.847  1.1549 -0.7681 -1.1556
17751TIP3   OH274743   5.073   2.206  12.724 -0.1382  0.0425 -0.2044
17751TIP3    H174744   5.086   2.128  12.778  2.1288  0.4284 -0.1002
17751TIP3    H274745   5.141   2.201  12.657  1.3088  2.7813  0.8703
17752TIP3   OH274746   2.815   2.125  15.933 -0.1163  0.2098 -0.8492
17752TIP3    H174747   2.776   2.177  15.863  0.0633 -0.2730 -1.3237
17752TIP3    H274748   2.901   2.164  15.947 -1.1745  2.0396  1.0459
17753TIP3   OH274749   3.119   4.220  16.479  0.3576  0.5961 -0.7696
17753TIP3    H174750   3.063   4.144  16.493  1.6128 -0.5638 -1.7650
17753TIP3    H274751   3.060   4.295  16.486 -1.3677 -0.5703 -2.0068
17754TIP3   OH274752   5.258   1.788  14.014  0.2211 -0.2482  0.2483
17754TIP3    H174753   5.340   1.836  14.024 -0.2327  0.7446 -0.6837
17754TIP3    H274754   5.258   1.726  14.087  1.2924  0.4721  0.8828
17755TIP3   OH274755   0.413   0.129   2.738  0.1517  0.4478  0.1107
17755TIP3    H174756   0.487   0.127   2.798  0.4556 -1.3853 -0.2661
17755TIP3    H274757   0.336   0.143   2.794  0.6747  1.3696  0.6116
17756TIP3   OH274758   1.936   4.012   1.205  0.0485 -0.1716  0.2793
17756TIP3    H174759   1.936   3.923   1.172 -2.9625  0.3628 -1.4741
17756TIP3    H274760   1.854   4.021   1.254 -0.7623  2.1282 -1.3021
17757TIP3   OH274761   4.794   2.241  13.071  0.3684 -0.4723 -0.0376
17757TIP3    H174762   4.785   2.164  13.127  0.9844  0.5104  1.4536
17757TIP3    H274763   4.871   2.286  13.104  1.1050 -0.1382 -2.0552
17758TIP3   OH274764   2.730   4.988   4.320  0.4261 -0.4864 -0.6408
17758TIP3    H174765   2.654   4.982   4.378 -0.0893 -1.3544 -1.3754
17758TIP3    H274766   2.789   4.919   4.349  1.8077  1.3101  1.0834
17759TIP3   OH274767   1.474   1.805  12.366 -0.1160 -0.8444 -0.3655
17759TIP3    H174768   1.539   1.742  12.334 -1.8350 -2.9946  0.1295
17759TIP3    H274769   1.506   1.830  12.453  0.1069 -1.8142 -0.1563
17760TIP3   OH274770   2.584   0.759  12.044  0.5435  0.2827 -0.1140
17760TIP3    H174771   2.652   0.721  12.100  2.4637  2.1308 -1.0487
17760TIP3    H274772   2.515   0.785  12.105  1.6196  0.2941  1.1535
17761TIP3   OH274773   6.046   6.511  16.042 -0.2185  0.7250  0.1806
17761TIP3    H174774   6.055   6.416  16.034  1.2741  0.8707 -0.1615
17761TIP3    H274775   5.984   6.523  16.113  0.2048 -0.5032  0.7869
17762TIP3   OH274776   5.199   5.711  16.954  0.1914  0.5879  0.2736
17762TIP3    H174777   5.186   5.646  16.885  0.8274 -0.0049  0.6923
17762TIP3    H274778   5.247   5.782  16.912 -0.0201  0.5346 -0.0585
17763TIP3   OH274779   0.028   3.803  15.993 -0.2863 -0.2614 -0.2348
17763TIP3    H174780   0.072   3.742  15.934 -1.6201 -0.5410 -0.9817
17763TIP3    H274781   0.073   3.792  16.077  1.3561 -0.1790 -1.0521
17764TIP3   OH274782   5.692   5.013   1.003 -0.1687 -0.4850 -0.4235
17764TIP3    H174783   5.728   5.008   1.091  0.0553 -0.9082 -0.5340
17764TIP3    H274784   5.600   5.039   1.016 -0.2699 -1.0154 -0.0328
17765TIP3   OH274785   5.290   5.256   5.163  0.8422 -0.3485 -0.5994
17765TIP3    H174786   5.290   5.313   5.239  1.1958  0.5915 -1.2820
17765TIP3    H274787   5.253   5.174   5.194  0.3905  0.2292  0.4193
17766TIP3   OH274788   4.728   0.998   4.720 -0.9342  0.1266  0.0340
17766TIP3    H174789   4.806   1.048   4.744  0.8366 -0.9832 -2.8906
17766TIP3    H274790   4.696   0.962   4.803  0.7863  1.8047  1.5066
17767TIP3   OH274791   0.254   1.976   3.197  0.1044 -0.4280 -0.3007
17767TIP3    H174792   0.210   1.894   3.178  0.2285 -0.3083 -1.1390
17767TIP3    H274793   0.346   1.953   3.204 -0.1000 -0.8067  2.1892
17768TIP3   OH274794   3.219   4.261  11.760 -0.3508  0.9254  0.3106
17768TIP3    H174795   3.226   4.170  11.730  0.5062  1.0755  0.0256
17768TIP3    H274796   3.199   4.253  11.854 -1.3604  0.4564  0.0731
17769TIP3   OH274797   2.834   0.065   6.570  0.1643  0.7381  0.5797
17769TIP3    H174798   2.891   0.041   6.643  0.0753 -1.2492  0.0717
17769TIP3    H274799   2.746   0.047   6.601  0.0631  0.7862  0.3219
17770TIP3   OH274800   3.917   0.104   5.191 -0.2099  0.5033 -0.4150
17770TIP3    H174801   3.995   0.159   5.194 -0.0542  0.2481  0.3525
17770TIP3    H274802   3.844   0.165   5.196 -0.0378  0.5870  2.0137
17771TIP3   OH274803   0.980   3.959   3.786  0.3977 -0.5102  0.6413
17771TIP3    H174804   1.031   3.925   3.712 -0.8783 -2.4636  0.5859
17771TIP3    H274805   0.957   3.882   3.837 -1.8302  0.3720  1.0824
17772TIP3   OH274806   1.094   3.714  13.893  0.0601  0.3237 -0.5643
17772TIP3    H174807   1.148   3.635  13.892 -0.1431  0.1568 -2.8630
17772TIP3    H274808   1.134   3.771  13.828 -0.6773  1.5035 -0.0098
17773TIP3   OH274809   4.326   2.185  15.748  0.3427  0.4531 -0.0293
17773TIP3    H174810   4.272   2.249  15.702 -0.8564 -0.2742  0.3091
17773TIP3    H274811   4.411   2.227  15.757  0.2641  1.0676 -1.8514
17774TIP3   OH274812   6.138   0.187  16.458 -0.3988 -0.5145  0.1163
17774TIP3    H174813   6.162   0.112  16.513 -1.1624 -1.1458 -0.4105
17774TIP3    H274814   6.193   0.178  16.380 -1.4792 -1.3136 -0.5702
17775TIP3   OH274815   6.220   5.150  11.427  0.4051 -0.4710  0.6723
17775TIP3    H174816   6.308   5.118  11.409  0.1143 -0.3705 -1.0140
17775TIP3    H274817   6.234   5.234  11.471  1.1828  0.4460 -1.2428
17776TIP3   OH274818   4.636   3.031  12.115 -0.0790  0.0760 -0.4351
17776TIP3    H174819   4.725   3.012  12.085 -0.2299  0.1195 -0.9257
17776TIP3    H274820   4.581   2.971  12.064 -0.1794 -1.2784  1.1917
17777TIP3   OH274821   2.771   6.545  11.773 -0.1074  0.2450  0.2201
17777TIP3    H174822   2.722   6.496  11.707 -0.4400 -0.2867  0.8360
17777TIP3    H274823   2.830   6.480  11.811 -1.1253  0.0747  1.6126
17778TIP3   OH274824   1.398   0.050  16.489 -0.3612 -0.1490 -0.3615
17778TIP3    H174825   1.376   0.092  16.406 -0.6008 -2.1115 -1.3625
17778TIP3    H274826   1.480   0.092  16.516 -0.9332  1.3866 -0.9301
17779TIP3   OH274827   3.579   1.533   4.151 -0.3190 -0.1787  0.1243
17779TIP3    H174828   3.515   1.603   4.158  1.1189  1.3010 -0.9137
17779TIP3    H274829   3.540   1.471   4.089 -0.5487  0.9536 -0.8983
17780TIP3   OH274830   6.107   1.463   3.482 -0.2779 -0.6601  0.2257
17780TIP3    H174831   6.021   1.420   3.490 -0.4999  0.1015  2.9364
17780TIP3    H274832   6.166   1.407   3.532  0.2172  0.2073  0.6353
17781TIP3   OH274833   4.630   4.272  14.110  0.2461 -0.0498 -0.4051
17781TIP3    H174834   4.568   4.334  14.151  1.9695  1.2781  0.3154
17781TIP3    H274835   4.668   4.321  14.037  1.5662 -0.2623  0.1127
17782TIP3   OH274836   1.327   5.141  15.455  0.2791 -0.3201  0.4610
17782TIP3    H174837   1.249   5.086  15.444 -1.1882  1.3138  2.1103
17782TIP3    H274838   1.300   5.227  15.423  1.2772  0.3848  1.4637
17783TIP3   OH274839   5.931   4.715   1.318  0.4543 -0.3031 -0.2154
17783TIP3    H174840   5.917   4.621   1.328 -0.6106 -0.0136  1.2106
17783TIP3    H274841   5.845   4.754   1.332  1.0370  0.9466  0.0144
17784TIP3   OH274842   0.170   5.500  16.994 -0.5886 -0.0698  0.6280
17784TIP3    H174843   0.142   5.487  17.085  1.0965 -1.8372  0.9657
17784TIP3    H274844   0.265   5.513  17.000 -0.7873  2.8746 -0.6899
17785TIP3   OH274845   4.508   5.170   4.060  0.0992  0.3240  0.7788
17785TIP3    H174846   4.509   5.265   4.050  0.8496  0.1167 -1.7227
17785TIP3    H274847   4.424   5.143   4.023  0.6382 -0.1043 -0.1594
17786TIP3   OH274848   1.636   5.132   1.770  0.2050 -0.4999 -0.2381
17786TIP3    H174849   1.695   5.061   1.794  0.1336 -0.7117 -0.6708
17786TIP3    H274850   1.628   5.185   1.849  1.9357  0.2189 -0.5009
17787TIP3   OH274851   1.352   4.123  14.241 -0.0724 -0.1736 -0.7565
17787TIP3    H174852   1.419   4.156  14.182  1.5181  1.1602  1.6370
17787TIP3    H274853   1.392   4.046  14.283  0.2840  0.9644  1.1086
17788TIP3   OH274854   4.400   2.009  16.840 -0.1099 -0.0637 -0.2938
17788TIP3    H174855   4.369   2.026  16.929  0.6266  1.9960 -0.3762
17788TIP3    H274856   4.467   2.075  16.825 -0.6107  0.0060 -2.5968
17789TIP3   OH274857   1.536   1.642  15.433 -0.4173  0.3786 -0.4048
17789TIP3    H174858   1.622   1.658  15.471  0.0411  1.0361 -1.6729
17789TIP3    H274859   1.511   1.556  15.467  0.6829  0.2375  0.0914
17790TIP3   OH274860   5.249   0.897   6.339  0.0977  0.7699  0.0937
17790TIP3    H174861   5.182   0.963   6.355  0.9964  1.9931 -0.9561
17790TIP3    H274862   5.245   0.839   6.415 -2.8196  0.1589 -0.4099
17791TIP3   OH274863   2.004   1.822   0.798  0.2979 -0.0721  0.3028
17791TIP3    H174864   1.984   1.891   0.862 -4.8414 -0.4539 -0.4060
17791TIP3    H274865   1.960   1.851   0.718  1.7591 -2.2000 -1.3729
17792TIP3   OH274866   4.777   4.090   3.285  0.2773  0.3822  0.4603
17792TIP3    H174867   4.847   4.156   3.281  0.9030 -0.3215 -1.0688
17792TIP3    H274868   4.704   4.135   3.328  2.0450  0.7462  3.3228
17793TIP3   OH274869   3.878   0.089  15.943  0.2153  0.0543 -0.4535
17793TIP3    H174870   3.873   0.043  16.027  1.3209 -0.0958 -0.4636
17793TIP3    H274871   3.941   0.038  15.892  1.6636  1.6990 -0.3810
17794TIP3   OH274872   2.074   4.226   1.321 -0.1188  0.1177 -0.0080
17794TIP3    H174873   2.069   4.149   1.264 -2.2803 -0.9375  1.4652
17794TIP3    H274874   2.159   4.266   1.299 -0.1204 -1.1159 -2.7395
17795TIP3   OH274875   6.758   5.497  13.899 -0.1363 -0.2759 -0.2522
17795TIP3    H174876   6.831   5.522  13.957  0.9053  2.6959 -2.5725
17795TIP3    H274877   6.727   5.580  13.863 -3.2935 -1.6698 -1.0537
17796TIP3   OH274878   0.476   3.660   5.759  0.9164  0.4207 -0.1936
17796TIP3    H174879   0.494   3.753   5.772  1.1977  0.1922  1.0922
17796TIP3    H274880   0.562   3.621   5.746  0.7664  0.3865 -1.2018
17797TIP3   OH274881   4.028   2.731  15.905  0.0698  0.0565  0.6730
17797TIP3    H174882   4.062   2.684  15.981  1.1659  1.8857  1.3780
17797TIP3    H274883   4.099   2.791  15.880 -0.2554 -0.4915 -1.8192
17798TIP3   OH274884   1.837   3.163  11.571  0.6752  0.1995  0.2273
17798TIP3    H174885   1.843   3.243  11.519  0.2732  0.3645  0.4366
17798TIP3    H274886   1.744   3.141  11.572  0.6603  0.2584  0.9614
17799TIP3   OH274887   6.513   5.339  12.765 -0.1012 -0.1734  0.4107
17799TIP3    H174888   6.510   5.435  12.755 -1.6060 -0.3728 -1.7194
17799TIP3    H274889   6.463   5.322  12.844 -1.1804  0.7460 -0.0359
17800TIP3   OH274890   4.800   3.825  14.089 -0.4196  0.2673  0.0420
17800TIP3    H174891   4.886   3.784  14.087  0.2901  1.6706  0.1081
17800TIP3    H274892   4.795   3.866  14.176 -1.1186  0.2614  0.0122
17801TIP3   OH274893   4.685   4.955  15.436  0.6514 -0.0626  0.3467
17801TIP3    H174894   4.666   4.982  15.346  2.2166  0.5835  0.1820
17801TIP3    H274895   4.777   4.931  15.435  1.2165  1.7374  2.1666
17802TIP3   OH274896   4.101   5.802   2.685 -0.1823  0.1254 -0.3098
17802TIP3    H174897   4.087   5.713   2.716 -1.7676  0.8085  1.1092
17802TIP3    H274898   4.171   5.836   2.740 -0.6150  0.2334  0.1754
17803TIP3   OH274899   3.046   2.216  14.104  0.6880  0.7902  0.4878
17803TIP3    H174900   2.992   2.281  14.058 -0.6102 -1.6183 -1.6724
17803TIP3    H274901   2.984   2.168  14.159  0.8274 -0.9513 -0.7747
17804TIP3   OH274902   2.929   3.128   4.690 -0.5131  0.3830 -0.0948
17804TIP3    H174903   2.847   3.163   4.656 -0.0535  1.0911 -0.5075
17804TIP3    H274904   2.936   3.041   4.652 -1.1252  0.2703  0.0393
17805TIP3   OH274905   3.595   5.218   5.620  0.0324  0.3421 -0.0400
17805TIP3    H174906   3.621   5.174   5.539 -0.1044  1.0674 -0.4875
17805TIP3    H274907   3.626   5.161   5.690  2.2179  0.8277 -0.5606
17806TIP3   OH274908   1.713   4.999  16.523  0.6608  0.7707  0.1518
17806TIP3    H174909   1.686   4.995  16.614  2.1816  0.2479  0.6084
17806TIP3    H274910   1.746   4.911  16.503  1.0875  1.1005 -0.6582
17807TIP3   OH274911   0.014   4.373  15.665  0.1743 -0.0027  0.1438
17807TIP3    H174912  -0.059   4.321  15.698  1.1024 -1.1748  0.4176
17807TIP3    H274913   0.085   4.357  15.727  1.5179 -1.1316 -1.5829
17808TIP3   OH274914   2.520   2.247  16.440 -0.0421  0.1289  0.1254
17808TIP3    H174915   2.505   2.184  16.510 -2.0366 -0.2720 -0.6106
17808TIP3    H274916   2.533   2.331  16.485 -1.0202 -0.1756  1.0056
17809TIP3   OH274917   5.156   1.028   2.909 -0.4308  0.6126  0.7800
17809TIP3    H174918   5.217   1.091   2.948  0.1922  1.0567 -0.8336
17809TIP3    H274919   5.103   1.080   2.849 -3.2530  0.4489  2.9443
17810TIP3   OH274920   3.170   1.600   4.960 -0.0716  0.3390 -0.1888
17810TIP3    H174921   3.163   1.590   5.055  1.5931  0.7737  0.0036
17810TIP3    H274922   3.131   1.686   4.943 -1.0461 -0.0544 -0.0077
17811TIP3   OH274923   2.241   3.868   3.633 -0.3015  0.0134  0.4612
17811TIP3    H174924   2.222   3.779   3.602  2.2487 -0.4956  0.1458
17811TIP3    H274925   2.217   3.924   3.559 -1.8047 -0.3799  0.6121
17812TIP3   OH274926   5.869   0.777  13.232 -0.4137  0.2722  0.2587
17812TIP3    H174927   5.918   0.850  13.270  0.5725  0.2331 -0.8762
17812TIP3    H274928   5.781   0.812  13.217 -0.2328  0.9056  0.6476
17813TIP3   OH274929   3.731   3.470  16.374  0.0548 -0.0987  1.0837
17813TIP3    H174930   3.793   3.400  16.396  0.3008 -0.7109 -1.2759
17813TIP3    H274931   3.649   3.424  16.359  0.2923  0.0180 -0.7947
17814TIP3   OH274932   5.628   5.212   0.651 -0.8354 -0.3802  0.0336
17814TIP3    H174933   5.573   5.275   0.604 -1.1011 -0.3052  0.4325
17814TIP3    H274934   5.570   5.137   0.667 -1.4106  0.3931  1.9968
17815TIP3   OH274935   1.874   4.194   4.989  0.0991 -0.0825 -0.2278
17815TIP3    H174936   1.844   4.284   4.977  3.1132  1.2032  0.8153
17815TIP3    H274937   1.916   4.171   4.907 -0.7421 -0.5908 -0.5223
17816TIP3   OH274938   2.973   1.121   2.681 -0.4428  0.1231 -0.4705
17816TIP3    H174939   2.923   1.080   2.752 -0.6186  1.9690  0.5101
17816TIP3    H274940   2.922   1.102   2.602 -1.4819  0.0274  0.2060
17817TIP3   OH274941   4.614   3.071  11.596  0.1911  0.0473  0.5277
17817TIP3    H174942   4.601   3.088  11.690  0.4330  2.8043  0.1597
17817TIP3    H274943   4.650   3.153  11.562 -0.1987 -0.7622 -2.0538
17818TIP3   OH274944   6.269   6.279  17.146 -0.4282  0.0599  0.1898
17818TIP3    H174945   6.227   6.283  17.060 -0.8585  0.7241  0.4239
17818TIP3    H274946   6.334   6.209  17.138  0.3565  0.8798 -1.0507
17819TIP3   OH274947   2.664   3.125  12.019  0.6979  0.2047  0.6526
17819TIP3    H174948   2.614   3.115  12.100 -0.2229 -0.0022  0.0696
17819TIP3    H274949   2.671   3.219  12.006 -1.2352  0.2611 -0.2637
17820TIP3   OH274950   1.436   2.464   2.175  0.4581  0.2511  0.4546
17820TIP3    H174951   1.357   2.409   2.177  0.6270 -0.1208 -1.4724
17820TIP3    H274952   1.418   2.532   2.240 -0.2782 -1.3352  2.0179
17821TIP3   OH274953   6.287   1.155   3.331 -0.5070 -0.4886 -0.2706
17821TIP3    H174954   6.326   1.228   3.282 -1.4586  0.3394  0.1574
17821TIP3    H274955   6.356   1.129   3.393 -0.7160  1.2542  0.7903
17822TIP3   OH274956   6.193   2.866   5.425  0.0274 -0.1063 -0.3758
17822TIP3    H174957   6.277   2.913   5.426 -0.5355  0.9170 -0.2833
17822TIP3    H274958   6.137   2.915   5.485 -0.5858 -0.8967 -0.2869
17823TIP3   OH274959   1.188   3.717   1.561  0.2930 -0.5429 -0.2312
17823TIP3    H174960   1.279   3.689   1.566  0.7210  0.8312  0.0188
17823TIP3    H274961   1.172   3.729   1.468  0.7649  0.4307 -0.1959
17824TIP3   OH274962   2.832   0.085  11.593  0.3858  0.3802  0.0210
17824TIP3    H174963   2.900   0.055  11.533  0.0752 -0.1699 -0.0652
17824TIP3    H274964   2.814   0.175  11.566 -1.9056 -0.7576 -2.7725
17825TIP3   OH274965   5.590   5.233   3.612  0.4505 -0.8471  0.0980
17825TIP3    H174966   5.641   5.286   3.550  0.2584 -2.0343 -1.1308
17825TIP3    H274967   5.567   5.294   3.682  1.7322  0.2452 -0.3759
17826TIP3   OH274968   2.471   5.134   2.266 -0.2206  0.3259  0.4476
17826TIP3    H174969   2.514   5.049   2.264  0.1274  0.4884  1.0441
17826TIP3    H274970   2.472   5.163   2.174 -1.0562 -0.6582  0.1054
17827TIP3   OH274971   0.512   1.332  16.794  0.7901 -0.2968 -0.1341
17827TIP3    H174972   0.573   1.290  16.854  0.1840  0.3545  0.9684
17827TIP3    H274973   0.429   1.332  16.840  0.1982 -0.1876 -1.1680
17828TIP3   OH274974   0.593   1.214  13.571  0.3914 -0.2918  0.1023
17828TIP3    H174975   0.533   1.225  13.497  0.9151 -1.8454 -0.5817
17828TIP3    H274976   0.680   1.211  13.530  0.8978  1.1055  1.0060
17829TIP3   OH274977   3.289   5.386  16.480  0.6352  0.1367  0.1749
17829TIP3    H174978   3.319   5.410  16.392  1.6148  0.9886  0.7126
17829TIP3    H274979   3.367   5.396  16.535 -0.4425  1.6988  1.5102
17830TIP3   OH274980   0.060   2.295  13.432  0.2377  0.2196 -0.0109
17830TIP3    H174981   0.043   2.389  13.425 -0.9553  0.0252 -0.0053
17830TIP3    H274982   0.125   2.287  13.502  1.6462  1.1401 -1.1684
17831TIP3   OH274983   6.404   6.561   2.151  0.3102  0.1876  1.2287
17831TIP3    H174984   6.400   6.490   2.086  1.9024  1.2006 -0.0549
17831TIP3    H274985   6.327   6.615   2.132 -1.1922 -1.3668  2.5273
17832TIP3   OH274986   2.732   4.033   2.119  0.1335 -0.9696 -0.3564
17832TIP3    H174987   2.713   4.116   2.076  3.0114 -0.8518 -1.5733
17832TIP3    H274988   2.649   4.008   2.161 -0.7191  2.7026  0.4609
17833TIP3   OH274989   0.389   0.774  12.708 -0.0562 -0.4266 -0.2686
17833TIP3    H174990   0.377   0.679  12.706 -1.0300 -0.3020 -1.6657
17833TIP3    H274991   0.453   0.792  12.639 -1.3210  0.0726 -1.3662
17834TIP3   OH274992   4.059   3.742  11.415 -0.4929 -0.3532 -0.3084
17834TIP3    H174993   4.027   3.713  11.501 -0.0684  1.4641  0.5057
17834TIP3    H274994   3.981   3.740  11.360 -0.9235 -0.8777  0.2970
17835TIP3   OH274995   6.804   0.024  12.677 -0.4859  0.3764  0.0239
17835TIP3    H174996   6.712   0.031  12.653  0.1299  2.1825 -2.2183
17835TIP3    H274997   6.829   0.114  12.700  0.3091 -0.4047  2.4336
17836TIP3   OH274998   0.967   0.927  17.147  0.6098 -0.2495  0.2912
17836TIP3    H174999   1.042   0.985  17.131  0.2286 -0.0677 -1.0200
17836TIP3    H275000   1.007   0.843  17.171  1.2618 -0.1633 -0.4130
17837TIP3   OH275001   1.217   4.456  13.089 -0.6326 -0.4294  0.3409
17837TIP3    H175002   1.226   4.496  13.003  1.2954 -1.5733 -0.0487
17837TIP3    H275003   1.123   4.441  13.099 -1.1096  1.5984 -0.6519
17838TIP3   OH275004   2.838   0.805  12.325  0.4577 -0.2274  0.3357
17838TIP3    H175005   2.917   0.844  12.363  0.9884 -0.4044 -0.5356
17838TIP3    H275006   2.843   0.828  12.232 -1.0149  0.5674  0.4166
17839TIP3   OH275007   3.593   2.520  13.859  0.0556 -0.4966 -0.0593
17839TIP3    H175008   3.621   2.459  13.927 -1.7720 -3.0296 -1.4197
17839TIP3    H275009   3.567   2.599  13.907  0.4816 -1.5333  1.9799
17840TIP3   OH275010   2.348   6.080  15.779 -0.0681 -0.4118 -0.6973
17840TIP3    H175011   2.433   6.040  15.799 -0.9993 -1.8488  0.6569
17840TIP3    H275012   2.296   6.009  15.743 -1.6586 -0.4130  1.4236
17841TIP3   OH275013   4.619   1.780  14.472 -0.1899 -0.1585  0.0065
17841TIP3    H175014   4.713   1.762  14.481  0.0572  0.8539 -0.3943
17841TIP3    H275015   4.606   1.865  14.515 -0.9135 -0.2655  0.0157
17842TIP3   OH275016   1.396   1.809  16.683  0.3655 -0.2241 -0.0015
17842TIP3    H175017   1.485   1.839  16.662  1.0366 -2.2871 -0.2556
17842TIP3    H275018   1.368   1.867  16.754  1.8033  0.6038 -0.0624
17843TIP3   OH275019   2.176   1.385   3.834 -0.0786  0.3241 -0.2645
17843TIP3    H175020   2.130   1.387   3.918 -0.0349  0.3543 -0.2411
17843TIP3    H275021   2.251   1.327   3.851 -0.4617 -0.2496 -0.4832
17844TIP3   OH275022   1.850   1.656  12.049  0.5088  0.5756 -0.4022
17844TIP3    H175023   1.788   1.726  12.028  0.0267 -0.0654 -1.2159
17844TIP3    H275024   1.889   1.633  11.964 -0.8942 -1.5590 -0.5575
17845TIP3   OH275025   4.436   3.399  17.128 -0.5307  0.2080 -0.2591
17845TIP3    H175026   4.518   3.443  17.150  0.3701 -1.0918 -0.8081
17845TIP3    H275027   4.405   3.363  17.211 -0.5560  0.7417 -0.0369
17846TIP3   OH275028   1.645   0.751  12.067  0.2827 -0.4361  0.4322
17846TIP3    H175029   1.552   0.731  12.081 -0.1978  0.3214 -1.3288
17846TIP3    H275030   1.689   0.666  12.073 -0.4433 -0.7550  1.6973
17847TIP3   OH275031   1.356   6.777  16.752 -0.1762  0.0273  0.7934
17847TIP3    H175032   1.397   6.692  16.769  0.8766  0.5076  0.7782
17847TIP3    H275033   1.358   6.786  16.657 -0.2210  0.0971  0.7988
17848TIP3   OH275034   0.154   4.072   4.830  0.0288  0.5656 -1.0270
17848TIP3    H175035   0.248   4.056   4.844 -0.0936  0.9344  0.3087
17848TIP3    H275036   0.145   4.167   4.836 -0.4872  0.5041 -0.7982
17849TIP3   OH275037   4.347   3.393  13.968  0.4594  0.2841  0.2067
17849TIP3    H175038   4.394   3.310  13.964 -0.6275 -0.4349  1.5398
17849TIP3    H275039   4.288   3.390  13.892  0.3151 -0.2525  0.3340
17850TIP3   OH275040   6.164   5.076   3.133 -0.1451  0.8198 -0.2622
17850TIP3    H175041   6.198   5.124   3.209  1.1389  0.8776 -0.8468
17850TIP3    H275042   6.240   5.066   3.075 -1.0001  0.3946 -1.3443
17851TIP3   OH275043   3.156   4.970  12.142 -0.7410 -0.4710  0.1760
17851TIP3    H175044   3.193   4.993  12.227 -1.3575  0.0498  0.3182
17851TIP3    H275045   3.202   4.891  12.116 -3.0115 -2.8549  2.6895
17852TIP3   OH275046   4.042   6.040   4.335  0.7782 -0.4326 -0.2201
17852TIP3    H175047   4.094   6.030   4.256 -0.7902 -1.3085 -1.1967
17852TIP3    H275048   4.023   5.950   4.362  1.1668 -0.1460  1.0917
17853TIP3   OH275049   5.093   0.564  16.278  0.0004  0.0158 -0.5761
17853TIP3    H175050   5.058   0.604  16.358  0.9604  2.4783 -1.2982
17853TIP3    H275051   5.177   0.526  16.305 -0.0863  0.0737 -0.2243
17854TIP3   OH275052   5.664   0.439  12.036  0.4205 -0.4228  0.1456
17854TIP3    H175053   5.714   0.448  11.955 -0.5686 -1.1767 -0.5816
17854TIP3    H275054   5.578   0.475  12.015 -0.3453 -2.0466  0.3443
17855TIP3   OH275055   2.601   2.748  15.121  0.0556 -0.0698 -0.6810
17855TIP3    H175056   2.553   2.830  15.133 -0.6653 -0.3226 -1.6976
17855TIP3    H275057   2.649   2.737  15.203 -0.8164  0.7202 -0.0290
17856TIP3   OH275058   1.336   4.418   5.004 -0.0507 -0.5646  0.3454
17856TIP3    H175059   1.257   4.420   5.058 -0.3551  0.4923 -0.0992
17856TIP3    H275060   1.346   4.508   4.974  0.4749 -0.9908 -0.8166
17857TIP3   OH275061   1.150   0.807   1.396 -0.1960  0.5322  0.2375
17857TIP3    H175062   1.107   0.857   1.466 -0.3081  1.9626 -0.8145
17857TIP3    H275063   1.202   0.741   1.442 -2.5376 -0.4937  1.6064
17858TIP3   OH275064   2.916   4.736  11.825  0.0781 -0.0792  0.8282
17858TIP3    H175065   2.946   4.816  11.868  1.4350 -1.0222  1.7254
17858TIP3    H275066   2.911   4.759  11.732 -0.2170  1.2147  1.1412
17859TIP3   OH275067   3.007   1.645   0.572 -0.7279  0.3724  0.7212
17859TIP3    H175068   2.928   1.673   0.526 -1.3361  0.1378  1.5969
17859TIP3    H275069   2.996   1.550   0.582 -1.1442  0.5551  2.2851
17860TIP3   OH275070   4.648   6.318   4.048  0.4536  0.2360  0.6332
17860TIP3    H175071   4.707   6.295   4.120 -1.7606 -0.0332  2.4805
17860TIP3    H275072   4.706   6.347   3.978  2.8547 -1.6530  1.6876
17861TIP3   OH275073   1.179   6.187  15.609 -0.0592  0.4364 -0.0652
17861TIP3    H175074   1.161   6.179  15.703 -1.1174  0.6102 -0.2410
17861TIP3    H275075   1.165   6.279  15.589  2.5514  0.9309  0.0507
17862TIP3   OH275076   4.040   1.416   0.024  0.2789 -0.0979  0.1843
17862TIP3    H175077   4.068   1.424   0.115 -0.0365 -0.3407  0.3039
17862TIP3    H275078   3.944   1.424   0.027  0.2587 -0.1857 -0.1145
17863TIP3   OH275079   0.905   0.480   1.570 -0.4953 -0.0882 -0.4801
17863TIP3    H175080   0.944   0.407   1.521  0.6533  0.8964 -1.0540
17863TIP3    H275081   0.976   0.542   1.584 -0.3847 -0.8092  3.5653
17864TIP3   OH275082   1.790   5.814  13.495 -0.2360 -0.0709  0.1041
17864TIP3    H175083   1.806   5.748  13.562 -1.5991  0.2680  0.7949
17864TIP3    H275084   1.765   5.892  13.543  0.9075  0.8440 -0.7240
17865TIP3   OH275085   3.846   5.775   1.754  0.6814  0.1456  1.0072
17865TIP3    H175086   3.935   5.752   1.728  0.9634 -0.2327  2.2630
17865TIP3    H275087   3.856   5.854   1.806  0.1197  0.8883  0.0308
17866TIP3   OH275088   1.721   0.717   4.498  0.0192  0.0271 -0.4576
17866TIP3    H175089   1.637   0.687   4.465 -0.3232 -0.5984  0.9025
17866TIP3    H275090   1.708   0.810   4.517 -0.0749  0.1495 -1.1230
17867TIP3   OH275091   5.862   0.571   6.273 -0.3115 -0.1224  0.1424
17867TIP3    H175092   5.816   0.492   6.245  0.9092 -0.6554 -0.4109
17867TIP3    H275093   5.793   0.626   6.311 -1.2617 -1.2349  0.0956
17868TIP3   OH275094   3.713   2.722   2.849  0.1907 -0.6277 -0.0983
17868TIP3    H175095   3.694   2.813   2.828 -0.9444 -0.7903  0.1388
17868TIP3    H275096   3.752   2.687   2.769  1.5887  0.3069  0.1457
17869TIP3   OH275097   2.801   2.719   3.663  0.1730 -0.9830 -0.1029
17869TIP3    H175098   2.781   2.643   3.609 -0.8130  0.1430 -1.4230
17869TIP3    H275099   2.720   2.771   3.661  0.2718 -0.6560  2.0977
17870TIP3   OH275100   5.976   0.421  11.126  0.1963 -0.2507  0.0192
17870TIP3    H175101   5.937   0.333  11.123 -1.4891  0.4734 -0.7745
17870TIP3    H275102   5.903   0.480  11.108  1.5619  1.2412 -0.9148
17871TIP3   OH275103   6.803   0.955  16.267 -0.7601 -0.0627  0.0180
17871TIP3    H175104   6.765   0.906  16.194 -2.7080  0.8546  0.3514
17871TIP3    H275105   6.840   0.887  16.325  0.4242 -0.8241 -1.5470
17872TIP3   OH275106   0.380   5.716  12.845 -0.1649  0.0069  0.4908
17872TIP3    H175107   0.350   5.721  12.935 -0.1919  0.9708  0.4420
17872TIP3    H275108   0.408   5.625  12.833  0.7695  0.1052  1.7627
17873TIP3   OH275109   0.540   1.092  17.224 -0.2230  0.3753  0.2901
17873TIP3    H175110   0.497   1.142  17.294 -1.3198 -1.0534  0.6713
17873TIP3    H275111   0.593   1.027  17.269 -1.1478 -0.7359 -0.1675
17874TIP3   OH275112   1.916   2.357  17.187 -0.0186  0.3584 -0.2357
17874TIP3    H175113   1.978   2.370  17.115  0.4684 -1.0128 -0.0946
17874TIP3    H275114   1.951   2.282  17.235 -2.3019 -1.1097 -0.7259
17875TIP3   OH275115   6.356   0.520   2.339 -0.0097 -0.3323 -0.5603
17875TIP3    H175116   6.364   0.472   2.421 -0.1283  0.2770 -0.1854
17875TIP3    H275117   6.329   0.608   2.365 -3.2759 -0.9515 -1.4478
17876TIP3   OH275118   4.080   6.591   3.874 -0.1879 -0.2967  0.3256
17876TIP3    H175119   4.109   6.677   3.845 -0.3647  0.1597  1.4651
17876TIP3    H275120   4.044   6.551   3.795 -0.5662  0.8662 -0.1199
17877TIP3   OH275121   1.934   2.263   0.419 -0.4216 -0.2125  0.5867
17877TIP3    H175122   1.906   2.257   0.510  0.5849 -0.1851  0.9178
17877TIP3    H275123   1.854   2.256   0.368 -1.1723  1.1440  1.5121
17878TIP3   OH275124   4.950   4.895   1.214 -0.4108  0.1743  0.6650
17878TIP3    H175125   5.034   4.870   1.253  0.9903 -0.5396 -2.5566
17878TIP3    H275126   4.948   4.990   1.221  0.4082  0.1622  1.2374
17879TIP3   OH275127   1.330   2.993   6.548  0.1906  0.0772 -0.0272
17879TIP3    H175128   1.275   2.918   6.526 -0.9212  0.8541  0.0293
17879TIP3    H275129   1.398   2.957   6.605  0.3308 -1.0783 -0.8976
17880TIP3   OH275130   5.375   3.837   3.376 -0.2408 -0.4219 -0.4441
17880TIP3    H175131   5.449   3.801   3.327  0.2226 -1.9014  1.2482
17880TIP3    H275132   5.410   3.918   3.415  0.5145 -1.0896  0.3187
17881TIP3   OH275133   1.673   5.343   2.651  0.0729  0.1186  0.0870
17881TIP3    H175134   1.723   5.310   2.726 -0.3583 -0.2776  0.2029
17881TIP3    H275135   1.592   5.378   2.690 -0.4984 -0.7860 -0.2679
17882TIP3   OH275136   6.799   5.476  15.994  0.0939 -0.3558  0.3666
17882TIP3    H175137   6.836   5.559  16.024 -0.6126  0.1750 -0.1994
17882TIP3    H275138   6.817   5.473  15.900 -1.4943  0.0526  0.0157
17883TIP3   OH275139   0.406   6.071  15.311  0.3992  0.1883  0.0865
17883TIP3    H175140   0.440   6.159  15.330  1.5328 -0.5848  1.8258
17883TIP3    H275141   0.362   6.044  15.392 -1.2270 -0.3172 -0.9074
17884TIP3   OH275142   0.458   6.749   6.349  0.3884  0.2370 -0.0597
17884TIP3    H175143   0.501   6.680   6.401  0.5242 -0.4542 -1.0530
17884TIP3    H275144   0.428   6.704   6.270  0.5412  1.3370 -0.7660
17885TIP3   OH275145   3.144   4.488   4.610 -0.1503 -0.2082 -0.5096
17885TIP3    H175146   3.196   4.485   4.530 -0.4033 -0.7032 -0.6587
17885TIP3    H275147   3.208   4.506   4.679  0.5135 -2.4553 -0.4587
17886TIP3   OH275148   1.028   1.559  15.622 -0.4202  0.0135  0.7734
17886TIP3    H175149   1.026   1.537  15.716 -0.0300  1.3408  1.1103
17886TIP3    H275150   1.077   1.641  15.618 -1.5755  0.6749 -0.4629
17887TIP3   OH275151   0.458   5.724  14.389  0.0371  0.2699  0.1080
17887TIP3    H175152   0.528   5.788  14.406 -0.6866  0.7276  1.5661
17887TIP3    H275153   0.503   5.649  14.350  1.3457  0.5664  0.9636
17888TIP3   OH275154   1.818   0.477   4.075  0.2484  0.0869 -0.1233
17888TIP3    H175155   1.878   0.464   4.148 -0.2928 -0.8506  0.1662
17888TIP3    H275156   1.818   0.394   4.027  0.4115  0.6066 -1.0584
17889TIP3   OH275157   2.965   3.576   3.996 -0.6893  0.7812 -0.0537
17889TIP3    H175158   3.023   3.651   3.981  0.0400  0.3476  0.5204
17889TIP3    H275159   2.907   3.575   3.919 -0.8129  2.0081 -0.0080
17890TIP3   OH275160   4.513   2.246   0.762 -0.4227  0.4653  0.1305
17890TIP3    H175161   4.517   2.310   0.833  0.4045 -0.2519  0.7471
17890TIP3    H275162   4.507   2.161   0.806 -0.5470  0.0539 -0.6644
17891TIP3   OH275163   2.463   3.820  15.220 -0.7579 -0.1716 -0.4717
17891TIP3    H175164   2.522   3.805  15.146  0.5329 -0.0452  0.5028
17891TIP3    H275165   2.455   3.734  15.262 -0.9844 -0.1093 -0.3853
17892TIP3   OH275166   3.879   0.859   0.721 -0.0921  0.3399 -0.2872
17892TIP3    H175167   3.838   0.788   0.673  0.8144 -0.0548 -0.4996
17892TIP3    H275168   3.952   0.818   0.767 -0.2365  0.9316  0.4881
17893TIP3   OH275169   1.224   5.734   3.264 -0.3567  0.0450  0.0916
17893TIP3    H175170   1.203   5.650   3.224 -0.3997  0.0436  0.1182
17893TIP3    H275171   1.140   5.779   3.272 -0.2958  0.2140 -0.2042
17894TIP3   OH275172   2.762   4.038   3.363  0.0586 -0.6397 -0.3149
17894TIP3    H175173   2.677   4.059   3.325  0.1554  0.3634  0.0123
17894TIP3    H275174   2.824   4.055   3.292  0.0925 -0.3302 -0.2079
17895TIP3   OH275175   3.186   5.800   2.674 -0.1798  0.4619  0.2892
17895TIP3    H175176   3.153   5.763   2.756  0.1643 -0.9695 -0.1862
17895TIP3    H275177   3.199   5.893   2.693  0.7219  0.0094  2.1350
17896TIP3   OH275178   3.574   3.037  14.612 -0.4323 -0.5904 -0.1466
17896TIP3    H175179   3.625   3.017  14.690 -1.3291 -1.3707  0.2521
17896TIP3    H275180   3.545   2.952  14.579 -1.0084 -0.1986 -0.6750
17897TIP3   OH275181   2.369   0.856  15.312  0.3552 -0.0470  0.2972
17897TIP3    H175182   2.420   0.814  15.242  1.7600  0.1042  1.1847
17897TIP3    H275183   2.278   0.833  15.293  0.6484  0.3245 -1.7958
17898TIP3   OH275184   0.753   4.487  16.260  0.3862  0.0644 -0.4904
17898TIP3    H175185   0.670   4.471  16.306  0.2047  0.0935 -0.8032
17898TIP3    H275186   0.819   4.446  16.316  0.3496  1.3058  0.5201
17899TIP3   OH275187   1.762   4.221  12.569 -0.2812 -0.0734 -0.0617
17899TIP3    H175188   1.673   4.186  12.577  0.3790 -1.4796  1.8152
17899TIP3    H275189   1.818   4.144  12.578  1.1997  1.2271  2.5560
17900TIP3   OH275190   4.281   5.688   6.160  0.4373  0.0994 -0.1999
17900TIP3    H175191   4.363   5.672   6.113  0.9352  1.0457  0.3117
17900TIP3    H275192   4.247   5.601   6.179  0.5930 -0.3135 -1.6558
17901TIP3   OH275193   5.437   6.333   3.174 -0.1642 -0.4418  0.0607
17901TIP3    H175194   5.382   6.341   3.252 -2.1336  2.4765 -1.4283
17901TIP3    H275195   5.525   6.319   3.208 -0.8422  1.2049  2.8570
17902TIP3   OH275196   4.273   3.266  15.922 -0.5905  0.1588  0.4869
17902TIP3    H175197   4.334   3.214  15.870 -0.9615  0.0180  0.1844
17902TIP3    H275198   4.192   3.214  15.922 -0.2841 -0.3843  2.1231
17903TIP3   OH275199   3.099   0.475  14.713  0.2673 -0.2762 -0.3780
17903TIP3    H175200   3.068   0.558  14.750  1.0745  0.0335 -0.3851
17903TIP3    H275201   3.021   0.419  14.714 -0.3092  0.4939 -0.4382
17904TIP3   OH275202   3.695   0.841  11.939 -0.2959 -0.4541  0.0818
17904TIP3    H175203   3.750   0.875  12.009 -1.2058  0.9284  0.1644
17904TIP3    H275204   3.648   0.768  11.979 -1.8436  1.1717  1.3863
17905TIP3   OH275205   5.749   5.065  11.418  0.7651  0.1335 -0.5354
17905TIP3    H175206   5.775   5.010  11.345  0.3790 -0.6953 -0.0667
17905TIP3    H275207   5.817   5.051  11.484  0.6935  0.2562 -0.4357
17906TIP3   OH275208   0.847   4.432   0.951  0.8714 -0.0941 -0.0002
17906TIP3    H175209   0.865   4.366   1.018 -0.2362 -0.6064 -0.1787
17906TIP3    H275210   0.812   4.383   0.877  0.0550  0.6706 -0.1514
17907TIP3   OH275211   6.391   2.393  12.504 -0.1803  0.1054  0.6279
17907TIP3    H175212   6.396   2.471  12.559 -0.5773  0.6521 -0.0948
17907TIP3    H275213   6.370   2.426  12.417  0.9495 -0.6986  0.0227
17908TIP3   OH275214   4.385   1.896  12.921 -0.4256 -0.0735  0.3211
17908TIP3    H175215   4.472   1.878  12.957 -0.4902 -0.1421  0.4422
17908TIP3    H275216   4.344   1.954  12.986 -0.1438  0.6768 -0.1552
17909TIP3   OH275217   2.396   0.673   4.106  0.0494 -0.2998  0.0956
17909TIP3    H175218   2.486   0.649   4.084  0.3373 -0.7721  1.6726
17909TIP3    H275219   2.347   0.591   4.097 -0.5465  0.2432 -2.1430
17910TIP3   OH275220   4.978   3.758  11.353 -0.8408  0.0858 -0.1175
17910TIP3    H175221   4.982   3.662  11.347  0.9229  0.0826  0.5940
17910TIP3    H275222   5.066   3.787  11.329 -0.5986  1.3809  2.1342
17911TIP3   OH275223   5.184   1.652   1.624 -0.2497  0.1664 -0.2071
17911TIP3    H175224   5.178   1.743   1.653 -0.2966 -0.5577  2.3043
17911TIP3    H275225   5.261   1.617   1.669  0.2548 -0.8552 -1.7760
17912TIP3   OH275226   4.870   3.853  14.361 -0.0339 -0.2312 -0.1523
17912TIP3    H175227   4.911   3.928  14.403 -2.8835  1.0064  0.7064
17912TIP3    H275228   4.933   3.823  14.296  2.0336  1.6064  0.9071
17913TIP3   OH275229   1.176   1.989  11.261 -0.0198  0.2186 -0.2294
17913TIP3    H175230   1.225   2.039  11.196 -0.6824  0.1185 -0.8122
17913TIP3    H275231   1.187   1.898  11.236 -0.4313  0.1894 -0.3177
17914TIP3   OH275232   4.572   1.646   5.019  0.3606 -0.2670 -0.2185
17914TIP3    H175233   4.655   1.617   4.981  1.3442 -0.5030  1.9472
17914TIP3    H275234   4.537   1.568   5.062  0.3388  0.4140  1.0632
17915TIP3   OH275235   1.276   1.984   3.343  0.3518  0.2276  0.3556
17915TIP3    H175236   1.300   1.892   3.354  0.8090  0.5739  2.8553
17915TIP3    H275237   1.183   1.987   3.368  0.2567  0.4102 -0.0137
17916TIP3   OH275238   1.937   1.554  11.823 -0.5115 -0.0794  0.0644
17916TIP3    H175239   1.966   1.467  11.850  2.1660  0.1809 -1.5223
17916TIP3    H275240   2.001   1.581  11.756 -1.4754  2.9340  0.1770
17917TIP3   OH275241   5.487   6.695   1.728  0.2182 -0.5017 -0.0425
17917TIP3    H175242   5.552   6.644   1.679 -1.4380  0.0113 -3.0607
17917TIP3    H275243   5.522   6.784   1.729  0.3708 -0.5591 -0.1133
17918TIP3   OH275244   2.081   1.417   4.093  0.2156  0.2745 -0.5478
17918TIP3    H175245   2.146   1.357   4.130  0.8529 -0.1727 -2.2741
17918TIP3    H275246   2.081   1.492   4.152  1.5558 -0.1643  0.0579
17919TIP3   OH275247   2.395   2.170  11.610 -0.1585  0.2299  0.1005
17919TIP3    H175248   2.467   2.124  11.568 -0.4946 -0.9391  0.7796
17919TIP3    H275249   2.330   2.103  11.628 -0.9829  1.0939  0.4450
17920TIP3   OH275250   5.324   4.199   4.827 -0.2493 -0.5445 -0.2332
17920TIP3    H175251   5.365   4.120   4.864 -1.3900 -2.1562 -2.1933
17920TIP3    H275252   5.398   4.252   4.798  0.5701 -0.4940  1.7336
17921TIP3   OH275253   1.928   0.430  17.160 -0.3405 -0.3885  0.1812
17921TIP3    H175254   1.957   0.423  17.251  2.3281  2.9055 -0.2333
17921TIP3    H275255   1.999   0.392  17.109 -0.5688  0.2667 -0.6383
17922TIP3   OH275256   3.708   6.316  12.299  0.0420  0.2930  0.2664
17922TIP3    H175257   3.767   6.250  12.264 -1.3435 -1.5259  1.1848
17922TIP3    H275258   3.695   6.378  12.227 -2.3373 -2.9824 -2.4527
17923TIP3   OH275259   4.932   4.944  15.321 -0.2089  0.3803 -0.1003
17923TIP3    H175260   5.013   4.904  15.287  0.0474  0.5289  0.3256
17923TIP3    H275261   4.958   5.032  15.348  0.2396 -0.5714  2.9079
17924TIP3   OH275262   2.303   3.792  11.459  0.2793 -0.2531 -0.1107
17924TIP3    H175263   2.214   3.784  11.493  0.2411  0.6117  0.0318
17924TIP3    H275264   2.335   3.702  11.453 -0.7196 -0.5942 -0.4922
17925TIP3   OH275265   3.289   0.154  16.766  0.0281 -0.2118 -0.1189
17925TIP3    H175266   3.287   0.185  16.856  0.0440  0.1133 -0.2307
17925TIP3    H275267   3.382   0.146  16.745  0.0230 -0.8463  0.0830
17926TIP3   OH275268   5.132   1.194  15.306  0.2701 -0.1979  0.4938
17926TIP3    H175269   5.195   1.230  15.369 -1.6905  1.5180  1.5851
17926TIP3    H275270   5.047   1.224  15.336 -1.0124 -1.4045 -1.6227
17927TIP3   OH275271   1.994   3.493  12.129  0.2827  1.1410  0.1057
17927TIP3    H175272   2.001   3.413  12.078  0.3466  0.8647  0.5449
17927TIP3    H275273   1.988   3.463  12.220 -1.0137  1.5711  0.1851
17928TIP3   OH275274   5.927   1.783   6.600  0.2388 -0.0247  0.1698
17928TIP3    H175275   5.993   1.725   6.563 -1.7772 -1.6468 -1.0808
17928TIP3    H275276   5.965   1.870   6.593  3.8064 -1.0907  3.0398
17929TIP3   OH275277   0.366   4.103   1.734 -0.3938  0.1328 -0.8206
17929TIP3    H175278   0.343   4.193   1.712  0.0139  0.3314 -0.4445
17929TIP3    H275279   0.390   4.106   1.827  0.1330 -0.2593 -0.9393
17930TIP3   OH275280   5.491   2.704  10.976 -0.0983  0.8469 -0.4438
17930TIP3    H175281   5.567   2.757  11.000  1.8966 -1.3147 -1.5786
17930TIP3    H275282   5.453   2.749  10.900 -0.0658  2.0131  0.2085
17931TIP3   OH275283   5.120   5.255  17.070 -0.2766  0.0455 -0.2195
17931TIP3    H175284   5.061   5.283  17.140  0.5242  1.4783 -0.0787
17931TIP3    H275285   5.196   5.312  17.079  1.4523 -2.1500  0.0276
17932TIP3   OH275286   2.495   6.129   3.293 -0.2480 -0.2953 -0.2022
17932TIP3    H175287   2.586   6.125   3.322 -0.1210 -1.6787 -0.7208
17932TIP3    H275288   2.444   6.139   3.373  0.2720 -1.0202  0.2269
17933TIP3   OH275289   5.702   1.351  14.098  0.4767 -0.3131 -0.2881
17933TIP3    H175290   5.618   1.367  14.054 -1.1377 -2.3136  1.8328
17933TIP3    H275291   5.718   1.429  14.150  1.6685  1.4547 -3.0543
17934TIP3   OH275292   4.384   4.645  14.371 -0.1650 -0.4835  0.1044
17934TIP3    H175293   4.349   4.663  14.284 -1.4314  0.5365  0.7959
17934TIP3    H275294   4.469   4.604  14.354  0.8070  1.9707 -1.6576
17935TIP3   OH275295   6.554   5.017   3.623 -0.5076  0.1481 -0.7419
17935TIP3    H175296   6.625   4.956   3.640 -0.6767 -0.0250 -0.6619
17935TIP3    H275297   6.476   4.974   3.658 -0.4971  0.7721  0.0914
17936TIP3   OH275298   5.775   3.643  16.351 -0.5239  0.2314 -0.1321
17936TIP3    H175299   5.809   3.616  16.436  0.3101  1.2992 -0.1067
17936TIP3    H275300   5.684   3.667  16.368 -1.0291 -1.6341  0.0085
17937TIP3   OH275301   5.910   0.358   1.879  0.1238  0.0144  0.7049
17937TIP3    H175302   5.869   0.405   1.807  0.5590  1.7057  1.5240
17937TIP3    H275303   5.848   0.288   1.900  0.3993 -1.0946 -1.8606
17938TIP3   OH275304   1.497   4.398  14.485 -0.4205  0.2586 -0.1004
17938TIP3    H175305   1.519   4.308  14.462 -1.2571 -0.3039  1.2023
17938TIP3    H275306   1.536   4.411  14.571 -1.5106  0.6522  0.3473
17939TIP3   OH275307   3.080   5.357  16.292 -0.5850 -0.0578 -0.2362
17939TIP3    H175308   3.163   5.391  16.327 -0.5963 -0.1546 -0.1129
17939TIP3    H275309   3.106   5.299  16.221 -0.5901  0.6869 -0.8671
17940TIP3   OH275310   4.402   1.966  14.003 -0.0640  0.2508  0.4888
17940TIP3    H175311   4.465   2.035  14.023  1.2142 -0.7931  0.2827
17940TIP3    H275312   4.440   1.922  13.926 -1.3231 -0.0871  0.0443
17941TIP3   OH275313   5.055   3.016  10.365  0.3798  0.4762  0.6642
17941TIP3    H175314   5.099   3.067  10.432 -0.5269 -0.3070  1.9003
17941TIP3    H275315   4.962   3.026  10.384  0.0372  1.0111 -1.0810
17942TIP3   OH275316   3.039   6.177  16.048  0.3885 -0.0254  0.2637
17942TIP3    H175317   3.028   6.237  15.975 -0.4392  1.0028  1.2014
17942TIP3    H275318   2.968   6.198  16.108  1.0370 -0.8423  1.3740
17943TIP3   OH275319   0.772   1.573   1.002  0.1312  0.3101  0.2170
17943TIP3    H175320   0.726   1.592   0.920 -0.4369 -0.4266  0.3523
17943TIP3    H275321   0.778   1.477   1.005  0.8277  0.3544  0.6740
17944TIP3   OH275322   6.157   6.686   1.554  0.1045 -0.1065  0.1697
17944TIP3    H175323   6.141   6.624   1.625 -1.5377  0.2692  0.1720
17944TIP3    H275324   6.154   6.772   1.597 -0.8447  0.1205 -0.3226
17945TIP3   OH275325   0.297   5.055   2.088  0.4750 -0.0863  0.6260
17945TIP3    H175326   0.317   5.087   2.000 -2.3640 -0.1225 -0.1441
17945TIP3    H275327   0.348   5.111   2.147 -0.4422  2.5263 -0.9074
17946TIP3   OH275328   6.469   4.013  11.199 -0.9107  0.0284  0.0252
17946TIP3    H175329   6.376   4.008  11.223 -0.8708  0.5508  0.3020
17946TIP3    H275330   6.476   4.095  11.150  0.0096  1.8336  2.8748
17947TIP3   OH275331   0.422   3.803  14.805  0.2122 -0.4648  0.4854
17947TIP3    H175332   0.486   3.732  14.811 -0.1493 -0.7476  1.0847
17947TIP3    H275333   0.338   3.759  14.795  0.2441 -0.0888 -2.1122
17948TIP3   OH275334   6.072   4.081   2.309  0.1813 -0.0564 -0.3762
17948TIP3    H175335   6.113   4.041   2.386 -0.1220  0.7890  0.2336
17948TIP3    H275336   5.978   4.069   2.322  0.0874  0.7684 -0.2164
17949TIP3   OH275337   0.193   1.757   0.620  0.4540  0.1469  0.1399
17949TIP3    H175338   0.135   1.715   0.556 -0.0942 -0.6852  1.1604
17949TIP3    H275339   0.169   1.718   0.704  2.2170  0.0957  0.6528
17950TIP3   OH275340   4.491   5.726   0.311  0.4252 -0.1498 -0.3728
17950TIP3    H175341   4.471   5.645   0.264  0.0516  0.3094 -1.0224
17950TIP3    H275342   4.447   5.794   0.261 -0.2177  0.3261  0.8028
17951TIP3   OH275343   3.107   1.380   2.892  0.0944  0.0014 -0.5764
17951TIP3    H175344   3.142   1.299   2.854  0.4874  0.3503 -0.9720
17951TIP3    H275345   3.081   1.355   2.980  2.6446  0.0264  0.2594
17952TIP3   OH275346   4.898   0.676  13.395  0.2662  0.0419 -0.2127
17952TIP3    H175347   4.810   0.674  13.356  1.3544  1.1588 -2.9464
17952TIP3    H275348   4.943   0.747  13.350  3.1635 -1.6180 -0.1951
17953TIP3   OH275349   5.700   5.826   1.636  0.2662  0.4195 -0.6360
17953TIP3    H175350   5.734   5.742   1.669 -0.4924 -0.3744 -1.7784
17953TIP3    H275351   5.732   5.891   1.698 -0.3895 -0.8887  1.1797
17954TIP3   OH275352   6.620   5.687  14.668 -0.6042 -1.1790 -0.2223
17954TIP3    H175353   6.569   5.691  14.588 -1.4878 -0.9765  0.3399
17954TIP3    H275354   6.570   5.630  14.726 -1.3496  0.7577  1.1288
17955TIP3   OH275355   2.068   5.765  12.354 -0.0932  0.2501  0.3090
17955TIP3    H175356   2.153   5.801  12.378 -0.1248  1.0086 -0.6422
17955TIP3    H275357   2.054   5.794  12.264 -0.5930 -1.3040 -0.1486
17956TIP3   OH275358   0.428   0.803   0.490  0.2329 -0.3896  0.2158
17956TIP3    H175359   0.422   0.737   0.560 -1.3605 -1.8466 -1.1861
17956TIP3    H275360   0.449   0.753   0.411  0.9874  1.0735 -0.5595
17957TIP3   OH275361   6.773   0.096  13.929 -0.4831  0.0906  0.4034
17957TIP3    H175362   6.842   0.149  13.969 -0.3277  0.7698 -0.7450
17957TIP3    H275363   6.726   0.058  14.004  0.1162  0.9215  1.2199
17958TIP3   OH275364   3.807   0.312   5.721 -0.3136 -0.1043  0.6490
17958TIP3    H175365   3.884   0.271   5.761 -0.3402 -1.1058 -0.2518
17958TIP3    H275366   3.737   0.299   5.785  0.1997  0.5837  1.3626
17959TIP3   OH275367   3.886   3.350   5.092  0.0607 -0.2148  0.0569
17959TIP3    H175368   3.971   3.321   5.059  1.5742  3.3498  0.4285
17959TIP3    H275369   3.858   3.280   5.151  2.0570 -2.0731 -1.0594
17960TIP3   OH275370   3.393   1.215   2.054  0.5626  0.3719 -0.1744
17960TIP3    H175371   3.367   1.291   2.106 -2.1212 -0.9031  0.4874
17960TIP3    H275372   3.436   1.156   2.116 -0.1388  0.0360 -0.0059
17961TIP3   OH275373   4.204   0.121   5.166  0.3404  0.3971 -0.1283
17961TIP3    H175374   4.287   0.139   5.210  0.9673 -1.3050 -0.5467
17961TIP3    H275375   4.229   0.095   5.077 -0.5835 -0.8283 -0.0453
17962TIP3   OH275376   4.508   2.707   2.078 -0.6143  0.5716 -0.1007
17962TIP3    H175377   4.590   2.700   2.030 -0.2426 -1.2697  0.7621
17962TIP3    H275378   4.441   2.709   2.009  0.0832  1.2418 -0.7786
17963TIP3   OH275379   3.626   6.759  13.607 -0.0661  1.3393  0.3419
17963TIP3    H175380   3.680   6.691  13.647  0.9675  3.1479  2.2280
17963TIP3    H275381   3.536   6.726  13.613  0.5838 -1.1440 -1.6487
17964TIP3   OH275382   5.282   2.257  13.873 -0.2241 -0.0731  0.0720
17964TIP3    H175383   5.241   2.327  13.923 -0.3018  0.0805 -0.2008
17964TIP3    H275384   5.373   2.255  13.903 -0.0181  0.6676 -0.4727
17965TIP3   OH275385   1.432   3.750   0.367  0.4528 -0.4388  0.2611
17965TIP3    H175386   1.514   3.705   0.387  1.3354  0.5454 -0.9753
17965TIP3    H275387   1.411   3.798   0.447  0.7445 -1.1814  0.7917
17966TIP3   OH275388   1.421   0.849  13.188 -0.0329 -0.1748  0.2246
17966TIP3    H175389   1.491   0.891  13.238  0.3769 -0.2760 -0.2571
17966TIP3    H275390   1.441   0.871  13.097 -2.1976  2.2595  0.2108
17967TIP3   OH275391   1.786   3.124  14.427 -0.2189 -0.5957 -0.2105
17967TIP3    H175392   1.805   3.187  14.497  0.2494 -3.4107  2.3895
17967TIP3    H275393   1.690   3.122  14.423 -0.2860 -1.2038  1.1942
17968TIP3   OH275394   0.870   6.160   1.574  0.9528  0.8518 -0.4673
17968TIP3    H175395   0.785   6.202   1.589  0.6242 -0.0905  0.3152
17968TIP3    H275396   0.919   6.173   1.655  1.4758  1.1533 -0.8167
17969TIP3   OH275397   6.192   0.196  11.215 -0.0649 -0.2201 -0.0711
17969TIP3    H175398   6.201   0.288  11.191 -0.8422 -0.3324 -0.8418
17969TIP3    H275399   6.172   0.151  11.132  4.4059 -1.7584 -0.6004
17970TIP3   OH275400   0.083   2.398  16.354  0.3662 -0.3168  0.4131
17970TIP3    H175401   0.150   2.363  16.412  0.5925  0.5986  0.7137
17970TIP3    H275402   0.058   2.324  16.298  1.8432 -0.5859  0.0884
17971TIP3   OH275403   4.038   4.156   5.285 -0.4065 -0.2205  0.1657
17971TIP3    H175404   4.095   4.229   5.259 -0.8197 -0.0023 -0.1428
17971TIP3    H275405   4.089   4.077   5.264 -1.2914 -0.1169 -2.8216
17972TIP3   OH275406   3.507   1.011  10.633 -0.3758 -0.1728 -0.3014
17972TIP3    H175407   3.420   0.977  10.609 -0.4550 -0.1575 -0.0340
17972TIP3    H275408   3.547   0.941  10.683  0.5367 -0.9804 -2.0664
17973TIP3   OH275409   1.128   2.334   0.114 -0.3285  0.1199  0.1013
17973TIP3    H175410   1.111   2.427   0.128 -2.5288 -0.5178  2.0964
17973TIP3    H275411   1.107   2.320   0.021 -0.4319  1.5013 -0.1044
17974TIP3   OH275412   0.712   2.576  15.365 -1.0205 -0.2241 -0.1141
17974TIP3    H175413   0.629   2.592  15.320 -0.7868 -0.6846 -0.7305
17974TIP3    H275414   0.720   2.649  15.427 -1.4763  0.2905 -0.6400
17975TIP3   OH275415   0.307   3.127   2.199  0.0153  0.3188 -0.0037
17975TIP3    H175416   0.377   3.159   2.142  0.1137  2.0992  1.0451
17975TIP3    H275417   0.226   3.155   2.155  0.0019 -0.2808 -0.3748
17976TIP3   OH275418   2.760   3.771  13.493 -0.3967  0.3521  0.7679
17976TIP3    H175419   2.777   3.847  13.549  0.6631  1.5467 -1.0699
17976TIP3    H275420   2.847   3.743  13.464 -0.9368  0.4048 -1.0455
17977TIP3   OH275421   4.076   0.401   1.535  0.2663 -0.1293  0.3307
17977TIP3    H175422   4.007   0.457   1.499  2.1192  0.8593 -1.9404
17977TIP3    H275423   4.139   0.462   1.574  0.7704 -0.8784  0.7087
17978TIP3   OH275424   3.641   2.958   1.097  0.1540  0.3633  0.4150
17978TIP3    H175425   3.716   2.931   1.044  0.5807 -0.6777  1.4845
17978TIP3    H275426   3.569   2.902   1.067  0.1617  0.4070  0.3152
17979TIP3   OH275427   1.951   4.940  11.689  0.3352 -0.3187 -0.2572
17979TIP3    H175428   1.952   4.967  11.781  1.1679  2.0486 -0.8863
17979TIP3    H275429   1.961   4.845  11.692  1.5437 -0.1975  2.0836
17980TIP3   OH275430   0.616   1.971   5.457 -0.1754  0.1619  0.0968
17980TIP3    H175431   0.525   1.948   5.477 -0.1663  0.7447  0.8694
17980TIP3    H275432   0.618   1.983   5.362 -1.2289  1.4320  0.2054
17981TIP3   OH275433   0.380   4.409   2.220 -0.0622 -0.3652  0.0382
17981TIP3    H175434   0.383   4.430   2.127 -1.2685 -0.4778 -0.0428
17981TIP3    H275435   0.423   4.482   2.263 -1.5514  0.8560 -0.4545
17982TIP3   OH275436   0.840   4.431  17.212 -0.8309 -0.0357 -0.0664
17982TIP3    H175437   0.818   4.485  17.136 -1.6651  0.2493  0.3734
17982TIP3    H275438   0.774   4.363  17.213 -0.4924 -0.3638  0.0947
17983TIP3   OH275439   5.125   4.321  12.588 -0.0532 -0.4381 -0.0954
17983TIP3    H175440   5.197   4.258  12.591  0.2922 -0.0804 -0.7154
17983TIP3    H275441   5.134   4.371  12.669  0.8825  0.1231 -0.5284
17984TIP3   OH275442   5.050   5.169  16.018  0.0470  0.5746 -0.3692
17984TIP3    H175443   5.083   5.258  16.005  1.3411  0.7153  3.0169
17984TIP3    H275444   5.001   5.173  16.100 -0.8098 -1.6448 -0.6978
17985TIP3   OH275445   1.654   6.378   1.470  0.4914 -0.3804  0.0047
17985TIP3    H175446   1.618   6.356   1.556 -1.0671  0.8508 -0.3153
17985TIP3    H275447   1.684   6.293   1.435  1.4447 -0.8629  1.8467
17986TIP3   OH275448   3.352   0.925   1.667  0.4504 -0.2170  0.1339
17986TIP3    H175449   3.316   0.938   1.755  0.5873  2.3519 -0.1021
17986TIP3    H275450   3.279   0.891   1.616  0.1688 -1.0500  1.0676
17987TIP3   OH275451   2.898   0.476   0.527  0.0792  0.2472 -0.4583
17987TIP3    H175452   2.915   0.564   0.494  0.9351  0.4002  0.3613
17987TIP3    H275453   2.940   0.418   0.465 -0.0389  0.4352 -0.7159
17988TIP3   OH275454   1.391   3.274  12.364  0.4676 -0.3553 -1.0569
17988TIP3    H175455   1.452   3.216  12.318  3.7837  1.5038  0.7057
17988TIP3    H275456   1.399   3.358  12.319 -1.9345 -0.3303 -1.6081
17989TIP3   OH275457   5.381   6.131   0.964 -0.4500  0.0382 -0.5349
17989TIP3    H175458   5.380   6.148   1.058 -0.3485 -3.6196  0.3075
17989TIP3    H275459   5.471   6.149   0.938 -0.0002 -0.5393  0.5172
17990TIP3   OH275460   2.808   2.140   3.730 -0.0202  0.6996  0.1446
17990TIP3    H175461   2.756   2.093   3.664  0.4219 -0.5218  0.6302
17990TIP3    H275462   2.784   2.232   3.718  1.8974  0.8921 -3.3932
17991TIP3   OH275463   3.280   0.818   1.972  0.1293  0.2996 -0.4029
17991TIP3    H175464   3.369   0.788   1.986 -0.3250 -1.9646 -1.8019
17991TIP3    H275465   3.225   0.758   2.024 -0.6524  0.6808 -0.7652
17992TIP3   OH275466   6.062   3.708  10.935  0.5033 -0.3035  0.1437
17992TIP3    H175467   5.967   3.711  10.943  0.4438  0.3048 -0.6303
17992TIP3    H275468   6.078   3.636  10.874  0.5740 -0.6792  0.5959
17993TIP3   OH275469   1.777   2.562  15.589 -0.2540  0.1211 -0.1844
17993TIP3    H175470   1.726   2.524  15.660  0.1257 -1.1820 -0.5665
17993TIP3    H275471   1.859   2.512  15.590  0.6675  1.5887 -0.1259
17994TIP3   OH275472   2.920   5.009  14.312  0.1763 -0.3562  0.1321
17994TIP3    H175473   2.907   4.937  14.374 -0.2662 -0.9036 -0.5819
17994TIP3    H275474   2.926   5.087  14.367 -2.2633 -0.5493  0.7920
17995TIP3   OH275475   3.558   1.878   6.046  0.1546  0.3968 -0.6856
17995TIP3    H175476   3.627   1.827   6.004 -0.0340 -0.5133  0.0677
17995TIP3    H275477   3.480   1.861   5.994 -0.3447 -1.6629  0.6320
17996TIP3   OH275478   6.773   6.133   5.166  0.4273 -0.0957  0.1078
17996TIP3    H175479   6.715   6.109   5.093  2.6113  0.7320 -2.0099
17996TIP3    H275480   6.755   6.225   5.182  0.1557 -0.2038  0.4367
17997TIP3   OH275481   5.414   1.328   1.646  0.3035 -0.5896 -0.2168
17997TIP3    H175482   5.360   1.336   1.724 -0.9957  0.0986 -1.1451
17997TIP3    H275483   5.354   1.296   1.579  0.9348  0.5390 -1.3715
17998TIP3   OH275484   1.621   1.868   0.618 -0.0397 -0.0479  0.5446
17998TIP3    H175485   1.606   1.798   0.681  3.4546 -1.1770  0.3100
17998TIP3    H275486   1.596   1.948   0.665 -1.6735 -1.1950  1.7180
17999TIP3   OH275487   5.021   1.548   1.926  0.6790  0.0991  0.0810
17999TIP3    H175488   4.952   1.482   1.925  1.0306 -0.2736 -0.0728
17999TIP3    H275489   5.008   1.597   2.007  0.2562  0.0094  0.0642
18000TIP3   OH275490   2.880   2.997   4.949  0.4637  0.0116  0.3889
18000TIP3    H175491   2.932   3.037   4.880 -1.7100  1.7344 -0.3917
18000TIP3    H275492   2.859   2.910   4.917  1.4739 -0.0932 -0.0112
18001TIP3   OH275493   0.904   3.500  15.893  0.4339 -0.3001 -0.2731
18001TIP3    H175494   0.993   3.467  15.895  0.6791  0.3127 -0.7658
18001TIP3    H275495   0.902   3.562  15.820  0.2764  1.5268  1.1986
18002TIP3   OH275496   0.512   0.920  10.462  0.1611  0.2614 -0.3480
18002TIP3    H175497   0.452   0.955  10.396 -1.1444  0.3419  0.8448
18002TIP3    H275498   0.578   0.872  10.411 -0.8916  0.1994 -1.6990
18003TIP3   OH275499   6.787   0.943  12.559  0.2951  0.3662  0.0059
18003TIP3    H175500   6.724   0.882  12.521 -1.4427  1.1798  1.4208
18003TIP3    H275501   6.733   1.012  12.597  2.1004  1.5130  0.6117
18004TIP3   OH275502   5.381   4.449  16.929  0.7706  0.5613  0.4152
18004TIP3    H175503   5.358   4.542  16.923 -0.7518  0.2175  0.5106
18004TIP3    H275504   5.307   4.403  16.890  1.3007 -0.6418  0.7700
18005TIP3   OH275505   2.726   2.271  13.004 -0.0259  0.1959 -0.5390
18005TIP3    H175506   2.776   2.351  12.988  1.0666 -0.3903 -0.1816
18005TIP3    H275507   2.746   2.248  13.094 -1.6448  0.3928 -0.0960
18006TIP3   OH275508   2.235   6.251   4.191 -0.7601  0.0770  0.1304
18006TIP3    H175509   2.145   6.250   4.158 -1.5612  2.2584  1.9819
18006TIP3    H275510   2.265   6.341   4.177  1.2582 -0.6541 -0.6334
18007TIP3   OH275511   6.124   5.419   4.578 -0.2556  0.2550  0.1897
18007TIP3    H175512   6.165   5.384   4.657  0.5696  1.4468  0.3205
18007TIP3    H275513   6.166   5.371   4.507 -0.4124 -0.2492  0.4289
18008TIP3   OH275514   5.428   0.543  16.786 -0.1502  0.1052  0.0582
18008TIP3    H175515   5.365   0.497  16.842  0.4178 -0.5309  0.1836
18008TIP3    H275516   5.496   0.478  16.769  1.3265  1.2532  1.2845
18009TIP3   OH275517   1.605   4.741  10.500 -0.3856 -0.1596  0.2984
18009TIP3    H175518   1.566   4.671  10.552 -1.6404 -0.0794 -0.5011
18009TIP3    H275519   1.698   4.719  10.497 -0.8346 -2.1773 -0.4965
18010TIP3   OH275520   0.310   4.050  11.913  0.0913  0.4430 -0.0317
18010TIP3    H175521   0.317   3.996  11.991 -0.6895  0.2738 -0.0702
18010TIP3    H275522   0.324   3.989  11.840  0.8288  0.6024 -0.0301
18011TIP3   OH275523   3.522   1.231  10.472  0.4792  0.3577  0.0545
18011TIP3    H175524   3.548   1.151  10.517  1.3480  0.7967  0.3575
18011TIP3    H275525   3.460   1.273  10.531  1.1358  0.6193  0.5741
18012TIP3   OH275526   1.727   4.090  15.149  0.7721  0.0371  0.0242
18012TIP3    H175527   1.636   4.087  15.118  1.8593  0.5654 -3.7071
18012TIP3    H275528   1.725   4.147  15.225 -1.7309  1.8688 -1.2845
18013TIP3   OH275529   5.588   1.737  14.930 -0.0498 -0.0278  0.9040
18013TIP3    H175530   5.586   1.816  14.875  0.5352 -0.0010  0.9208
18013TIP3    H275531   5.572   1.665  14.869 -0.7693  0.1109  0.9161
18014TIP3   OH275532   2.699   0.968   2.030 -0.9153 -0.4050  0.3530
18014TIP3    H175533   2.659   0.934   1.950 -0.1296  2.2860 -1.3401
18014TIP3    H275534   2.787   0.931   2.030 -0.5998  0.2854 -0.6069
18015TIP3   OH275535   4.408   6.595  15.599  0.1161 -0.2915  0.2427
18015TIP3    H175536   4.344   6.575  15.668  1.8374  1.4344  2.4850
18015TIP3    H275537   4.488   6.550  15.627  0.7961  0.2623 -0.7517
18016TIP3   OH275538   4.014   4.167  11.315  0.6647 -0.5810 -0.0953
18016TIP3    H175539   3.939   4.111  11.293  0.2234 -0.0658  0.0583
18016TIP3    H275540   4.062   4.118  11.382 -0.5706 -0.1241  1.1771
18017TIP3   OH275541   0.948   6.787  11.009  0.2306  0.0693 -0.4989
18017TIP3    H175542   0.880   6.837  11.054  2.1782  1.4760  1.0828
18017TIP3    H275543   0.974   6.720  11.073  2.4297  1.5430  0.3042
18018TIP3   OH275544   1.910   6.112   2.950  0.0777 -0.3925  0.0151
18018TIP3    H175545   1.852   6.064   2.890 -0.5735 -1.1521  1.2238
18018TIP3    H275546   1.970   6.046   2.984  1.3963  0.3039 -0.8600
18019TIP3   OH275547   6.797   5.632   5.628 -0.1803 -0.0897  0.1044
18019TIP3    H175548   6.799   5.671   5.715 -0.7256  0.5971 -0.1751
18019TIP3    H275549   6.883   5.651   5.591  0.6857 -1.8524  1.0846
18020TIP3   OH275550   1.229   5.927  11.707 -0.0180 -0.5409 -0.2538
18020TIP3    H175551   1.255   5.991  11.640  0.3037  1.1737  1.4078
18020TIP3    H275552   1.188   5.980  11.775 -1.2372 -2.3463  0.4949
18021TIP3   OH275553   3.597   1.860   0.894 -0.2429  0.4518  0.0649
18021TIP3    H175554   3.664   1.913   0.938  1.3839 -0.7574 -0.8531
18021TIP3    H275555   3.561   1.919   0.827  1.4263  0.5244 -0.8389
18022TIP3   OH275556   3.011   6.484   2.161  0.3224 -0.0220  0.5438
18022TIP3    H175557   3.036   6.468   2.070  0.6924  0.6578  0.5141
18022TIP3    H275558   2.984   6.576   2.162  0.7322  0.0998  1.2006
18023TIP3   OH275559   3.923   3.228  14.462 -0.2837 -0.4218 -0.7635
18023TIP3    H175560   3.951   3.206  14.551  0.2931 -0.5369 -0.9628
18023TIP3    H275561   3.854   3.165  14.441 -1.2994  0.3973  0.0483
18024TIP3   OH275562   0.549   6.789   3.971 -0.0206  0.4642 -0.3514
18024TIP3    H175563   0.458   6.764   3.958 -0.0556 -0.4590  1.4323
18024TIP3    H275564   0.572   6.837   3.892 -1.4724 -0.9284 -1.6836
18025TIP3   OH275565   4.115   5.892  14.502 -0.0773 -0.2873  0.3016
18025TIP3    H175566   4.173   5.838  14.555  2.3768  1.3563 -0.5656
18025TIP3    H275567   4.083   5.833  14.434  0.8649 -1.1365  0.5735
18026TIP3   OH275568   2.103   2.398   0.258 -0.1332 -0.0587  0.8016
18026TIP3    H175569   2.049   2.339   0.311 -1.2276  0.7876  0.6798
18026TIP3    H275570   2.128   2.468   0.318  0.5425 -0.2564  0.7601
18027TIP3   OH275571   2.306   2.202  10.483 -0.0430  0.0933 -0.2623
18027TIP3    H175572   2.344   2.244  10.406  0.8867  0.1715  0.2189
18027TIP3    H275573   2.267   2.122  10.450 -1.0144  0.8610 -1.0460
18028TIP3   OH275574   5.578   3.263  14.990  0.6718 -0.5870  0.1003
18028TIP3    H175575   5.524   3.186  15.010 -0.5335 -0.0268 -0.9026
18028TIP3    H275576   5.618   3.243  14.906 -0.3253  0.2148 -0.5827
18029TIP3   OH275577   2.079   3.728  12.289 -0.1526  0.1479  0.5339
18029TIP3    H175578   2.088   3.808  12.237  1.1823 -0.2672  0.0800
18029TIP3    H275579   2.021   3.672  12.237 -1.2940  0.8843  0.9685
18030TIP3   OH275580   0.959   6.677   3.613  0.3458 -0.4752  0.0313
18030TIP3    H175581   0.998   6.756   3.574  0.1587 -0.3923  0.0143
18030TIP3    H275582   0.866   6.684   3.593  0.2005 -0.2901  0.7349
18031TIP3   OH275583   3.235   6.047   4.728 -0.5648 -0.2441 -0.1810
18031TIP3    H175584   3.265   6.092   4.649 -0.0773 -1.9810 -1.0283
18031TIP3    H275585   3.146   6.019   4.706 -0.9900  0.5489  0.4667
18032TIP3   OH275586   1.088   5.810   5.396 -0.0683  0.1290 -0.3976
18032TIP3    H175587   1.135   5.868   5.335 -0.4573 -1.3690 -2.2073
18032TIP3    H275588   1.014   5.778   5.346 -0.3080 -1.3203  0.8150
18033TIP3   OH275589   1.015   5.145   0.997 -0.2485  0.2441 -0.6590
18033TIP3    H175590   1.089   5.085   0.984  1.8644  0.9986  4.9078
18033TIP3    H275591   0.939   5.087   1.007  0.6366 -1.0471 -1.0951
18034TIP3   OH275592   3.201   6.408  13.527  0.0682 -0.2675  0.1196
18034TIP3    H175593   3.179   6.323  13.489 -0.4694 -0.6020  1.1308
18034TIP3    H275594   3.267   6.444  13.469  1.5639 -2.1294  0.5659
18035TIP3   OH275595   0.365   1.142   3.392  0.7026  0.5967 -0.6109
18035TIP3    H175596   0.372   1.186   3.477  0.2963  0.1551 -0.3478
18035TIP3    H275597   0.343   1.213   3.331 -0.8374  0.6395 -0.0433
18036TIP3   OH275598   0.866   6.367  15.317 -0.0796 -0.0033  0.2255
18036TIP3    H175599   0.845   6.458  15.340  0.0236 -0.1761  1.0040
18036TIP3    H275600   0.872   6.321  15.400  1.7035 -0.3418 -0.0496
18037TIP3   OH275601   0.835   2.688  14.781  0.0554 -0.1286 -0.0463
18037TIP3    H175602   0.775   2.718  14.849 -0.9089 -0.4390 -0.7399
18037TIP3    H275603   0.830   2.592  14.784 -1.2909 -0.1596 -1.6218
18038TIP3   OH275604   4.916   6.584  15.965 -0.2801  0.9123  0.6967
18038TIP3    H175605   4.943   6.632  15.886 -1.2833  1.1467  0.4785
18038TIP3    H275606   4.974   6.617  16.034  2.7874 -1.5280 -0.4681
18039TIP3   OH275607   1.494   1.214  15.628 -0.5338 -0.1805 -1.0099
18039TIP3    H175608   1.429   1.271  15.669  0.1226 -0.1110 -0.0159
18039TIP3    H275609   1.443   1.146  15.585 -1.3593  1.4185 -2.6809
18040TIP3   OH275610   5.305   3.387  13.586 -0.4215 -0.0080  0.0153
18040TIP3    H175611   5.391   3.422  13.608 -0.1210 -0.5451 -0.2758
18040TIP3    H275612   5.324   3.304  13.541 -0.8854  1.6267 -3.5758
18041TIP3   OH275613   4.588   4.592  15.274 -0.1793  0.1660  0.0161
18041TIP3    H175614   4.666   4.577  15.328  0.9163 -1.5574 -1.9213
18041TIP3    H275615   4.607   4.674  15.228  0.0454  0.2649  0.2756
18042TIP3   OH275616   0.337   2.551  13.380 -0.1386  0.0578 -0.0690
18042TIP3    H175617   0.342   2.464  13.420  1.2816  0.2246  0.1581
18042TIP3    H275618   0.281   2.601  13.440  0.8914 -0.0711  1.0258
18043TIP3   OH275619   0.483   2.463   0.809  0.0998  0.1802  0.0002
18043TIP3    H175620   0.449   2.515   0.881 -1.6552 -0.3118 -0.4307
18043TIP3    H275621   0.463   2.373   0.833  2.1155 -0.2445  0.2264
18044TIP3   OH275622   6.585   4.229   0.420 -0.2686 -0.2193  0.0091
18044TIP3    H175623   6.550   4.140   0.427 -0.2211 -0.3193 -0.9094
18044TIP3    H275624   6.632   4.229   0.337 -0.6944  0.8056 -0.2432
18045TIP3   OH275625   2.747   1.409  12.261 -0.2661  0.1284  0.1294
18045TIP3    H175626   2.821   1.375  12.211  0.0098  0.2500  0.4447
18045TIP3    H275627   2.776   1.405  12.352 -1.0803 -0.8827  0.3664
18046TIP3   OH275628   0.539   6.214  13.419 -0.5093  0.6433  0.0645
18046TIP3    H175629   0.516   6.290  13.473  3.1665  2.3578 -0.4511
18046TIP3    H275630   0.555   6.144  13.482  1.6522  2.0322  1.2190
18047TIP3   OH275631   1.652   6.184   5.275  0.2110  0.2549 -0.2657
18047TIP3    H175632   1.712   6.258   5.270 -0.2948  0.9569  2.2579
18047TIP3    H275633   1.703   6.109   5.246  1.5463  1.2026 -0.4679
18048TIP3   OH275634   4.346   4.715  11.119 -0.1217 -0.4175 -1.3200
18048TIP3    H175635   4.310   4.708  11.207  1.1384 -1.8444 -0.8712
18048TIP3    H275636   4.399   4.795  11.121  0.4925 -0.8350 -0.5483
18049TIP3   OH275637   0.506   5.472  12.724 -0.6061  0.1445  0.1115
18049TIP3    H175638   0.585   5.522  12.705  0.6944 -1.4336  1.0766
18049TIP3    H275639   0.478   5.437  12.639 -0.3880  0.8752 -0.2632
18050TIP3   OH275640   1.743   4.335  17.187  0.4796 -0.5243 -0.1168
18050TIP3    H175641   1.696   4.252  17.179 -1.2039  0.4739 -1.2029
18050TIP3    H275642   1.831   4.316  17.154 -0.3360 -1.5309 -1.8756
18051TIP3   OH275643   0.881   4.844  13.846 -0.5525 -0.0242 -0.6969
18051TIP3    H175644   0.967   4.874  13.817 -0.9425  1.1873 -0.6382
18051TIP3    H275645   0.859   4.774  13.785  0.8837 -1.0347 -0.1223
18052TIP3   OH275646   5.594   4.017  16.568 -0.3978 -0.0589 -0.1011
18052TIP3    H175647   5.501   4.005  16.588 -0.6497  0.6868 -0.7823
18052TIP3    H275648   5.613   3.951  16.501 -0.3781 -0.3430  0.1796
18053TIP3   OH275649   3.883   6.823   4.617  0.1331 -0.0016  0.7119
18053TIP3    H175650   3.968   6.836   4.659  1.2927 -1.5034 -1.0362
18053TIP3    H275651   3.848   6.744   4.656  1.6432 -1.9498 -1.6092
18054TIP3   OH275652   6.546   5.428  14.256 -0.6719  0.4663  0.2220
18054TIP3    H175653   6.565   5.494  14.189 -1.9997  1.8531  1.1448
18054TIP3    H275654   6.460   5.393  14.232  0.5791 -1.9621 -1.0045
18055TIP3   OH275655   6.773   2.109  12.172  0.8752  0.5088 -0.0171
18055TIP3    H175656   6.808   2.041  12.115  0.4091  0.8948 -0.7801
18055TIP3    H275657   6.678   2.101  12.163  0.7773  0.3115  1.0309
18056TIP3   OH275658   0.671   6.178   3.507 -0.2524  0.5567 -0.2937
18056TIP3    H175659   0.691   6.243   3.440  0.8921  0.5502  0.0189
18056TIP3    H275660   0.670   6.227   3.589  2.9291 -0.0996  0.2613
18057TIP3   OH275661   0.142   5.509  11.139  0.5502 -0.6847  0.6458
18057TIP3    H175662   0.232   5.531  11.116  0.7308 -0.5106  1.4831
18057TIP3    H275663   0.090   5.537  11.064  1.1751 -0.6585  0.2168
18058TIP3   OH275664   5.242   5.049  11.497  1.1526  0.0444  0.0135
18058TIP3    H175665   5.147   5.034  11.495  1.5285 -2.7992  0.4876
18058TIP3    H275666   5.251   5.130  11.548 -1.0016  0.4341 -0.0994
18059TIP3   OH275667   3.351   2.552   0.166  0.4453 -0.1150 -0.3268
18059TIP3    H175668   3.375   2.545   0.258 -0.1865  0.6899 -0.0930
18059TIP3    H275669   3.390   2.634   0.137 -0.0907  0.0671 -0.5420
18060TIP3   OH275670   1.681   3.715   1.339 -0.1221 -0.9962  0.5096
18060TIP3    H175671   1.683   3.810   1.352  0.0761 -0.9423  0.0948
18060TIP3    H275672   1.723   3.701   1.255 -0.2876 -1.4432  0.4966
18061TIP3   OH275673   6.235   2.844  14.913 -0.2735 -0.0491  0.4049
18061TIP3    H175674   6.318   2.820  14.872 -1.3749  0.3751 -2.3023
18061TIP3    H275675   6.219   2.776  14.978  2.2662 -0.0071  1.1666
18062TIP3   OH275676   1.160   2.234  10.998  0.1173 -0.1297 -0.1164
18062TIP3    H175677   1.133   2.156  10.950  2.3338 -1.0428  0.0032
18062TIP3    H275678   1.254   2.241  10.981  0.1520  1.9495  0.7023
18063TIP3   OH275679   5.352   1.949   5.041  0.2239  0.3327 -0.0950
18063TIP3    H175680   5.313   1.863   5.058  0.8814 -0.0680 -0.5743
18063TIP3    H275681   5.305   1.982   4.965  0.9986 -0.2827 -0.8620
18064TIP3   OH275682   0.675   4.895  11.536 -0.0271  0.2431  0.3311
18064TIP3    H175683   0.738   4.842  11.584  1.5458 -0.1718 -2.0273
18064TIP3    H275684   0.715   4.909  11.450 -2.6730  0.9316 -0.9027
18065TIP3   OH275685   5.103   6.323   0.294  0.0055 -0.1162  0.0838
18065TIP3    H175686   5.121   6.229   0.296  1.9455  0.2193  0.0835
18065TIP3    H275687   5.019   6.332   0.339 -0.0212 -1.7994  0.4448
18066TIP3   OH275688   0.062   6.039  16.944 -0.0573  0.0591  0.4547
18066TIP3    H175689   0.005   6.096  16.893  0.0754  0.5210  0.8103
18066TIP3    H275690   0.117   5.995  16.879  0.2873  0.8332  0.2166
18067TIP3   OH275691   1.086   3.512  12.944 -0.0740  0.0770 -0.1701
18067TIP3    H175692   1.126   3.581  12.890  0.8573 -1.1037 -1.0406
18067TIP3    H275693   1.010   3.483  12.893  0.3767 -0.5321 -0.4965
18068TIP3   OH275694   2.324   1.168  11.175  0.3424  0.2478  0.4513
18068TIP3    H175695   2.326   1.155  11.080 -0.4252 -0.0498  0.4746
18068TIP3    H275696   2.415   1.154  11.203  0.5903  0.4427 -0.2508
18069TIP3   OH275697   2.208   6.715   1.077  0.4750 -0.4742 -0.2024
18069TIP3    H175698   2.247   6.801   1.091 -0.1427 -0.3081  0.6191
18069TIP3    H275699   2.142   6.730   1.010  0.3238 -0.2855 -0.0151
18070TIP3   OH275700   2.552   0.072   2.348 -0.0126  0.7469 -0.1124
18070TIP3    H175701   2.634   0.024   2.341  0.6082  1.9739 -2.4132
18070TIP3    H275702   2.578   0.161   2.373 -0.6673  1.0654 -0.5384
18071TIP3   OH275703   6.750   5.566   5.312 -0.1345 -0.8330  0.1024
18071TIP3    H175704   6.769   5.586   5.404  0.0002  0.1322 -0.1357
18071TIP3    H275705   6.681   5.499   5.317 -0.3814 -0.5329  0.9060
18072TIP3   OH275706   1.439   0.357   0.708  0.3029 -0.2456  0.1825
18072TIP3    H175707   1.528   0.391   0.699  0.5525 -0.8926  0.1450
18072TIP3    H275708   1.421   0.359   0.802  1.2396 -2.2669  0.4541
18073TIP3   OH275709   6.505   4.042   2.499  0.2573 -0.4224  0.3020
18073TIP3    H175710   6.548   4.029   2.415  1.8597 -0.5958  1.1221
18073TIP3    H275711   6.463   3.958   2.517  0.9114 -0.7691  0.2277
18074TIP3   OH275712   0.283   0.232  11.107  0.6187  0.7339  0.1680
18074TIP3    H175713   0.295   0.276  11.191 -0.2478 -0.5860  1.0144
18074TIP3    H275714   0.339   0.154  11.112  1.9372  1.5475 -1.2077
18075TIP3   OH275715   5.432   6.650   0.377 -0.1806  0.0566 -0.6342
18075TIP3    H175716   5.457   6.577   0.321 -0.2633  1.6862 -2.9361
18075TIP3    H275717   5.492   6.645   0.451  0.3419 -1.8459 -1.1241
18076TIP3   OH275718   6.061   1.143   4.140 -0.3510  0.4035 -0.3540
18076TIP3    H175719   6.135   1.182   4.185  0.8144 -0.1819 -1.6596
18076TIP3    H275720   6.033   1.070   4.196  1.3007 -0.5411 -0.6915
18077TIP3   OH275721   1.751   5.491  15.936  0.6717  0.1094  0.5623
18077TIP3    H175722   1.670   5.543  15.936 -0.8789 -2.0449 -1.8402
18077TIP3    H275723   1.820   5.556  15.919 -0.6951  1.8173  1.1634
18078TIP3   OH275724   1.833   6.790  14.694  0.4920  0.3511 -0.2766
18078TIP3    H175725   1.882   6.849  14.752  0.3359  1.3185 -1.1083
18078TIP3    H275726   1.760   6.760  14.747 -1.6367  3.8809 -0.8852
18079TIP3   OH275727   2.397   2.966   3.950 -0.4136 -0.3465 -0.3235
18079TIP3    H175728   2.398   2.873   3.974  0.3484 -0.6168 -1.3610
18079TIP3    H275729   2.356   2.968   3.864 -0.2829  0.2603 -0.3726
18080TIP3   OH275730   3.165   5.550  16.690  0.4444 -0.2350 -0.5379
18080TIP3    H175731   3.237   5.586  16.742 -0.2419 -0.0550  0.3299
18080TIP3    H275732   3.207   5.499  16.622  1.3801 -1.5989  0.9943
18081TIP3   OH275733   1.041   5.731  11.722  0.2629  0.1342  0.1147
18081TIP3    H175734   0.971   5.793  11.742  0.7332 -0.3657  4.0189
18081TIP3    H275735   1.116   5.786  11.699 -0.5343  0.7633 -1.1030
18082TIP3   OH275736   3.353   3.715   1.810  0.1163  0.5877 -0.7052
18082TIP3    H175737   3.322   3.634   1.849  0.5863 -0.2298 -1.9538
18082TIP3    H275738   3.360   3.777   1.883  2.2503 -1.2323  0.7594
18083TIP3   OH275739   2.419   1.949  16.925 -0.0313  0.2079 -0.2033
18083TIP3    H175740   2.334   1.994  16.931 -0.0565  0.4249 -1.7546
18083TIP3    H275741   2.396   1.858  16.903  0.0449 -0.4849  2.3445
18084TIP3   OH275742   4.974   5.400  14.689 -0.3120 -0.5797  0.3804
18084TIP3    H175743   4.950   5.454  14.765 -1.7964  0.4490 -0.7467
18084TIP3    H275744   4.956   5.311  14.717 -3.0600 -0.0701  0.5892
18085TIP3   OH275745   3.132   4.956  16.426 -0.2432  0.5770  0.1016
18085TIP3    H175746   3.136   4.909  16.342 -0.3611 -0.6441  0.7539
18085TIP3    H275747   3.126   5.048  16.402  1.2684  0.3694 -1.2187
18086TIP3   OH275748   5.147   5.328   6.421  0.0708  0.2149 -0.3838
18086TIP3    H175749   5.230   5.299   6.460 -0.3281  1.6012  1.6203
18086TIP3    H275750   5.159   5.421   6.406 -0.7237  0.1925 -1.2390
18087TIP3   OH275751   1.278   4.410   4.696  0.5177 -0.0623 -0.3838
18087TIP3    H175752   1.325   4.398   4.779 -0.4566  1.5371  0.4467
18087TIP3    H275753   1.201   4.354   4.704  0.0315  0.6547  0.1519
18088TIP3   OH275754   6.198   6.769   4.969  0.0036 -0.4057  0.3511
18088TIP3    H175755   6.133   6.797   5.034  0.1723 -2.0394  1.2793
18088TIP3    H275756   6.270   6.832   4.979 -0.8113  0.5600  0.3166
18089TIP3   OH275757   5.614   0.637   2.457  0.2353 -0.6757 -0.2065
18089TIP3    H175758   5.704   0.655   2.433 -0.0688  1.5510  0.1278
18089TIP3    H275759   5.614   0.637   2.553 -0.3671  0.9015 -0.1860
18090TIP3   OH275760   5.270   5.601  11.031  0.7643  0.6414  0.0824
18090TIP3    H175761   5.184   5.575  10.999  1.0960 -1.0288  0.4419
18090TIP3    H275762   5.332   5.549  10.980  1.5154  1.1541  0.4401
18091TIP3   OH275763   0.235   6.794   4.152 -0.1771 -0.4023 -0.4097
18091TIP3    H175764   0.211   6.873   4.104 -0.7380  0.1251  0.7108
18091TIP3    H275765   0.323   6.812   4.185  0.6979 -1.2233 -2.1522
18092TIP3   OH275766   4.556   5.757  13.697  0.1661 -0.4869  0.2248
18092TIP3    H175767   4.466   5.784  13.716  0.4388  0.3627  0.3317
18092TIP3    H275768   4.611   5.820  13.743  0.8268 -1.0744  0.2656
18093TIP3   OH275769   1.509   3.293  15.453 -0.3727  0.2928  0.6494
18093TIP3    H175770   1.436   3.234  15.471 -1.1054  0.6353 -1.0033
18093TIP3    H275771   1.577   3.237  15.414 -0.3132  0.2209  0.8552
18094TIP3   OH275772   6.091   4.429  11.170 -0.1044  0.7876 -0.1785
18094TIP3    H175773   6.006   4.472  11.160  0.2812  1.5712 -0.1940
18094TIP3    H275774   6.097   4.369  11.095 -0.4652  1.0422 -0.4126
18095TIP3   OH275775   5.471   3.593  16.654 -0.3032  0.0900 -0.0834
18095TIP3    H175776   5.478   3.683  16.684 -0.6745  0.1369 -0.1289
18095TIP3    H275777   5.442   3.600  16.563  0.4092 -0.0587 -0.3310
18096TIP3   OH275778   4.064   6.038  14.169 -0.4031  0.0026 -0.6465
18096TIP3    H175779   3.993   6.015  14.229 -1.8249 -0.4885 -2.4206
18096TIP3    H275780   4.101   5.954  14.142  0.7460  0.2471  0.0829
18097TIP3   OH275781   2.921   6.252  13.767 -0.5979 -0.0484 -0.4057
18097TIP3    H175782   2.861   6.241  13.840  1.2579 -0.1751  1.1726
18097TIP3    H275783   2.866   6.245  13.689 -2.5294 -0.5832  0.9492
18098TIP3   OH275784   6.705   4.621  14.210 -0.2978  0.1178 -0.2132
18098TIP3    H175785   6.630   4.587  14.162 -1.3849  0.2790  1.3177
18098TIP3    H275786   6.669   4.653  14.293  1.4894 -0.0452  0.6815
18099TIP3   OH275787   2.227   4.867   1.430 -0.0259  0.3945 -0.1570
18099TIP3    H175788   2.299   4.846   1.490 -0.9243  3.0435  2.0252
18099TIP3    H275789   2.156   4.808   1.457  0.2895 -0.0000 -0.1709
18100TIP3   OH275790   6.141   6.097  13.019 -0.4338 -0.1849 -0.1387
18100TIP3    H175791   6.156   6.068  12.929 -0.2387 -0.2469 -0.0859
18100TIP3    H275792   6.047   6.114  13.023 -0.2805  0.9033 -0.6851
18101TIP3   OH275793   6.228   3.735   0.253 -0.0045  0.2889 -0.7237
18101TIP3    H175794   6.154   3.774   0.207 -1.7725  1.1093  2.5062
18101TIP3    H275795   6.230   3.779   0.338  3.2134 -0.8806 -0.0333
18102TIP3   OH275796   4.605   0.566   5.760 -0.0026  0.0165  0.2266
18102TIP3    H175797   4.661   0.494   5.789 -0.0045  0.7694  2.2499
18102TIP3    H275798   4.660   0.644   5.768 -0.5306  0.4550 -0.3229
18103TIP3   OH275799   2.765   2.369   5.950 -0.1927  0.6114 -0.0541
18103TIP3    H175800   2.703   2.336   5.885  1.5450 -0.3177 -1.3440
18103TIP3    H275801   2.817   2.434   5.903  0.0445  1.1119  0.8813
18104TIP3   OH275802   0.938   6.469   1.788  0.5203 -0.2160  0.0705
18104TIP3    H175803   0.842   6.466   1.784  0.2553  1.5126  2.8735
18104TIP3    H275804   0.961   6.549   1.742  0.6235 -0.4204 -0.2426
18105TIP3   OH275805   2.242   5.004   0.714  0.2435 -0.0095  0.5488
18105TIP3    H175806   2.166   5.014   0.656 -1.0922  0.0203  2.2360
18105TIP3    H275807   2.204   4.987   0.800  2.1680  0.3196  1.5005
18106TIP3   OH275808   5.794   3.750   0.271  0.3719 -0.1486 -0.1288
18106TIP3    H175809   5.830   3.799   0.345  0.7149 -0.6597  0.0513
18106TIP3    H275810   5.701   3.773   0.271  0.6397  0.9985 -0.4575
18107TIP3   OH275811   1.430   3.620   1.159  0.4682 -0.1720 -0.3917
18107TIP3    H175812   1.501   3.597   1.219  0.0234  0.7723  0.5188
18107TIP3    H275813   1.389   3.536   1.137  0.3186 -0.4978  1.0361
18108TIP3   OH275814   1.498   0.648   4.038 -0.0414 -0.4733 -0.5787
18108TIP3    H175815   1.461   0.686   4.117  2.5715  2.4567 -0.5501
18108TIP3    H275816   1.427   0.653   3.973 -1.4902 -0.7551  0.9216
18109TIP3   OH275817   4.742   4.683  17.262  0.0865  0.3109 -0.5819
18109TIP3    H175818   4.700   4.647  17.340  1.2567  2.3778  1.0729
18109TIP3    H275819   4.669   4.702  17.203 -0.8425 -0.9900  0.0869
18110TIP3   OH275820   6.273   1.965  12.234  0.9716  0.1132  0.2901
18110TIP3    H175821   6.222   2.032  12.189 -1.5059 -0.4715  1.9972
18110TIP3    H275822   6.316   2.012  12.305  0.3622  0.1683  0.6363
18111TIP3   OH275823   3.953   6.053   0.028 -0.3807 -0.3193 -0.2455
18111TIP3    H175824   3.864   6.045  -0.005 -1.9073 -0.3198  3.3515
18111TIP3    H275825   3.975   5.966   0.061  0.2827  0.0544  0.3424
18112TIP3   OH275826   0.658   4.093   6.337  0.1019  0.4618  0.3574
18112TIP3    H175827   0.633   4.015   6.385  0.2431  1.0547  1.4174
18112TIP3    H275828   0.608   4.087   6.255 -1.3322  0.1834  1.2066
18113TIP3   OH275829   1.819   0.283  12.390  0.0987  0.4924 -0.2144
18113TIP3    H175830   1.750   0.306  12.452 -2.9032 -0.8164 -2.7899
18113TIP3    H275831   1.824   0.358  12.331  0.2072  0.1913 -0.5912
18114TIP3   OH275832   5.790   2.751   3.911 -0.3840  0.2872 -0.1295
18114TIP3    H175833   5.826   2.671   3.872 -0.7672  0.1109 -0.1274
18114TIP3    H275834   5.736   2.719   3.984  0.3733  0.6134  0.5904
18115TIP3   OH275835   0.630   4.194  15.255  0.1855 -0.3359 -0.2189
18115TIP3    H175836   0.648   4.223  15.165 -1.1518 -0.7122 -0.6314
18115TIP3    H275837   0.660   4.267  15.310  1.7547 -0.4327 -0.8991
18116TIP3   OH275838   6.258   1.347  11.589  0.6917 -0.9547 -0.4627
18116TIP3    H175839   6.169   1.322  11.612  0.3610  0.7710  0.2565
18116TIP3    H275840   6.278   1.420  11.647  1.7219  0.2215 -2.2216
18117TIP3   OH275841   3.376   1.745   4.109  0.4212 -0.3080  0.4191
18117TIP3    H175842   3.376   1.766   4.202  0.7947  1.5958  0.0352
18117TIP3    H275843   3.381   1.830   4.065 -2.4481 -0.9115 -1.3900
18118TIP3   OH275844   5.026   4.162   5.629 -0.4145  0.1996  0.1370
18118TIP3    H175845   5.003   4.070   5.642 -0.4400 -0.0068 -1.1966
18118TIP3    H275846   5.070   4.188   5.710 -0.4858 -0.9613  0.5622
18119TIP3   OH275847   1.344   0.635   1.538  0.0091  0.2128 -0.7281
18119TIP3    H175848   1.423   0.614   1.489 -1.1224  0.0604 -2.6074
18119TIP3    H275849   1.305   0.549   1.557  0.8945  0.2179  1.3310
18120TIP3   OH275850   4.236   5.077  16.155  0.0899 -0.5362  0.0939
18120TIP3    H175851   4.263   5.065  16.246  0.2867  0.0162  0.1134
18120TIP3    H275852   4.147   5.111  16.161  0.5616  0.7572  0.1302
18121TIP3   OH275853   5.943   0.999   1.056  0.1437 -0.4287 -0.1104
18121TIP3    H175854   5.868   1.019   1.112  0.2006  0.7307 -0.4271
18121TIP3    H275855   6.018   1.038   1.101  0.7164 -2.2675  0.6105
18122TIP3   OH275856   0.639   6.455   4.967  0.8064  0.4029  0.3993
18122TIP3    H175857   0.694   6.512   5.021  0.8962 -0.4944  1.2911
18122TIP3    H275858   0.576   6.418   5.028 -0.2487  0.7411 -0.4552
18123TIP3   OH275859   5.282   5.593   6.363 -0.3514 -0.5474 -0.7606
18123TIP3    H175860   5.332   5.649   6.305 -0.1298 -0.4354 -0.4664
18123TIP3    H275861   5.339   5.580   6.439 -0.6951 -0.5635 -0.4996
18124TIP3   OH275862   4.995   0.605  12.765 -0.1262 -0.1330 -0.4438
18124TIP3    H175863   5.019   0.598  12.857  1.8848  1.5009 -0.7828
18124TIP3    H275864   5.061   0.553  12.719 -0.1096  0.4496 -1.0859
18125TIP3   OH275865   2.357   1.340   3.381 -0.4913 -0.6393  0.0058
18125TIP3    H175866   2.301   1.337   3.459 -0.0362  0.0904  0.3745
18125TIP3    H275867   2.338   1.259   3.335 -0.1311 -1.4920  1.3150
18126TIP3   OH275868   4.327   4.103  14.977 -0.2948 -0.7965  0.4391
18126TIP3    H175869   4.297   4.086  15.067 -1.6515  0.0751  0.1904
18126TIP3    H275870   4.327   4.017  14.936 -1.4041 -0.9963  0.8019
18127TIP3   OH275871   2.804   0.610  14.498 -0.6293  0.3283  0.0565
18127TIP3    H175872   2.775   0.700  14.507 -2.3748 -0.1745 -0.2389
18127TIP3    H275873   2.898   0.617  14.479 -0.6687  2.0475  0.3206
18128TIP3   OH275874   2.396   5.039   5.414  0.1344  0.5062  0.3226
18128TIP3    H175875   2.453   5.003   5.482 -0.7677  1.8428  1.8593
18128TIP3    H275876   2.307   5.021   5.446 -0.3340 -0.2813 -1.3263
18129TIP3   OH275877   2.762   4.111  11.756 -0.3257 -0.3688 -0.2842
18129TIP3    H175878   2.831   4.049  11.778  1.0382  1.5262  1.0226
18129TIP3    H275879   2.698   4.102  11.828  0.5001  0.5878  0.6012
18130TIP3   OH275880   0.996   3.237   4.496  0.3507 -0.1231  0.1198
18130TIP3    H175881   1.074   3.228   4.551  0.9231 -2.2828 -0.9722
18130TIP3    H275882   1.025   3.292   4.423  0.6167 -0.2742  0.1110
18131TIP3   OH275883   1.671   6.499  12.061  0.2823 -0.6697 -0.4883
18131TIP3    H175884   1.654   6.412  12.024  1.5048 -0.9547 -0.4360
18131TIP3    H275885   1.766   6.503  12.069  0.1641  0.1363  0.8294
18132TIP3   OH275886   2.733   3.360   3.487 -0.0914  0.4335 -0.0209
18132TIP3    H175887   2.748   3.332   3.397 -3.3347 -1.3027 -0.1517
18132TIP3    H275888   2.745   3.455   3.485 -0.4221  0.4723 -2.3497
18133TIP3   OH275889   2.012   3.008   5.464  0.1503 -0.0615  0.3350
18133TIP3    H175890   1.969   2.925   5.483  1.3756 -0.2960  2.4047
18133TIP3    H275891   1.968   3.072   5.520 -0.0309  0.4613 -0.3925
18134TIP3   OH275892   5.154   3.999  14.227  0.1682  0.2824  0.7743
18134TIP3    H175893   5.235   4.028  14.185  0.1104 -0.7725 -0.0845
18134TIP3    H275894   5.126   3.923  14.176 -3.9170  3.2877 -2.0950
18135TIP3   OH275895   5.915   6.561  16.284 -0.2946 -0.0909  0.3730
18135TIP3    H175896   5.907   6.646  16.240 -1.4126 -0.8479 -0.9658
18135TIP3    H275897   5.825   6.536  16.303  0.0824 -0.5970  1.5456
18136TIP3   OH275898   3.387   6.553  15.791 -0.1758  0.0441  0.3547
18136TIP3    H175899   3.301   6.513  15.781 -1.6039  2.8506  0.3080
18136TIP3    H275900   3.381   6.636  15.744  3.0826 -0.2638 -0.8792
18137TIP3   OH275901   0.493   2.124   0.058 -0.1844  0.2070 -0.0544
18137TIP3    H175902   0.554   2.070   0.008  0.2438  0.3908  0.2677
18137TIP3    H275903   0.454   2.064   0.122  0.4363  0.3137  0.4343
18138TIP3   OH275904   4.947   3.743   6.224  0.2185 -0.0867 -0.3313
18138TIP3    H175905   4.882   3.797   6.269  0.6239  0.5076 -0.4445
18138TIP3    H275906   5.027   3.753   6.277  0.7628  0.8019 -1.2780
18139TIP3   OH275907   1.023   5.133   1.922 -0.4468 -0.1970 -0.0468
18139TIP3    H175908   1.035   5.150   2.016 -0.4558 -2.4558  0.4202
18139TIP3    H275909   0.928   5.131   1.910 -0.4607  1.1816 -0.3696
18140TIP3   OH275910   0.940   3.879  13.543 -0.0165  0.3453  0.1059
18140TIP3    H175911   0.896   3.888  13.627 -0.1597  1.6773 -0.0790
18140TIP3    H275912   0.973   3.790  13.541  2.4234  1.0494  2.7826
18141TIP3   OH275913   6.825   0.033  11.457 -0.1209  0.5896 -0.4496
18141TIP3    H175914   6.863   0.002  11.375 -0.1408 -0.7681  0.0298
18141TIP3    H275915   6.843  -0.037  11.520 -1.5195  0.8828  0.3206
18142TIP3   OH275916   3.992   4.842  14.413  0.3997  0.0721 -0.3777
18142TIP3    H175917   3.944   4.908  14.463  0.3857  0.3635 -0.7719
18142TIP3    H275918   3.994   4.765  14.470 -3.7560 -1.2898 -1.7022
18143TIP3   OH275919   4.635   0.823  13.523  0.1775 -0.0715 -0.0947
18143TIP3    H175920   4.615   0.770  13.446 -4.4856 -0.0955  0.8266
18143TIP3    H275921   4.666   0.759  13.588 -2.3632 -1.2698  0.0393
18144TIP3   OH275922   2.057   5.305  14.555 -0.1535 -0.0801  0.0648
18144TIP3    H175923   2.107   5.386  14.543  0.5815 -0.2691  1.6406
18144TIP3    H275924   1.967   5.329  14.532 -0.0978  1.4250  1.2776
18145TIP3   OH275925   2.660   1.175   4.826 -0.0307  0.2266  0.6191
18145TIP3    H175926   2.699   1.220   4.901 -0.8234  1.3935  0.3576
18145TIP3    H275927   2.580   1.225   4.807 -1.2130 -1.5601  0.6104
18146TIP3   OH275928   0.645   2.743   3.576 -0.0654 -0.8961  0.5651
18146TIP3    H175929   0.707   2.698   3.518  0.0989  0.2516 -0.1656
18146TIP3    H275930   0.566   2.690   3.571  0.6859 -2.1219  1.1491
18147TIP3   OH275931   3.072   5.480  15.909 -0.4275  0.7419  0.7856
18147TIP3    H175932   3.095   5.436  15.827 -0.8675 -0.3990  1.2504
18147TIP3    H275933   3.025   5.558  15.881 -1.4996 -0.1646 -0.0463
18148TIP3   OH275934   4.352   6.771   0.404 -0.0303  0.2149  0.1040
18148TIP3    H175935   4.386   6.739   0.321  1.4856  0.7370  0.4980
18148TIP3    H275936   4.288   6.838   0.380  0.2186  0.1938 -0.6292
18149TIP3   OH275937   1.807   2.492   1.156  0.5538 -0.2120  0.4585
18149TIP3    H175938   1.875   2.438   1.196  0.4988 -0.9696 -0.4424
18149TIP3    H275939   1.739   2.498   1.223  2.0885  1.8059  1.9641
18150TIP3   OH275940   1.996   2.097  11.098  0.4790 -0.2755 -0.8733
18150TIP3    H175941   1.985   2.021  11.041  0.3993 -0.5551 -0.4886
18150TIP3    H275942   2.064   2.149  11.056  0.8129 -0.7577 -0.9349
18151TIP3   OH275943   1.270   5.726  11.514 -0.5148 -0.6495 -0.3868
18151TIP3    H175944   1.355   5.682  11.523 -1.2947 -1.8309  2.8257
18151TIP3    H275945   1.273   5.796  11.579 -1.4370  0.3348 -1.3721
18152TIP3   OH275946   2.508   3.786   1.980 -0.0101 -0.0470  0.3048
18152TIP3    H175947   2.434   3.810   1.924  0.9381  0.6432 -0.6953
18152TIP3    H275948   2.573   3.751   1.920  0.9400  0.4841  0.9963
18153TIP3   OH275949   2.764   5.222  14.845  0.4325  0.8002  0.3619
18153TIP3    H175950   2.684   5.176  14.821  0.8316 -0.7852  1.8483
18153TIP3    H275951   2.823   5.154  14.877  2.8859  1.7378 -1.7802
18154TIP3   OH275952   3.670   6.747   2.496 -0.4146 -0.4070  0.0897
18154TIP3    H175953   3.629   6.661   2.485 -1.4537 -0.2337  2.1823
18154TIP3    H275954   3.608   6.808   2.456 -0.0097 -0.5503 -0.7733
18155TIP3   OH275955   3.401   2.635   0.684  0.6181 -0.2695  0.2354
18155TIP3    H175956   3.480   2.585   0.705  0.8012  0.1634  0.5767
18155TIP3    H275957   3.384   2.687   0.762  1.4057  1.5010 -0.6987
18156TIP3   OH275958   0.051   5.032  15.985 -0.5506  0.1608 -0.0216
18156TIP3    H175959   0.129   5.028  15.928 -1.8563  0.9636 -1.9681
18156TIP3    H275960   0.082   5.073  16.065  1.1026  0.1913 -0.6339
18157TIP3   OH275961   1.534   6.734  11.353  0.2259 -0.1930 -0.1385
18157TIP3    H175962   1.536   6.775  11.267  1.3432 -0.2535 -0.1524
18157TIP3    H275963   1.516   6.642  11.336  2.7637 -0.6864 -0.5365
18158TIP3   OH275964   6.773   2.411  13.078  0.0449  0.0390  0.1542
18158TIP3    H175965   6.767   2.317  13.093 -1.5510  0.3914  2.2276
18158TIP3    H275966   6.696   2.447  13.122 -0.0445  2.2227 -1.6304
18159TIP3   OH275967   6.488   4.974   1.728  0.4279 -0.2815  0.0624
18159TIP3    H175968   6.405   4.941   1.693  1.1298 -1.8526 -0.2265
18159TIP3    H275969   6.495   4.934   1.814 -0.1710  1.7026  1.0867
18160TIP3   OH275970   3.467   3.740   4.316 -1.0480 -0.2959 -0.6401
18160TIP3    H175971   3.428   3.827   4.305 -0.3990 -0.0727 -1.1996
18160TIP3    H275972   3.451   3.719   4.408  0.5578  1.2928  0.0648
18161TIP3   OH275973   3.749   2.282   4.201  0.3930 -0.1043  0.0729
18161TIP3    H175974   3.677   2.221   4.184  0.3773  0.0840 -0.5508
18161TIP3    H275975   3.752   2.338   4.124  0.8815  0.2201  0.3204
18162TIP3   OH275976   1.411   1.962   3.849 -0.6126 -0.4482  0.0312
18162TIP3    H175977   1.384   1.871   3.853  0.9334 -0.9178  0.5332
18162TIP3    H275978   1.499   1.963   3.887 -0.7300  1.3070  0.3735
18163TIP3   OH275979   3.026   4.166   1.919 -0.0020  0.7279 -0.3049
18163TIP3    H175980   3.043   4.248   1.873  0.2991  1.1180  0.4793
18163TIP3    H275981   3.058   4.098   1.860 -0.4142  1.1545 -1.0440
18164TIP3   OH275982   4.415   2.089   3.354  0.2626  0.1691  0.2647
18164TIP3    H175983   4.407   2.077   3.448  0.2064  0.4690  0.3002
18164TIP3    H275984   4.459   2.010   3.323  1.5385  0.6789  0.7197
18165TIP3   OH275985   1.932   1.184   3.526 -0.4953  0.6753 -0.4463
18165TIP3    H175986   1.853   1.213   3.480 -0.1946  2.3512  0.0258
18165TIP3    H275987   1.903   1.169   3.616 -0.8691 -1.6298 -0.8944
18166TIP3   OH275988   4.729   2.546   0.313  0.0782 -0.0420  0.0017
18166TIP3    H175989   4.696   2.527   0.401  1.4567 -0.1470  0.5205
18166TIP3    H275990   4.745   2.460   0.274  0.9915  0.0015  0.2602
18167TIP3   OH275991   2.421   2.307   0.232 -0.1133 -0.2622 -0.1788
18167TIP3    H175992   2.443   2.325   0.141 -1.0907  0.7262 -0.2357
18167TIP3    H275993   2.326   2.312   0.236 -0.1673 -1.4635  0.6655
18168TIP3   OH275994   0.805   0.418   1.217  0.2217 -0.4660  0.2432
18168TIP3    H175995   0.842   0.503   1.243  0.5268  0.0579 -1.7937
18168TIP3    H275996   0.881   0.361   1.211  0.0248 -0.9099  1.5235
18169TIP3   OH275997   3.279   0.932  16.223  0.0381 -0.0567  0.1181
18169TIP3    H175998   3.315   1.016  16.250 -1.5858  0.9278 -0.5990
18169TIP3    H275999   3.264   0.885  16.305  2.7760 -0.5222  0.4482
18170TIP3   OH276000   4.554   4.731   3.863 -0.6434 -0.3169 -0.0329
18170TIP3    H176001   4.569   4.804   3.803  1.2163  1.2510  2.1287
18170TIP3    H276002   4.640   4.693   3.877 -1.1796 -1.2722  0.8489
18171TIP3   OH276003   1.451   4.669   4.908  0.0321 -0.0450  0.2367
18171TIP3    H176004   1.539   4.658   4.942  0.1091  0.0034  0.0543
18171TIP3    H276005   1.407   4.725   4.973  0.4306  0.7564 -0.1661
18172TIP3   OH276006   0.077   1.265  12.339  0.0198  0.2253  0.1295
18172TIP3    H176007   0.012   1.297  12.277 -0.7919  0.6507  1.1702
18172TIP3    H276008   0.077   1.170  12.327 -1.8103  0.0571  1.0315
18173TIP3   OH276009   3.480   4.539   2.396 -0.1502 -0.4245 -0.3297
18173TIP3    H176010   3.448   4.627   2.375  1.2227 -0.1802 -1.5756
18173TIP3    H276011   3.431   4.513   2.474  0.9632  2.3541  1.4344
18174TIP3   OH276012   4.282   1.736  11.226  0.0716 -0.4242 -0.0803
18174TIP3    H176013   4.325   1.805  11.176 -1.6554  0.2767 -0.6772
18174TIP3    H276014   4.290   1.765  11.317  0.1965  0.0678 -0.2438
18175TIP3   OH276015   5.030   3.632   2.253  0.8275 -0.0182 -0.2817
18175TIP3    H176016   5.056   3.666   2.339  0.8882 -1.1957  0.1862
18175TIP3    H276017   5.055   3.701   2.191  1.2451  0.6328  0.5904
18176TIP3   OH276018   3.701   4.393   6.255 -0.1696  0.2454 -0.5242
18176TIP3    H176019   3.663   4.368   6.339 -0.2161 -0.2211 -0.6850
18176TIP3    H276020   3.646   4.465   6.225 -0.9584 -0.4447 -0.7725
18177TIP3   OH276021   3.884   2.479  15.128 -0.4674  0.2936 -0.5738
18177TIP3    H176022   3.957   2.538  15.149 -0.9433  0.3567  1.0396
18177TIP3    H276023   3.808   2.519  15.170 -1.5683  0.4300 -2.5488
18178TIP3   OH276024   5.547   0.151   1.685 -0.3493 -0.0878 -0.1919
18178TIP3    H176025   5.503   0.122   1.606  1.3933 -0.9692 -0.8830
18178TIP3    H276026   5.624   0.199   1.654 -0.2207  0.4904  0.9651
18179TIP3   OH276027   5.629   3.660  11.619  0.4887  0.0944 -0.3418
18179TIP3    H176028   5.576   3.597  11.569  1.0080  0.0861 -0.8907
18179TIP3    H276029   5.566   3.728  11.645  0.1716  0.0038 -0.8480
18180TIP3   OH276030   0.252   3.424  11.724  0.3081  0.0565 -0.6989
18180TIP3    H176031   0.251   3.471  11.807  0.7067 -0.7238 -0.2361
18180TIP3    H276032   0.168   3.444  11.684 -0.3425 -0.4156  0.3857
18181TIP3   OH276033   0.351   3.858  15.239  0.1324  0.1809  0.0519
18181TIP3    H176034   0.372   3.887  15.150  1.5893 -0.3937  0.1778
18181TIP3    H276035   0.257   3.876  15.249 -0.3303 -0.8410 -2.0190
18182TIP3   OH276036   3.744   4.543  16.236  0.0087  0.9189 -0.2043
18182TIP3    H176037   3.788   4.616  16.278 -0.0259  1.1209 -0.5149
18182TIP3    H276038   3.689   4.505  16.304  0.4463  0.8388  0.1100
18183TIP3   OH276039   1.470   4.730  12.882 -0.0484 -0.3146 -0.2920
18183TIP3    H176040   1.397   4.675  12.853 -1.5371  1.8724 -0.9968
18183TIP3    H276041   1.465   4.729  12.977 -1.5732  0.3962 -0.3215
18184TIP3   OH276042   2.966   2.479  15.925 -0.6094  0.6143 -0.0889
18184TIP3    H176043   2.994   2.469  16.016 -0.1276 -2.1407 -0.4369
18184TIP3    H276044   3.033   2.533  15.885 -1.3652  2.7682  1.3553
18185TIP3   OH276045   1.808   2.914   6.512 -0.6035  0.1328  0.0394
18185TIP3    H176046   1.885   2.905   6.568 -0.8459 -0.3017  0.3146
18185TIP3    H276047   1.839   2.891   6.425 -0.7897 -1.7839  0.4241
18186TIP3   OH276048   2.920   4.484   0.139  0.0733  0.7921  0.5356
18186TIP3    H176049   2.853   4.509   0.075  0.2388  0.3044  0.1663
18186TIP3    H276050   2.878   4.415   0.191  0.4920  0.0418 -0.0991
18187TIP3   OH276051   2.944   1.030   3.680 -0.5692  0.3069  0.1838
18187TIP3    H176052   2.882   1.103   3.682 -0.1163  0.7888  3.9186
18187TIP3    H276053   2.891   0.952   3.700 -0.4326  0.2842  0.4706
18188TIP3   OH276054   3.858   1.073   0.547  0.5701 -0.3669 -0.1730
18188TIP3    H176055   3.811   1.147   0.586  2.9010  0.3024  1.5420
18188TIP3    H276056   3.855   1.004   0.613  1.4504 -0.5271 -0.2903
18189TIP3   OH276057   6.786   3.383   6.450 -0.9917 -0.1717  0.4609
18189TIP3    H176058   6.820   3.298   6.481 -2.7082 -0.2622  2.3187
18189TIP3    H276059   6.817   3.446   6.516  1.2159  0.9324 -1.4884
18190TIP3   OH276060   0.692   1.504   6.165  0.3659  0.2682 -0.1319
18190TIP3    H176061   0.635   1.525   6.239  2.6680  1.4167  1.4115
18190TIP3    H276062   0.691   1.408   6.160 -0.8347  0.2281  0.5137
18191TIP3   OH276063   0.056   4.303   4.113 -0.2239  0.3555 -0.3163
18191TIP3    H176064   0.121   4.337   4.174  0.3279 -0.2240 -0.5641
18191TIP3    H276065   0.059   4.208   4.126 -1.0866  0.3282 -0.2744
18192TIP3   OH276066   4.771   5.464  12.454  0.2113  0.2631  0.3218
18192TIP3    H176067   4.788   5.397  12.521 -0.2637  0.2743  0.4565
18192TIP3    H276068   4.854   5.512  12.447  0.5357 -0.2970  0.2704
18193TIP3   OH276069   5.891   0.517   1.646 -0.3156  0.0804 -0.8465
18193TIP3    H176070   5.878   0.611   1.644  0.6649  0.2526  0.1090
18193TIP3    H276071   5.983   0.504   1.621 -0.1306 -0.5329  0.0992
18194TIP3   OH276072   3.901   3.125   1.769 -0.0572 -0.0343 -0.1491
18194TIP3    H176073   3.958   3.119   1.692 -0.7707 -0.1634 -0.6733
18194TIP3    H276074   3.959   3.153   1.840  0.3784  1.3017 -1.0016
18195TIP3   OH276075   5.488   1.449  13.607 -0.1473  0.1656 -0.1130
18195TIP3    H176076   5.511   1.448  13.514 -0.5347 -0.5892 -0.2145
18195TIP3    H276077   5.393   1.461  13.608  0.0715  2.1517  0.2598
18196TIP3   OH276078   4.358   1.239  17.153  0.1660 -0.2871  0.0247
18196TIP3    H176079   4.263   1.241  17.147  0.1310 -1.2837  0.0435
18196TIP3    H276080   4.376   1.214  17.244  0.4537  0.1790  0.1004
18197TIP3   OH276081   4.060   1.806   3.217 -0.0153  0.4971  0.1036
18197TIP3    H176082   4.148   1.779   3.243  0.6052  0.2426 -2.0223
18197TIP3    H276083   4.007   1.794   3.296  1.8138  0.5678  1.4171
18198TIP3   OH276084   4.383   0.054  15.789 -0.0399 -0.0457 -0.2568
18198TIP3    H176085   4.440   0.119  15.830 -0.9538  0.3710  0.3597
18198TIP3    H276086   4.392   0.071  15.695  1.4637 -0.5107 -0.2366
18199TIP3   OH276087   0.838   5.126   1.687  0.1666  0.5769 -0.1488
18199TIP3    H176088   0.743   5.117   1.685  0.0627  0.3547  2.5454
18199TIP3    H276089   0.856   5.203   1.633 -1.2977 -0.4816 -2.3173
18200TIP3   OH276090   5.357   0.854  13.711  0.4056 -1.0715  0.5087
18200TIP3    H176091   5.403   0.918  13.765 -0.9579  0.8967 -0.5420
18200TIP3    H276092   5.421   0.828  13.644  0.7883 -0.3273  0.5766
18201TIP3   OH276093   4.023   6.806  15.184  0.6776 -0.5184 -0.0835
18201TIP3    H176094   4.058   6.729  15.139  1.3611 -0.9187  1.0666
18201TIP3    H276095   3.969   6.769  15.254  1.1704  0.0326  0.6012
18202TIP3   OH276096   0.608   1.724   3.648 -0.8680 -0.3327  0.2542
18202TIP3    H176097   0.587   1.721   3.554  0.8375 -0.6184 -0.1563
18202TIP3    H276098   0.675   1.791   3.655 -0.3671 -0.9146  1.1393
18203TIP3   OH276099   6.641   6.251  12.737 -0.1940  0.0455  0.0437
18203TIP3    H176100   6.592   6.202  12.670 -2.3558 -0.6235  1.9773
18203TIP3    H276101   6.573   6.287  12.794  1.4804 -2.0865  3.7107
18204TIP3   OH276102   5.540   5.017  15.022  0.2983 -0.0601 -0.4526
18204TIP3    H176103   5.475   5.082  14.998  0.4637 -0.1954 -1.3059
18204TIP3    H276104   5.624   5.060  15.009  0.3997 -0.1687 -0.1864
18205TIP3   OH276105   6.596   2.745  11.184 -0.0103  0.0978 -0.3590
18205TIP3    H176106   6.687   2.745  11.155  0.3455 -3.5065  0.2348
18205TIP3    H276107   6.551   2.692  11.118 -0.6654 -1.9655  1.6061
18206TIP3   OH276108   3.623   2.010   4.136 -0.9772  0.4022 -0.2340
18206TIP3    H176109   3.533   2.041   4.119 -1.4402 -0.0756  1.2429
18206TIP3    H276110   3.618   1.968   4.221  0.9342  1.4682  0.4566
18207TIP3   OH276111   0.349   5.566   4.670 -0.2627  0.6726  0.0924
18207TIP3    H176112   0.369   5.541   4.579 -0.8001 -1.2111  0.4543
18207TIP3    H276113   0.255   5.583   4.670 -0.1851  1.1041  0.2097
18208TIP3   OH276114   2.685   1.319  14.809 -0.5449  0.4288 -0.7611
18208TIP3    H176115   2.684   1.225  14.788  1.3122  0.4312 -1.0728
18208TIP3    H276116   2.778   1.343  14.805 -0.8690  2.0462  0.4197
18209TIP3   OH276117   3.550   3.663  16.543  0.1827 -0.1765 -0.5870
18209TIP3    H176118   3.616   3.594  16.551 -0.3022 -0.6706 -0.7763
18209TIP3    H276119   3.593   3.742  16.574  0.2813 -0.8471  1.0336
18210TIP3   OH276120   2.359   5.156  13.979 -0.0630  0.1714  0.9092
18210TIP3    H176121   2.343   5.146  14.073  1.2905 -0.7839  1.0624
18210TIP3    H276122   2.454   5.161  13.970 -0.1931  0.8065 -0.3663
18211TIP3   OH276123   4.810   4.434   1.149  0.4425  0.0288 -0.0410
18211TIP3    H176124   4.761   4.384   1.215  0.1039 -0.4773 -0.6708
18211TIP3    H276125   4.755   4.430   1.071 -0.3143  2.5906  0.2505
18212TIP3   OH276126   0.539   0.098  15.394 -0.3126  0.0902 -0.0047
18212TIP3    H176127   0.530   0.181  15.441 -0.5229  1.5301 -2.3948
18212TIP3    H276128   0.482   0.037  15.441  0.0902  1.1815  2.0007
18213TIP3   OH276129   5.319   5.786  10.668 -0.4978  0.3104 -0.2400
18213TIP3    H176130   5.318   5.715  10.604 -0.4723 -0.3460  0.4621
18213TIP3    H276131   5.259   5.851  10.633 -0.4584 -0.0218 -0.9426
18214TIP3   OH276132   0.857   1.590   5.271 -0.7658 -0.8228  0.8675
18214TIP3    H176133   0.798   1.619   5.202 -0.8594 -1.4156  0.6905
18214TIP3    H276134   0.873   1.497   5.251  0.3684 -0.6305  0.8031
18215TIP3   OH276135   2.026   0.092  12.423 -0.1554 -0.0897 -0.6410
18215TIP3    H176136   1.976   0.173  12.413 -1.2451 -0.7165 -0.4546
18215TIP3    H276137   2.038   0.082  12.518  2.0394  1.0396 -0.7392
18216TIP3   OH276138   4.822   0.477  13.999 -0.3007 -0.0272  0.1895
18216TIP3    H176139   4.812   0.443  13.910 -1.9645  0.2979  0.2141
18216TIP3    H276140   4.865   0.406  14.047 -1.7480 -1.2814 -0.2755
18217TIP3   OH276141   1.822   4.349  13.104  0.4909 -0.0465  0.2449
18217TIP3    H176142   1.776   4.306  13.032  0.9329  1.1090 -0.7589
18217TIP3    H276143   1.819   4.442  13.082  1.2404  0.2612  1.3756
18218TIP3   OH276144   4.089   4.136  11.595  0.3270  0.1355  0.6705
18218TIP3    H176145   4.002   4.101  11.575 -0.7289  2.1283  1.4875
18218TIP3    H276146   4.149   4.081  11.544 -1.2328 -2.2710  1.2747
18219TIP3   OH276147   2.653   2.295   2.925 -0.0817 -0.7600  0.5490
18219TIP3    H176148   2.564   2.307   2.957  0.2726 -0.1064  1.3389
18219TIP3    H276149   2.708   2.327   2.997  0.7545  0.7237 -0.6969
18220TIP3   OH276150   4.961   1.166  16.014 -0.7460 -0.3805  0.0659
18220TIP3    H176151   4.928   1.142  15.927 -0.1830  1.7417 -0.8211
18220TIP3    H276152   5.053   1.141  16.013 -0.7959 -0.5656  0.1360
18221TIP3   OH276153   2.259   1.758  14.898 -0.1763  0.3829 -0.3515
18221TIP3    H176154   2.247   1.790  14.987  1.2335  2.7776 -0.9349
18221TIP3    H276155   2.218   1.825  14.843 -0.9000 -0.9817 -1.5361
18222TIP3   OH276156   0.855   0.110  17.258  0.4041  0.3180  0.5616
18222TIP3    H176157   0.911   0.111  17.335  0.7704 -0.1237  0.3034
18222TIP3    H276158   0.810   0.195  17.260 -0.1914 -0.0116  1.6907
18223TIP3   OH276159   1.646   1.085  11.692  0.4685  0.3807  0.3681
18223TIP3    H176160   1.611   1.093  11.603 -1.5836 -1.1553  0.9654
18223TIP3    H276161   1.694   1.002  11.691 -0.0722  0.0618  0.8508
18224TIP3   OH276162   4.742   5.305  13.450 -0.4465  0.3348 -0.5750
18224TIP3    H176163   4.721   5.374  13.513  0.3208  0.2935 -0.2605
18224TIP3    H276164   4.835   5.287  13.464 -0.6073 -0.6856 -0.7343
18225TIP3   OH276165   4.667   4.002   1.067  0.2523 -0.5877 -0.5285
18225TIP3    H176166   4.615   3.958   1.134  0.4034  0.0677  0.0370
18225TIP3    H276167   4.739   4.042   1.116 -0.7059  1.5777 -0.7801
18226TIP3   OH276168   0.476   1.206  13.796  0.3997  0.1076  0.2466
18226TIP3    H176169   0.483   1.170  13.708 -2.0820  1.7571 -0.7204
18226TIP3    H276170   0.513   1.294  13.789  1.1299 -0.1039  1.1595
18227TIP3   OH276171   2.235   4.597   0.527 -0.2491  0.4679 -0.7107
18227TIP3    H176172   2.308   4.563   0.476 -0.6437 -0.8678 -0.4180
18227TIP3    H276173   2.274   4.662   0.585  0.8346 -0.6861 -0.1102
18228TIP3   OH276174   6.085   2.911   4.808 -0.1669  0.0659 -0.1569
18228TIP3    H176175   6.158   2.973   4.801  0.9530 -1.1859  0.1549
18228TIP3    H276176   6.126   2.825   4.809 -1.3177 -0.6159  3.5508
18229TIP3   OH276177   2.791   5.996   0.766  0.6082  0.2925 -0.3618
18229TIP3    H176178   2.736   6.072   0.744  1.0430  0.7387  0.0761
18229TIP3    H276179   2.737   5.944   0.825 -0.4887 -0.8047 -2.2210
18230TIP3   OH276180   3.680   4.006  11.734  0.1559 -0.1782 -0.0789
18230TIP3    H176181   3.688   4.078  11.797  2.2192 -0.1250 -0.3370
18230TIP3    H276182   3.605   3.956  11.765 -0.0557  0.9242  1.3071
18231TIP3   OH276183   1.084   5.136   3.857  0.4161 -0.3687  0.1917
18231TIP3    H176184   1.087   5.210   3.918  0.4742 -0.1335 -0.0911
18231TIP3    H276185   1.075   5.059   3.912 -1.9483 -0.0139  0.4031
18232TIP3   OH276186   2.316   1.069  17.004 -0.1803  0.1425 -0.1503
18232TIP3    H176187   2.382   1.010  17.041 -0.4089  0.4794  0.7974
18232TIP3    H276188   2.241   1.061  17.062 -1.1903 -0.6352 -1.5143
18233TIP3   OH276189   4.053   0.699   0.889 -0.1486  0.2906  0.5487
18233TIP3    H176190   3.991   0.741   0.948 -0.1719  1.1845 -0.0956
18233TIP3    H276191   4.045   0.605   0.909 -0.4794  0.5360  1.6301
18234TIP3   OH276192   6.114   2.801  11.403  0.3739 -0.2268 -0.6690
18234TIP3    H176193   6.192   2.751  11.380  0.4519 -1.0426  1.1591
18234TIP3    H276194   6.149   2.882  11.441  0.3200 -0.1779 -0.7253
18235TIP3   OH276195   3.996   1.609  10.549  0.0930  0.2456  0.0358
18235TIP3    H176196   4.021   1.602  10.641  1.1013  0.8857 -0.1839
18235TIP3    H276197   3.913   1.657  10.550 -0.2542 -0.3440  0.6402
18236TIP3   OH276198   3.415   4.448  14.477  0.2075 -0.4913  0.2311
18236TIP3    H176199   3.367   4.477  14.555  0.5707  1.9584 -0.3749
18236TIP3    H276200   3.350   4.450  14.407 -0.1612 -2.8541  0.4392
18237TIP3   OH276201   4.583   0.721   5.057 -0.4142  0.1113 -0.5946
18237TIP3    H176202   4.584   0.816   5.068 -1.6523 -0.0177  1.1098
18237TIP3    H276203   4.574   0.708   4.963 -0.3327  1.6842 -0.8484
18238TIP3   OH276204   2.605   6.310  12.609  0.2248  0.3031  0.2438
18238TIP3    H176205   2.525   6.306  12.661 -0.2779 -0.1563 -0.5506
18238TIP3    H276206   2.575   6.326  12.520  1.0521  0.6909  0.0219
18239TIP3   OH276207   5.620   5.734  15.385 -0.1552  0.1105 -0.0647
18239TIP3    H176208   5.635   5.802  15.319  0.2951  0.8569  0.7726
18239TIP3    H276209   5.584   5.782  15.460  1.1197 -0.4084  0.9139
18240TIP3   OH276210   5.932   5.944  15.509 -0.3615  0.8346  0.4285
18240TIP3    H176211   6.002   6.002  15.479 -0.9550  1.1403 -0.3832
18240TIP3    H276212   5.927   5.876  15.442 -0.7950  0.7715  0.5240
18241TIP3   OH276213   4.858   2.310  15.466  0.1976  0.2380 -0.2965
18241TIP3    H176214   4.790   2.244  15.476  0.2583  0.4812  2.1304
18241TIP3    H276215   4.934   2.274  15.511  0.6170  1.4278 -0.0183
18242TIP3   OH276216   0.414   2.297  15.473  0.3771  0.3873  0.2622
18242TIP3    H176217   0.332   2.343  15.458  0.3727  0.2915 -0.0045
18242TIP3    H276218   0.479   2.367  15.483  0.3794  0.4540 -0.1925
18243TIP3   OH276219   5.981   0.747  16.496 -0.2269 -0.1173 -0.2777
18243TIP3    H176220   5.890   0.728  16.472  0.6124 -0.6856 -3.3336
18243TIP3    H276221   5.974   0.821  16.556 -2.7326 -0.6855  0.2781
18244TIP3   OH276222   1.050   1.127  14.359  0.1106 -0.4576  0.0377
18244TIP3    H176223   1.022   1.199  14.303  0.0205  0.9347  1.7706
18244TIP3    H276224   1.017   1.149  14.446  2.9467 -0.8241  1.3423
18245TIP3   OH276225   5.380   1.081   6.682  0.4783 -0.2873 -0.1587
18245TIP3    H176226   5.420   1.024   6.747  0.7231  1.1897  1.0527
18245TIP3    H276227   5.453   1.128   6.643  0.1883  0.1460 -0.1917
18246TIP3   OH276228   2.253   2.747   4.297  0.3074 -0.1292 -0.6162
18246TIP3    H176229   2.263   2.805   4.222  1.5610 -1.2389 -1.3632
18246TIP3    H276230   2.225   2.663   4.260 -0.2509 -0.3629  0.2939
18247TIP3   OH276231   2.565   4.355  16.930 -0.0464  0.4557  0.1415
18247TIP3    H176232   2.638   4.356  16.992 -1.0560  0.1442  1.3979
18247TIP3    H276233   2.594   4.408  16.857  1.7386 -0.3029  0.2468
18248TIP3   OH276234   0.142   5.976   4.608  0.1591  0.0165  0.4881
18248TIP3    H176235   0.132   5.910   4.538  2.0852 -0.3909  0.5566
18248TIP3    H276236   0.236   5.982   4.622  0.1230  3.3306  0.0030
18249TIP3   OH276237   5.174   6.096  13.112  0.6318  0.7885  0.0543
18249TIP3    H176238   5.118   6.162  13.071 -0.1561 -1.0992 -2.1516
18249TIP3    H276239   5.113   6.037  13.156  0.7805 -1.0190 -1.9654
18250TIP3   OH276240   6.018   3.800  15.697 -0.2749 -0.1218 -0.0122
18250TIP3    H176241   5.998   3.825  15.606  0.7866 -1.0356 -0.5158
18250TIP3    H276242   5.990   3.709  15.704  0.6190 -0.3877  0.2506
18251TIP3   OH276243   0.889   6.490  14.285 -0.3709 -0.2332 -0.3806
18251TIP3    H176244   0.977   6.524  14.301 -0.6784  0.7621 -0.7450
18251TIP3    H276245   0.897   6.396  14.300  0.7009 -0.1267 -0.1906
18252TIP3   OH276246   4.985   0.672   5.838  0.5296  0.6989 -0.2839
18252TIP3    H176247   5.038   0.605   5.794  0.0907  0.3234 -0.2551
18252TIP3    H276248   4.996   0.655   5.931  1.4178  1.4625 -0.2375
18253TIP3   OH276249   0.307   5.735   2.134  0.0726 -0.3037  0.1813
18253TIP3    H176250   0.249   5.795   2.088 -0.4777 -0.3590  0.7901
18253TIP3    H276251   0.345   5.787   2.204 -0.1317 -0.5759  0.4930
18254TIP3   OH276252   5.621   6.438  14.912  0.2348 -0.4555  0.3727
18254TIP3    H176253   5.687   6.502  14.886  2.5749 -2.9112 -0.1844
18254TIP3    H276254   5.542   6.466  14.866  1.8033  0.6808 -1.8541
18255TIP3   OH276255   1.345   3.789  14.144 -0.2176  0.0208 -0.4290
18255TIP3    H176256   1.420   3.846  14.161  0.2247 -0.3862 -0.9698
18255TIP3    H276257   1.375   3.730  14.074 -0.8922 -0.4320 -0.3469
18256TIP3   OH276258   5.201   2.403  14.855 -0.1474 -0.0450 -0.4894
18256TIP3    H176259   5.131   2.468  14.855  0.3121  0.4718  0.3327
18256TIP3    H276260   5.258   2.428  14.782 -1.4361 -1.1797 -1.9285
18257TIP3   OH276261   1.585   3.080  12.733 -0.2433 -0.0336  0.0937
18257TIP3    H176262   1.530   3.023  12.787 -0.7644  3.0578  3.2041
18257TIP3    H276263   1.674   3.050  12.749 -0.3987  0.6030  2.7042
18258TIP3   OH276264   5.250   5.746   3.061 -0.3122  0.6872 -1.0471
18258TIP3    H176265   5.164   5.765   3.024 -0.8691  0.5206  0.1132
18258TIP3    H276266   5.292   5.689   2.996  0.1663  3.1919 -3.0843
18259TIP3   OH276267   5.849   0.282   5.200 -0.0701 -0.2798 -0.3526
18259TIP3    H176268   5.773   0.300   5.145  0.4756 -1.7783 -1.6818
18259TIP3    H276269   5.821   0.210   5.256  0.1364 -0.3557 -0.3453
18260TIP3   OH276270   4.590   1.908   6.475 -0.0928  0.4457  0.4343
18260TIP3    H176271   4.656   1.849   6.512  0.3245  1.2475  1.0019
18260TIP3    H276272   4.507   1.880   6.513  0.1237  0.3249  0.8214
18261TIP3   OH276273   0.877   4.953   1.403  0.4182 -0.1838 -0.5040
18261TIP3    H176274   0.787   4.974   1.379  0.5692  1.1936  0.0054
18261TIP3    H276275   0.880   4.967   1.498  1.7849  2.4411 -0.8467
18262TIP3   OH276276   4.477   1.671   6.231  0.5099  0.2548 -0.3685
18262TIP3    H176277   4.457   1.719   6.312  0.0491 -1.7818  0.8116
18262TIP3    H276278   4.527   1.595   6.260 -0.8425 -1.2756 -1.7895
18263TIP3   OH276279   4.116   6.183  11.386 -0.7507  0.1678 -0.1007
18263TIP3    H176280   4.106   6.229  11.303 -0.7074 -1.1150 -0.8421
18263TIP3    H276281   4.210   6.165  11.393 -0.6803  0.7204  0.4869
18264TIP3   OH276282   5.681   0.127   3.296 -0.1134 -0.2759 -0.4903
18264TIP3    H176283   5.617   0.071   3.340  0.9969  0.6577  2.5871
18264TIP3    H276284   5.629   0.198   3.259 -1.0478 -0.5082  0.3216
18265TIP3   OH276285   1.899   4.090   2.210 -0.5977  0.2222  0.2172
18265TIP3    H176286   1.865   4.102   2.299 -0.1660 -0.5923  0.5024
18265TIP3    H276287   1.852   4.014   2.176 -1.2957  0.9658 -0.5350
18266TIP3   OH276288   6.580   0.725   2.531 -0.1002  0.1254  0.1169
18266TIP3    H176289   6.580   0.695   2.440  2.7426  0.8417 -0.2046
18266TIP3    H276290   6.619   0.812   2.527 -2.1818  1.2305  1.7985
18267TIP3   OH276291   4.614   5.360  13.207 -0.2890  0.4451 -0.3076
18267TIP3    H176292   4.523   5.359  13.234 -0.0246 -1.1920  0.6489
18267TIP3    H276293   4.661   5.315  13.277  1.1680  0.6680 -1.0895
18268TIP3   OH276294   6.307   2.069   4.094 -0.0466 -0.7294 -0.1294
18268TIP3    H176295   6.389   2.021   4.090  0.6678  0.4717 -0.3656
18268TIP3    H276296   6.332   2.161   4.089 -1.3037 -0.2697  1.1680
18269TIP3   OH276297   2.256   1.487  16.455 -0.1504  0.0866 -0.2865
18269TIP3    H176298   2.312   1.410  16.446 -0.0035  0.1258  0.2685
18269TIP3    H276299   2.297   1.553  16.399 -0.7914 -0.5046 -1.5038
18270TIP3   OH276300   6.279   3.377   2.185  0.0831  0.4711  0.0292
18270TIP3    H176301   6.256   3.285   2.173 -1.4106  1.0106 -1.7773
18270TIP3    H276302   6.349   3.393   2.122 -0.8133  0.9349 -0.8780
18271TIP3   OH276303   1.330   2.682  15.973 -0.6758  0.0149 -0.4695
18271TIP3    H176304   1.279   2.728  15.906  0.4237  0.7395 -0.8356
18271TIP3    H276305   1.299   2.719  16.056 -0.0778  1.1620 -0.7394
18272TIP3   OH276306   2.720   2.878   0.137 -0.5719 -0.4871 -0.1157
18272TIP3    H176307   2.778   2.906   0.208 -1.3507 -0.5500  0.5695
18272TIP3    H276308   2.771   2.892   0.057  0.4487 -0.7370  0.4745
18273TIP3   OH276309   0.288   5.024   0.119 -0.5331  0.3392  0.0397
18273TIP3    H176310   0.282   5.016   0.024  2.0509 -0.2899 -0.1618
18273TIP3    H276311   0.274   4.936   0.152  1.4223 -0.0582 -0.0509
18274TIP3   OH276312   0.194   2.430  16.700  0.0059 -0.1121 -0.9990
18274TIP3    H176313   0.211   2.392  16.614 -0.5315 -0.4552 -0.9587
18274TIP3    H276314   0.271   2.483  16.719  0.1058  0.0038 -1.7142
18275TIP3   OH276315   3.413   2.273  14.774 -0.5388  0.6650  0.0518
18275TIP3    H176316   3.317   2.278  14.770 -0.5656  0.2165  0.1393
18275TIP3    H276317   3.441   2.282  14.683 -0.8414 -2.7061 -0.5061
18276TIP3   OH276318   3.166   6.103  12.017 -0.1274  0.6868  0.3493
18276TIP3    H176319   3.183   6.017  12.057  2.4418  0.0414 -1.8512
18276TIP3    H276320   3.072   6.103  12.000 -0.5742 -0.7299  2.4377
18277TIP3   OH276321   6.169   1.718  11.934 -0.2014  0.1358 -0.1239
18277TIP3    H176322   6.133   1.804  11.912 -1.6765 -0.5031 -0.3543
18277TIP3    H276323   6.093   1.660  11.931  0.5884 -0.9940  1.0348
18278TIP3   OH276324   5.211   2.047   2.973  0.1549 -0.2248  0.3990
18278TIP3    H176325   5.167   2.132   2.970 -1.9828 -1.2189  1.3721
18278TIP3    H276326   5.153   1.992   3.026  1.5811 -2.2413 -0.0232
18279TIP3   OH276327   4.747   1.318  11.713 -0.1638 -0.2159 -0.0566
18279TIP3    H176328   4.718   1.338  11.624  1.6051 -0.6742 -0.7771
18279TIP3    H276329   4.690   1.245  11.741 -1.2543  0.4434 -0.4790
18280TIP3   OH276330   4.815   1.535   4.099 -0.1312 -0.3426 -0.2644
18280TIP3    H176331   4.777   1.485   4.027 -1.7989 -1.7956  1.4759
18280TIP3    H276332   4.819   1.472   4.172  0.2880  1.3589  1.2661
18281TIP3   OH276333   3.750   0.870  11.266 -0.1221  0.2810 -0.2294
18281TIP3    H176334   3.814   0.807  11.234  0.4112  1.4211 -1.5025
18281TIP3    H276335   3.715   0.830  11.346 -0.6353 -2.1491 -1.5604
18282TIP3   OH276336   4.969   1.100  13.420 -0.8231  0.0278  0.8294
18282TIP3    H176337   4.886   1.144  13.438 -0.9493 -0.7957  2.3587
18282TIP3    H276338   5.034   1.171  13.421 -1.4669  0.6590 -0.2721
18283TIP3   OH276339   0.971   3.998   4.780  0.6376  0.5600 -0.0529
18283TIP3    H176340   1.030   3.935   4.739 -1.9053 -1.9829 -0.1045
18283TIP3    H276341   0.917   4.031   4.708  0.1426  0.7197  0.3847
18284TIP3   OH276342   2.120   6.610  16.359  0.0687  0.4988  0.3358
18284TIP3    H176343   2.127   6.518  16.334  1.1285  0.3063  1.2211
18284TIP3    H276344   2.029   6.621  16.387 -0.4849  0.1356 -1.2378
18285TIP3   OH276345   6.368   1.355   3.136  0.0591  0.1533  0.5544
18285TIP3    H176346   6.433   1.426   3.135  0.3322 -0.0914  0.6374
18285TIP3    H276347   6.397   1.296   3.067 -0.0366  0.0100  0.6365
18286TIP3   OH276348   1.660   6.300   2.138  0.2791  0.2897 -0.3296
18286TIP3    H176349   1.623   6.227   2.188 -0.9657  0.9235 -0.3000
18286TIP3    H276350   1.752   6.302   2.165 -0.0422 -0.2519  0.8901
18287TIP3   OH276351   6.603   3.359  12.991  0.0079 -0.4420  0.2743
18287TIP3    H176352   6.682   3.347  13.044  0.1514 -3.6089 -0.4177
18287TIP3    H276353   6.630   3.337  12.902 -0.9852  1.6149 -0.5935
18288TIP3   OH276354   2.711   6.331   5.035 -0.5896  0.5203 -0.1431
18288TIP3    H176355   2.799   6.295   5.023 -0.4892  0.8607 -0.4399
18288TIP3    H276356   2.726   6.415   5.077 -0.8119  0.3108  0.3584
18289TIP3   OH276357   2.258   6.034  15.250  0.4769 -0.1316  0.2544
18289TIP3    H176358   2.257   5.939  15.248 -0.2648 -0.1157 -0.8770
18289TIP3    H276359   2.166   6.059  15.265  0.0903  0.4142 -2.5534
18290TIP3   OH276360   2.811   3.390  12.693 -0.2228  0.3801 -0.3696
18290TIP3    H176361   2.889   3.340  12.668  0.1624  0.0579  1.3858
18290TIP3    H276362   2.770   3.338  12.762 -2.0425  0.5346 -1.2775
18291TIP3   OH276363   6.435   4.265  12.365  0.5747  0.1815  0.1315
18291TIP3    H176364   6.364   4.316  12.404  0.7767  1.7671 -1.4366
18291TIP3    H276365   6.515   4.309  12.395  0.7485  0.9517 -1.3549
18292TIP3   OH276366   4.703   2.031  11.809  0.5500 -0.3866 -0.2278
18292TIP3    H176367   4.684   2.087  11.884  0.9479 -0.9813  0.3301
18292TIP3    H276368   4.627   2.040  11.752  0.4196  0.3745  0.0588
18293TIP3   OH276369   6.226   0.825  16.883 -0.1769  0.0245  0.3036
18293TIP3    H176370   6.253   0.734  16.894  0.6297  0.1408 -0.6550
18293TIP3    H276371   6.131   0.824  16.899 -0.6429 -1.4329 -2.0370
18294TIP3   OH276372   0.991   2.506  12.420  0.4196  0.5603 -0.1161
18294TIP3    H176373   0.921   2.503  12.355  0.6956  1.0098 -0.4407
18294TIP3    H276374   1.049   2.576  12.390  0.6564  0.6415  0.5060
18295TIP3   OH276375   4.845   0.344   1.990 -1.1158  0.3218 -0.2131
18295TIP3    H176376   4.831   0.274   2.054 -1.5827  0.2593 -0.3760
18295TIP3    H276377   4.791   0.319   1.916  2.4378 -1.7792 -2.3741
18296TIP3   OH276378   5.188   2.302   2.503  0.2171  0.6182  0.0151
18296TIP3    H176379   5.226   2.295   2.590  0.8958 -0.3570 -0.3351
18296TIP3    H276380   5.250   2.255   2.446 -1.9296 -1.8602 -0.4634
18297TIP3   OH276381   1.232   2.611  15.674  1.1389 -0.3348  0.7389
18297TIP3    H176382   1.293   2.555  15.625  1.2737 -0.3685  0.9449
18297TIP3    H276383   1.147   2.568  15.664  0.9496  0.2450 -0.4023
18298TIP3   OH276384   1.832   3.691   3.897 -0.1748 -0.3619 -0.5296
18298TIP3    H176385   1.814   3.658   3.985 -1.6824  0.1706 -0.6060
18298TIP3    H276386   1.883   3.622   3.855  1.2452 -0.2842  1.0006
18299TIP3   OH276387   4.481   4.943   3.513  0.0727 -0.6837  0.7296
18299TIP3    H176388   4.556   4.946   3.571  1.0549  1.8383 -0.5241
18299TIP3    H276389   4.506   4.882   3.443 -0.0074 -1.5750  1.4541
18300TIP3   OH276390   2.738   4.605   1.943 -0.2954  0.0036 -0.3190
18300TIP3    H176391   2.781   4.668   2.001 -0.5476  1.0621 -1.2347
18300TIP3    H276392   2.661   4.576   1.992  0.2431 -0.1949  0.4284
18301TIP3   OH276393   5.609   4.158  16.945 -0.1091  0.0790 -0.4502
18301TIP3    H176394   5.629   4.235  16.997 -0.5055  2.0011 -2.9549
18301TIP3    H276395   5.596   4.088  17.009  2.2945  1.5469  1.8283
18302TIP3   OH276396   1.432   3.376   2.234  0.6818  0.2270 -0.1421
18302TIP3    H176397   1.434   3.443   2.166 -0.6417  0.6614  0.2235
18302TIP3    H276398   1.487   3.305   2.200 -0.0172  0.4003 -1.7023
18303TIP3   OH276399   5.380   6.067  14.258  0.2837  0.0276  0.0088
18303TIP3    H176400   5.305   6.014  14.284  1.1098 -1.2301 -0.1163
18303TIP3    H276401   5.434   6.072  14.337  0.9022 -0.5313 -0.3713
18304TIP3   OH276402   4.227   1.486  11.735  0.4037 -0.9290 -0.2936
18304TIP3    H176403   4.284   1.461  11.808  1.7031  0.9639 -0.5854
18304TIP3    H276404   4.269   1.450  11.658  1.5058  0.7740 -0.5518
18305TIP3   OH276405   6.421   6.095  14.442 -0.1624 -0.4019 -0.2036
18305TIP3    H176406   6.341   6.115  14.394 -0.2527  0.6648  0.3689
18305TIP3    H276407   6.481   6.061  14.375  0.3711  2.7941 -1.5015
18306TIP3   OH276408   6.610   5.937  16.803 -0.3202 -0.0129  0.2995
18306TIP3    H176409   6.665   6.011  16.829 -0.1470  0.7391 -1.9958
18306TIP3    H276410   6.525   5.976  16.782 -0.4462 -0.5438 -0.2130
18307TIP3   OH276411   3.090   3.457   4.699  0.1626  0.1943 -0.3488
18307TIP3    H176412   3.000   3.452   4.733  0.7231  0.9186  1.3691
18307TIP3    H276413   3.081   3.440   4.605 -1.3774 -2.7842  0.2250
18308TIP3   OH276414   2.171   0.874   5.489  0.2136 -0.1094  0.1386
18308TIP3    H176415   2.185   0.921   5.407 -0.3094 -0.4516 -0.1601
18308TIP3    H276416   2.077   0.883   5.505  0.0697 -1.1855 -0.0216
18309TIP3   OH276417   5.485   6.794  17.264  0.0506 -0.4397 -0.1134
18309TIP3    H176418   5.459   6.703  17.278  1.5639 -0.7502  1.0725
18309TIP3    H276419   5.442   6.820  17.183 -1.8146 -1.6428  0.4335
18310TIP3   OH276420   2.623   0.721   3.483  0.1168 -0.8535 -0.2049
18310TIP3    H176421   2.628   0.734   3.389  0.6663  1.3649  0.0659
18310TIP3    H276422   2.555   0.782   3.512  1.4638  0.1360  1.0382
18311TIP3   OH276423   3.573   3.558   1.628  0.1962  0.0159 -0.0862
18311TIP3    H176424   3.590   3.520   1.541  0.3855  0.9407 -0.4668
18311TIP3    H276425   3.524   3.491   1.674 -1.7088  0.2713 -1.6061
18312TIP3   OH276426   2.328   2.904  16.065  0.1562 -0.4720  0.4219
18312TIP3    H176427   2.336   2.999  16.073 -1.6246 -0.2667  0.1259
18312TIP3    H276428   2.410   2.877  16.024 -0.2789  1.2443 -1.7742
18313TIP3   OH276429   6.234   3.464  16.129 -0.6920 -0.2307 -0.0833
18313TIP3    H176430   6.255   3.440  16.219 -1.4289  3.3028  1.2234
18313TIP3    H276431   6.139   3.454  16.123 -0.6627 -0.3237 -0.4379
18314TIP3   OH276432   2.995   0.442   6.250  0.2707 -0.0703  0.5537
18314TIP3    H176433   3.028   0.358   6.281  1.7046  0.2614  0.0043
18314TIP3    H276434   3.071   0.500   6.253 -0.8177  1.3730  1.4569
18315TIP3   OH276435   5.262   1.247  11.998  0.6600  0.0694  0.0072
18315TIP3    H176436   5.242   1.239  11.904  0.3077 -0.1210  0.0966
18315TIP3    H276437   5.358   1.237  12.003  0.4777 -2.5864 -0.0820
18316TIP3   OH276438   4.314   4.556   1.499 -0.4741 -0.3285 -0.0205
18316TIP3    H176439   4.277   4.469   1.508  0.7834 -0.8508  0.4396
18316TIP3    H276440   4.259   4.600   1.435 -3.1532 -0.2971  2.1384
18317TIP3   OH276441   2.456   6.178   4.363 -0.2438 -0.0860 -0.1485
18317TIP3    H176442   2.439   6.217   4.277 -1.1995 -1.7643 -0.7626
18317TIP3    H276443   2.379   6.201   4.415 -1.8661 -2.8157 -1.1648
18318TIP3   OH276444   5.931   0.753   5.597 -0.4407 -0.2721 -0.0971
18318TIP3    H176445   5.992   0.687   5.629 -0.7673  0.2740  1.7693
18318TIP3    H276446   5.987   0.827   5.573 -0.2467 -0.3074  0.2343
18319TIP3   OH276447   5.401   2.729  16.927  0.8036 -0.3623 -0.0073
18319TIP3    H176448   5.350   2.788  16.872  1.3133 -0.7043 -0.8657
18319TIP3    H276449   5.486   2.772  16.937  0.2871  0.3365  1.6427
18320TIP3   OH276450   3.160   6.300   0.301  0.1644  0.6275 -0.4916
18320TIP3    H176451   3.144   6.355   0.379 -2.4194  1.1342 -1.2849
18320TIP3    H276452   3.253   6.277   0.307  0.6520  2.6892  1.4285
18321TIP3   OH276453   2.905   1.635   1.254  0.1315  0.3356 -0.5383
18321TIP3    H176454   2.911   1.699   1.325  0.7843  1.5711 -1.6753
18321TIP3    H276455   2.988   1.643   1.207 -0.1707 -0.6659 -1.2756
18322TIP3   OH276456   3.296   4.986   2.619  0.3544  0.3734 -0.5751
18322TIP3    H176457   3.321   5.066   2.573 -0.5794  1.0461  0.0581
18322TIP3    H276458   3.202   4.996   2.635 -0.1264 -1.5813 -1.8974
18323TIP3   OH276459   1.457   1.179   3.813 -0.6199 -0.3285 -0.3310
18323TIP3    H176460   1.386   1.207   3.871  0.3555  0.0113  0.7505
18323TIP3    H276461   1.509   1.120   3.867  0.5291  0.3074 -0.7136
18324TIP3   OH276462   1.672   1.970  14.775  0.1645  0.0884  0.2793
18324TIP3    H176463   1.585   1.953  14.810  0.3999 -0.9601  0.3905
18324TIP3    H276464   1.669   2.061  14.745 -0.4018  0.6306  1.9210
18325TIP3   OH276465   6.663   5.096  15.776 -0.2144  0.1833 -0.5176
18325TIP3    H176466   6.631   5.178  15.813  0.6980 -0.4933  1.9257
18325TIP3    H276467   6.702   5.050  15.849 -0.6882 -2.4683 -1.8213
18326TIP3   OH276468   6.809   2.040   4.369  0.6209  0.6079  0.6157
18326TIP3    H176469   6.874   1.971   4.381  0.5460  0.5145  0.4827
18326TIP3    H276470   6.860   2.117   4.345  0.6095  0.3125 -0.3804
18327TIP3   OH276471   6.258   1.739  14.719  0.0068  0.0823  0.3414
18327TIP3    H176472   6.250   1.679  14.794  0.8688  1.5601  1.6852
18327TIP3    H276473   6.243   1.826  14.756 -0.5692  0.7861 -1.4329
18328TIP3   OH276474   3.368   5.525  15.504  0.0105  0.0565 -0.3231
18328TIP3    H176475   3.358   5.619  15.484 -3.5601 -0.0658  0.1727
18328TIP3    H276476   3.370   5.521  15.599  0.1773 -0.3695 -0.3452
18329TIP3   OH276477   1.522   3.291   6.033  0.1387 -0.2531 -0.0439
18329TIP3    H176478   1.564   3.317   6.115 -2.3800 -1.5017  1.8033
18329TIP3    H276479   1.473   3.368   6.005  0.0753 -0.1651  0.3047
18330TIP3   OH276480   0.604   3.254  14.414  0.1221  0.0469 -0.4487
18330TIP3    H176481   0.605   3.344  14.448 -2.3624 -0.2346  0.5644
18330TIP3    H276482   0.671   3.209  14.465  0.3768  0.9721  0.0610
18331TIP3   OH276483   5.135   4.612  10.995 -0.0529  0.1731  0.1649
18331TIP3    H176484   5.166   4.565  10.918  0.6589 -1.9224  1.6209
18331TIP3    H276485   5.116   4.700  10.964  3.6035  0.4827 -1.7294
18332TIP3   OH276486   0.342   1.775  13.819 -0.5474 -0.2247 -0.2278
18332TIP3    H176487   0.338   1.697  13.763 -2.1354  0.9465 -1.8667
18332TIP3    H276488   0.271   1.761  13.882 -1.2302  0.1396 -0.9006
18333TIP3   OH276489   3.945   2.102   4.741  0.8665 -0.3049  0.8199
18333TIP3    H176490   3.961   2.107   4.646 -2.2050 -0.3015  0.1908
18333TIP3    H276491   3.869   2.159   4.755 -0.2659 -2.1676  2.8622
18334TIP3   OH276492   6.213   1.107  16.542  0.4096 -0.0476  0.1598
18334TIP3    H176493   6.182   1.110  16.633 -0.5331  0.9732 -0.1696
18334TIP3    H276494   6.274   1.180  16.535 -0.9123  1.0393 -0.4821
18335TIP3   OH276495   2.030   2.594  13.783  0.4974  0.4879  0.8544
18335TIP3    H176496   2.101   2.530  13.791  0.2644  0.2210  0.8060
18335TIP3    H276497   2.044   2.655  13.855  1.0728  0.7315  0.5447
18336TIP3   OH276498   2.575   4.757   1.075  0.1124 -0.0789  0.4152
18336TIP3    H176499   2.496   4.735   1.124  0.3401 -2.1905 -0.0265
18336TIP3    H276500   2.588   4.682   1.016  2.8532 -0.1936  1.0069
18337TIP3   OH276501   2.521   3.235  14.030  0.1631  0.2772 -0.3253
18337TIP3    H176502   2.509   3.146  14.063 -0.4335  0.3239 -0.3900
18337TIP3    H276503   2.438   3.254  13.985 -1.8263  2.5715  3.7173
18338TIP3   OH276504   2.964   6.621   3.040  0.6781  0.5232 -0.0574
18338TIP3    H176505   2.919   6.553   2.989  0.6510 -0.0349  0.7020
18338TIP3    H276506   2.893   6.673   3.078  0.6741  2.1388 -2.1033
18339TIP3   OH276507   1.202   0.941   0.267  0.0246 -0.8044 -0.4972
18339TIP3    H176508   1.175   0.852   0.249 -1.2115 -1.1229  2.3632
18339TIP3    H276509   1.123   0.994   0.255 -0.0151 -0.5765  0.6494
18340TIP3   OH276510   0.874   6.484  15.676  0.0884 -0.3465  0.1399
18340TIP3    H176511   0.792   6.515  15.638  0.4729  0.3201 -0.1559
18340TIP3    H276512   0.847   6.414  15.736 -0.6760 -0.2608 -0.0896
18341TIP3   OH276513   3.446   5.768  16.069 -0.5062  0.4557  0.2364
18341TIP3    H176514   3.502   5.842  16.093  0.1332  1.0536 -2.7253
18341TIP3    H276515   3.485   5.693  16.113  1.5725  1.1543 -0.3290
18342TIP3   OH276516   2.247   2.270   6.002  0.2508  0.8201  0.9879
18342TIP3    H176517   2.164   2.230   6.029  2.4950 -4.0501  1.7091
18342TIP3    H276518   2.240   2.274   5.906 -1.5275  2.6256  1.1183
18343TIP3   OH276519   5.420   2.246   0.236 -0.3342 -0.3686  0.2577
18343TIP3    H176520   5.397   2.262   0.328 -0.6565 -0.5695  0.2132
18343TIP3    H276521   5.338   2.222   0.194  0.0554 -1.8573  0.2676
18344TIP3   OH276522   2.342   1.624  13.577  0.3392 -0.1856 -0.2473
18344TIP3    H176523   2.285   1.699  13.588  0.6016 -0.1019  0.6388
18344TIP3    H276524   2.419   1.658  13.531  0.6700  0.2027  0.5754
18345TIP3   OH276525   0.777   2.675   3.813 -0.0235  0.1582  0.5774
18345TIP3    H176526   0.819   2.596   3.779  1.1289  1.3426 -0.9449
18345TIP3    H276527   0.741   2.718   3.735 -3.7725 -0.5108  1.7084
18346TIP3   OH276528   6.357   5.735  11.861 -0.6701 -0.3123 -0.1370
18346TIP3    H176529   6.408   5.807  11.897 -2.3110 -0.2836  2.4220
18346TIP3    H276530   6.401   5.656  11.893 -1.4431 -0.3041  1.0264
18347TIP3   OH276531   4.694   1.738  11.703 -0.4308  0.2545  0.4972
18347TIP3    H176532   4.719   1.704  11.618  0.7260  0.0445  0.8970
18347TIP3    H276533   4.694   1.833  11.692  0.6554  0.2635  0.4932
18348TIP3   OH276534   5.558   3.409   0.064 -0.5803  0.4129  0.7292
18348TIP3    H176535   5.528   3.319   0.050 -0.5549  0.0270  2.8297
18348TIP3    H276536   5.565   3.418   0.159 -2.9177  3.4238  0.7669
18349TIP3   OH276537   0.051   4.525   1.407 -0.3436  0.3908  0.0509
18349TIP3    H176538  -0.042   4.527   1.386 -0.0472  1.0651 -1.3506
18349TIP3    H276539   0.056   4.479   1.491 -1.8453 -0.4996 -0.3055
18350TIP3   OH276540   5.922   2.170  14.976  0.0762 -0.4453  0.0253
18350TIP3    H176541   5.888   2.081  14.971 -0.7144 -0.5100  3.6619
18350TIP3    H276542   5.861   2.216  15.034  3.1119  0.9781  2.4020
18351TIP3   OH276543   6.022   3.598  14.932 -0.1783  0.2157 -0.3445
18351TIP3    H176544   6.083   3.664  14.900  0.5438 -0.2512  0.0447
18351TIP3    H276545   5.998   3.627  15.020 -0.3726  0.2974 -0.4229
18352TIP3   OH276546   2.283   0.381  13.937 -0.2825  0.2973  0.9887
18352TIP3    H176547   2.218   0.447  13.963 -0.2916 -0.4588  3.1560
18352TIP3    H276548   2.365   0.430  13.930 -1.0947  1.4341 -2.6734
18353TIP3   OH276549   3.090   0.122  12.649 -0.5799  0.1100 -0.2047
18353TIP3    H176550   3.183   0.122  12.671 -0.2192 -1.5937 -1.4626
18353TIP3    H276551   3.056   0.205  12.682  1.4908  0.9724 -0.1547
18354TIP3   OH276552   6.571   4.412   3.813 -0.6843 -0.5601 -0.1003
18354TIP3    H176553   6.603   4.334   3.859  0.6757 -0.4747 -0.8504
18354TIP3    H276554   6.604   4.485   3.865 -2.2309 -0.4521  0.7829
18355TIP3   OH276555   5.950   4.435   1.439  0.3488 -0.4772 -0.7062
18355TIP3    H176556   5.975   4.502   1.502 -1.5593  0.1343 -0.5284
18355TIP3    H276557   5.895   4.374   1.489  0.5938 -1.1831 -1.2743
18356TIP3   OH276558   6.751   6.108  10.610 -0.2553 -0.7412 -0.1523
18356TIP3    H176559   6.790   6.097  10.523  0.3921 -0.8829  0.1567
18356TIP3    H276560   6.736   6.019  10.641 -2.0399 -0.7045 -0.8009
18357TIP3   OH276561   5.944   2.531   4.530 -0.2584 -0.4930 -0.0202
18357TIP3    H176562   5.921   2.545   4.621  0.1619 -3.1055  0.5863
18357TIP3    H276563   6.038   2.550   4.526 -0.4376  0.3829 -0.1004
18358TIP3   OH276564   0.045   2.656   2.614 -0.2625 -0.5007  0.0617
18358TIP3    H176565   0.103   2.672   2.540 -0.1281 -0.0947  0.2500
18358TIP3    H276566   0.064   2.727   2.675  0.6407 -1.6145  1.1122
18359TIP3   OH276567   1.163   5.191  16.700  0.4266 -0.1483  0.0321
18359TIP3    H176568   1.165   5.101  16.734  0.7698 -0.0506  0.2676
18359TIP3    H276569   1.123   5.182  16.613 -0.5995 -0.3771  0.5162
18360TIP3   OH276570   4.915   6.079   2.325 -0.3374 -0.3262 -0.0570
18360TIP3    H176571   4.936   6.025   2.402  1.1837  1.1632  0.6310
18360TIP3    H276572   4.835   6.040   2.290 -1.1913 -0.9568  2.3857
18361TIP3   OH276573   0.307   2.640   0.305  0.2288 -0.1620  0.0406
18361TIP3    H176574   0.357   2.693   0.367 -1.5023 -0.8129  2.0910
18361TIP3    H276575   0.267   2.704   0.246  3.7342  0.3771 -2.0440
18362TIP3   OH276576   1.552   0.599   3.700 -0.3672 -0.0655 -0.2039
18362TIP3    H176577   1.486   0.619   3.766  0.0948 -1.3173  0.6696
18362TIP3    H276578   1.580   0.685   3.668  0.6490  0.7165  2.4936
18363TIP3   OH276579   3.695   5.490  13.930 -0.2363 -0.4224  0.5805
18363TIP3    H176580   3.693   5.408  13.979 -1.7006 -0.6524  0.1801
18363TIP3    H276581   3.703   5.463  13.838  0.9648 -0.0483  0.5671
18364TIP3   OH276582   0.679   4.390  12.972 -0.5512 -0.4986 -0.1252
18364TIP3    H176583   0.693   4.423  13.060 -0.8314  0.2412 -0.3491
18364TIP3    H276584   0.584   4.378  12.966 -0.6756  0.6717 -0.7370
18365TIP3   OH276585   2.414   5.625  14.488  0.1830  0.2493 -0.2279
18365TIP3    H176586   2.469   5.689  14.443  1.3766 -0.2009  0.5485
18365TIP3    H276587   2.431   5.640  14.581 -2.1854  1.1160  0.1410
18366TIP3   OH276588   5.453   4.374   5.773  0.3683 -0.1680 -0.8465
18366TIP3    H176589   5.501   4.426   5.708  2.2968 -0.7106  0.0874
18366TIP3    H276590   5.410   4.440   5.828  0.1634  0.3370 -1.5930
18367TIP3   OH276591   4.892   5.997  15.387  0.1858 -0.3181 -0.2478
18367TIP3    H176592   4.911   6.050  15.309 -2.5806  0.4482 -0.5075
18367TIP3    H276593   4.802   6.020  15.411  0.4679 -1.5484  2.3967
18368TIP3   OH276594   0.575   3.527  15.176 -0.4810 -0.8527  0.2464
18368TIP3    H176595   0.649   3.553  15.121  0.1175 -2.4501  0.2394
18368TIP3    H276596   0.498   3.557  15.128  0.1121  2.0653  0.8917
18369TIP3   OH276597   5.910   5.923  11.640  0.2282  0.1787  0.1430
18369TIP3    H176598   5.898   5.887  11.728  1.3300 -0.6513 -0.0286
18369TIP3    H276599   5.969   5.861  11.596  0.8233  1.3086 -0.7180
18370TIP3   OH276600   0.460   1.726   2.915 -0.5993 -0.0777 -0.2078
18370TIP3    H176601   0.370   1.699   2.899 -1.0763  0.8837  0.7037
18370TIP3    H276602   0.461   1.820   2.894  0.1046 -0.0125  0.0841
18371TIP3   OH276603   5.113   1.309   3.745  0.0892  0.3445 -0.4828
18371TIP3    H176604   5.054   1.260   3.801  2.2250 -0.7518  0.9552
18371TIP3    H276605   5.201   1.290   3.780  1.3490  1.4808 -2.7860
18372TIP3   OH276606   1.631   1.544   0.022  1.0066 -0.2248 -0.6690
18372TIP3    H176607   1.552   1.529  -0.030  1.5239 -3.8364 -0.6448
18372TIP3    H276608   1.701   1.500  -0.027  2.4397  0.3944  0.7357
18373TIP3   OH276609   5.823   3.974  16.334  0.2715  0.0152  0.2478
18373TIP3    H176610   5.792   3.884  16.321  0.8184 -0.3472  1.2964
18373TIP3    H276611   5.763   4.028  16.284 -0.6523 -0.8617  0.3842
18374TIP3   OH276612   1.996   3.249  11.955  0.3505  0.4149  0.2098
18374TIP3    H176613   1.909   3.209  11.945 -0.6655  2.5740 -0.1578
18374TIP3    H276614   2.040   3.233  11.872  0.7722 -1.6361  0.7777
18375TIP3   OH276615   1.960   5.847  12.802  0.0182  0.1753  0.3594
18375TIP3    H176616   2.012   5.776  12.838 -0.6352 -0.8844 -0.6994
18375TIP3    H276617   1.946   5.907  12.876  2.3144  0.2911  0.7747
18376TIP3   OH276618   4.554   6.519   2.868  0.1435  0.7790  0.0814
18376TIP3    H176619   4.587   6.609   2.865  1.2047  0.3834 -1.2181
18376TIP3    H276620   4.497   6.517   2.944 -0.8148  2.8666 -0.5066
18377TIP3   OH276621   0.180   2.885  16.141  0.2125 -0.0252 -0.3887
18377TIP3    H176622   0.139   2.850  16.220  0.9938 -1.4381 -0.5753
18377TIP3    H276623   0.221   2.809  16.100  2.3540  1.1848 -0.6178
18378TIP3   OH276624   4.597   6.034   6.179  0.4613 -0.2815  0.2154
18378TIP3    H176625   4.522   6.083   6.213  1.4579  1.8228 -0.4561
18378TIP3    H276626   4.563   5.990   6.100 -0.1604  0.3863  0.0984
18379TIP3   OH276627   4.825   2.688  14.101  0.2885 -0.7258 -0.4276
18379TIP3    H176628   4.766   2.638  14.157 -0.1870 -0.1546 -0.4032
18379TIP3    H276629   4.784   2.686  14.015  0.5374 -0.8161 -0.5444
18380TIP3   OH276630   2.755   0.929  14.126  0.3809 -0.3699  0.2835
18380TIP3    H176631   2.766   0.844  14.084 -0.3367 -0.6877  0.7211
18380TIP3    H276632   2.749   0.908  14.220 -2.2934 -0.1077  0.2439
18381TIP3   OH276633   2.043   2.882   2.528  0.0684  0.2175 -0.5524
18381TIP3    H176634   2.122   2.851   2.572  1.4459 -0.3608 -3.2437
18381TIP3    H276635   2.069   2.893   2.437 -3.3599 -1.6331 -1.9389
18382TIP3   OH276636   5.397   2.679   5.993 -0.0239 -1.0128  0.3538
18382TIP3    H176637   5.414   2.740   5.922 -1.4302 -1.4823 -0.4320
18382TIP3    H276638   5.392   2.733   6.071  0.1785 -0.3171 -0.1071
18383TIP3   OH276639   2.783   2.074  13.670 -0.1928 -0.2764 -0.3180
18383TIP3    H176640   2.859   2.101  13.722 -1.8331  0.9265  1.5869
18383TIP3    H276641   2.811   1.993  13.627  1.5464 -0.8652  1.7612
18384TIP3   OH276642   0.114   3.577   5.230  0.1406  0.1879 -0.3751
18384TIP3    H176643   0.158   3.621   5.303 -1.8420  1.4286  0.1757
18384TIP3    H276644   0.035   3.538   5.270 -0.9529  0.8382 -1.7998
18385TIP3   OH276645   6.583   5.905   3.499  0.4422 -0.7656 -0.5090
18385TIP3    H176646   6.610   5.853   3.575  1.0561  2.2058  1.5127
18385TIP3    H276647   6.630   5.988   3.508 -2.3010  1.1591 -2.0119
18386TIP3   OH276648   2.596   0.594  17.260  0.1742  0.3859 -0.4441
18386TIP3    H176649   2.614   0.544  17.339  0.6687 -1.0278 -1.3958
18386TIP3    H276650   2.643   0.676  17.272 -0.6279  0.6447  1.1550
18387TIP3   OH276651   1.479   0.020   3.392  0.3795 -0.2576 -0.5905
18387TIP3    H176652   1.558   0.007   3.339  0.7412  0.3001 -0.1970
18387TIP3    H276653   1.511   0.023   3.482 -0.1151 -0.1969 -0.4129
18388TIP3   OH276654   2.129   5.857  14.405  0.5009  0.9773  0.1954
18388TIP3    H176655   2.097   5.844  14.495 -1.0372  1.3710 -0.2682
18388TIP3    H276656   2.078   5.930  14.372 -0.6903 -0.6443 -1.7891
18389TIP3   OH276657   5.167   0.691  15.192 -0.4467  0.0267 -0.3906
18389TIP3    H176658   5.178   0.714  15.284 -2.8786  0.2178 -0.0964
18389TIP3    H276659   5.248   0.644  15.170  0.6701  0.9305  1.5074
18390TIP3   OH276660   1.356   4.329   0.587  0.1052  0.1268 -0.0995
18390TIP3    H176661   1.417   4.394   0.552  1.1700 -0.6383  0.2720
18390TIP3    H276662   1.275   4.344   0.538  0.7656  0.7848 -1.0376
18391TIP3   OH276663   6.525   2.199  14.513 -0.2584 -0.4120  0.2450
18391TIP3    H176664   6.605   2.215  14.462 -0.5569 -1.0757 -0.4460
18391TIP3    H276665   6.465   2.159  14.451 -0.7843 -0.8398  1.0168
18392TIP3   OH276666   6.704   3.842  12.802 -0.0615 -0.2486 -0.2703
18392TIP3    H176667   6.687   3.935  12.812 -0.5371 -0.4156  0.5561
18392TIP3    H276668   6.787   3.837  12.756  0.5892  0.5880  0.7733
18393TIP3   OH276669   3.691   1.611  12.380  0.5219  0.0267  0.0713
18393TIP3    H176670   3.740   1.593  12.300 -1.2293  0.5155 -1.1682
18393TIP3    H276671   3.617   1.550  12.377 -0.4750  1.1739  0.4480
18394TIP3   OH276672   5.250   2.894   2.145  0.0397 -0.3685  0.2225
18394TIP3    H176673   5.303   2.820   2.176  1.5084  1.0270  1.1866
18394TIP3    H276674   5.160   2.869   2.165  0.2735 -2.7463 -1.3089
18395TIP3   OH276675   6.575   1.335  10.536 -0.0461 -0.5504  0.1241
18395TIP3    H176676   6.645   1.346  10.472  1.3561 -1.9655  1.3177
18395TIP3    H276677   6.550   1.424  10.560  0.9740 -0.0073 -0.7204
18396TIP3   OH276678   6.699   0.770  13.674  0.3773  0.1163  0.2065
18396TIP3    H176679   6.704   0.773  13.770  0.3510  0.4263  0.1959
18396TIP3    H276680   6.731   0.855  13.645  1.5516 -0.4046 -0.1069
18397TIP3   OH276681   2.855   1.690  12.851  0.0617  0.7074 -0.1112
18397TIP3    H176682   2.905   1.745  12.790 -0.6219  2.2604  0.6763
18397TIP3    H276683   2.915   1.673  12.923  0.4386 -0.0362 -0.5832
18398TIP3   OH276684   2.622   1.205   5.538 -0.0255  0.3248 -0.2820
18398TIP3    H176685   2.532   1.173   5.535  0.1287 -0.1038 -0.3194
18398TIP3    H276686   2.637   1.241   5.450  0.0020 -0.0460 -0.4293
18399TIP3   OH276687   4.556   0.019   5.861 -0.0791 -0.3058  0.4407
18399TIP3    H176688   4.489  -0.041   5.830  0.3464  1.1516 -3.9006
18399TIP3    H276689   4.516   0.105   5.855  1.3599  0.3794  0.1563
18400TIP3   OH276690   0.159   4.493   5.358 -0.0813 -0.6481 -0.0502
18400TIP3    H176691   0.144   4.588   5.364  2.1755 -0.2660  0.4820
18400TIP3    H276692   0.112   4.457   5.434  1.4791  0.4447  1.5184
18401TIP3   OH276693   5.904   1.350  15.587  0.1433  0.2478  0.8454
18401TIP3    H176694   5.825   1.348  15.641  0.4061 -0.0025  1.2269
18401TIP3    H276695   5.964   1.289  15.630 -0.2433 -1.2961 -0.6542
18402TIP3   OH276696   5.393   1.948  16.743 -0.0358 -0.3631 -0.2959
18402TIP3    H176697   5.458   2.001  16.696 -0.7398 -0.4529 -1.4141
18402TIP3    H276698   5.372   2.000  16.821  3.3211 -1.5444  1.5922
18403TIP3   OH276699   0.048   3.989  17.164  0.2833  0.0710 -0.8430
18403TIP3    H176700   0.124   3.933  17.148  1.2409  0.5995  1.3789
18403TIP3    H276701   0.071   4.072  17.124 -0.0977 -0.3869 -2.0548
18404TIP3   OH276702   5.553   6.114   5.341  0.5888 -0.4542  0.2750
18404TIP3    H176703   5.500   6.078   5.412 -0.1819  1.5011  0.7388
18404TIP3    H276704   5.542   6.209   5.347  3.1495 -0.0327 -0.4193
18405TIP3   OH276705   4.547   5.065   0.764  0.0422  0.4954 -0.0763
18405TIP3    H176706   4.527   5.150   0.803 -1.1877 -0.0136  0.4529
18405TIP3    H276707   4.496   5.002   0.816 -0.2744 -0.3958 -1.4188
18406TIP3   OH276708   5.266   2.612   3.329  0.2593 -0.5768 -0.2072
18406TIP3    H176709   5.193   2.611   3.391 -0.2371  0.5630 -0.7535
18406TIP3    H276710   5.262   2.526   3.287 -1.5535 -0.1233 -1.0877
18407TIP3   OH276711   1.609   2.680  15.109  0.0797 -0.8552  0.0355
18407TIP3    H176712   1.700   2.666  15.136 -0.0954 -1.6355  0.2647
18407TIP3    H276713   1.594   2.774  15.122  1.0272 -0.6036 -0.5828
18408TIP3   OH276714   6.667   4.401   2.429  0.2731 -0.0008  0.4358
18408TIP3    H176715   6.720   4.353   2.493 -1.9386  0.1438  2.4813
18408TIP3    H276716   6.731   4.430   2.363  2.0191 -4.0688  0.0115
18409TIP3   OH276717   1.601   6.330  12.618  0.3287 -0.3761 -0.4593
18409TIP3    H176718   1.681   6.344  12.566  1.6135 -0.5563  1.3889
18409TIP3    H276719   1.628   6.344  12.708 -2.1275  1.0693  0.1285
18410TIP3   OH276720   5.338   0.979  16.745  0.0168  0.4732 -0.2889
18410TIP3    H176721   5.340   1.022  16.660 -0.7908  1.0269 -0.0421
18410TIP3    H276722   5.296   1.043  16.803 -0.8556 -0.4984  0.1815
18411TIP3   OH276723   5.521   4.719   2.508 -0.8749  0.1083 -0.2052
18411TIP3    H176724   5.459   4.671   2.453 -2.1789  0.9003  0.5241
18411TIP3    H276725   5.482   4.717   2.596  1.1075 -1.0553  0.7243
18412TIP3   OH276726   2.258   2.449  16.572 -0.3960 -0.0496  0.3034
18412TIP3    H176727   2.245   2.355  16.589  0.0045 -0.4725 -1.4636
18412TIP3    H276728   2.170   2.486  16.571 -0.7215 -0.7916 -0.8126
18413TIP3   OH276729   5.903   1.780   3.926 -0.5422  0.0698 -0.3074
18413TIP3    H176730   5.955   1.832   3.987  1.3328 -0.5855 -1.2657
18413TIP3    H276731   5.901   1.693   3.965  1.2157 -0.5190 -1.4069
18414TIP3   OH276732   1.488   4.777  13.871  0.3551  0.0331 -0.3318
18414TIP3    H176733   1.578   4.793  13.843  0.2666  0.7127 -0.2370
18414TIP3    H276734   1.496   4.715  13.943  1.0595  2.7003  2.0644
18415TIP3   OH276735   3.073   4.732  14.957  0.0704 -0.9432 -0.1965
18415TIP3    H176736   2.984   4.705  14.934 -0.2920 -0.1589  0.2606
18415TIP3    H276737   3.078   4.825  14.934  1.0147 -1.1447 -0.8998
18416TIP3   OH276738   4.776   2.297   0.206 -0.1720  0.5014  0.7882
18416TIP3    H176739   4.815   2.252   0.131 -0.7821  1.5008 -0.1447
18416TIP3    H276740   4.737   2.226   0.258 -1.4530 -0.0722 -0.8436
18417TIP3   OH276741   4.285   6.199   0.737  0.3359  0.5170 -0.2472
18417TIP3    H176742   4.297   6.293   0.744 -0.6374  0.5771  1.0621
18417TIP3    H276743   4.366   6.161   0.771  1.3645  0.8311 -2.1895
18418TIP3   OH276744   0.299   0.429   5.028  0.3030  0.4189  0.6424
18418TIP3    H176745   0.394   0.439   5.018  0.2433  1.1276  0.7008
18418TIP3    H276746   0.281   0.339   5.001  1.0007  0.2587  0.6904
18419TIP3   OH276747   2.718   6.798  15.001  0.4249  0.1020 -0.5323
18419TIP3    H176748   2.675   6.875  14.963  1.7956  1.4586  0.5200
18419TIP3    H276749   2.782   6.835  15.062  0.0922 -1.9256  1.1295
18420TIP3   OH276750   5.928   4.855   5.173  0.4164 -0.1129 -0.1539
18420TIP3    H176751   5.864   4.926   5.157  1.2268  0.9406  1.0675
18420TIP3    H276752   5.874   4.776   5.180 -0.5523  0.4150 -1.1935
18421TIP3   OH276753   3.858   5.588  15.773 -0.2298 -0.0419  0.4210
18421TIP3    H176754   3.853   5.496  15.797  0.1918 -0.2125 -0.1097
18421TIP3    H276755   3.827   5.635  15.850  0.1695 -0.6002  0.9383
18422TIP3   OH276756   1.269   2.269   1.113 -0.6397 -0.4660 -0.2659
18422TIP3    H176757   1.316   2.234   1.037 -0.4069  0.7004 -0.6879
18422TIP3    H276758   1.208   2.333   1.077  1.8390  2.6990  0.6662
18423TIP3   OH276759   1.355   3.067  15.548 -0.0201 -0.1612 -0.5588
18423TIP3    H176760   1.338   2.997  15.485  0.4836 -1.1419  0.3572
18423TIP3    H276761   1.278   3.068  15.605 -0.8206  1.2317 -1.6003
18424TIP3   OH276762   0.920   0.133  14.085 -0.3199  1.0095  0.5359
18424TIP3    H176763   0.829   0.161  14.072 -0.6897 -0.7369 -0.9417
18424TIP3    H276764   0.917   0.079  14.163 -1.1797 -1.4267 -1.0845
18425TIP3   OH276765   4.464   5.203   5.857 -0.2575  0.4768  0.2356
18425TIP3    H176766   4.417   5.284   5.874  0.6425  0.7602  1.5519
18425TIP3    H276767   4.519   5.222   5.781  1.5224  1.8370  1.7889
18426TIP3   OH276768   4.822   6.039  14.894 -0.1799 -0.2700 -0.6781
18426TIP3    H176769   4.869   6.052  14.811 -0.2373 -0.6882 -0.7773
18426TIP3    H276770   4.731   6.064  14.874  0.1866  1.6326 -0.1939
18427TIP3   OH276771   4.473   1.578   2.698 -0.5367 -0.0298  0.1030
18427TIP3    H176772   4.460   1.495   2.743 -2.2326  0.8701  1.4490
18427TIP3    H276773   4.567   1.593   2.700 -0.3295 -1.3163  0.9816
18428TIP3   OH276774   4.815   3.156   5.846  0.2507 -0.3062  0.4103
18428TIP3    H176775   4.854   3.089   5.901  1.3205 -0.6765 -0.7387
18428TIP3    H276776   4.839   3.239   5.887  0.2775 -0.5941  0.9748
18429TIP3   OH276777   3.296   4.601  11.553  0.6729 -0.2165 -0.3733
18429TIP3    H176778   3.349   4.532  11.513  0.8016 -0.0719 -0.4507
18429TIP3    H276779   3.206   4.581  11.525  0.7873  0.0065 -0.9118
18430TIP3   OH276780   2.068   1.997   4.474  0.5511 -0.4698 -0.2073
18430TIP3    H176781   2.062   1.947   4.555  1.2355 -1.1693 -0.5723
18430TIP3    H276782   2.030   1.940   4.407 -0.2384  0.1993 -0.3585
18431TIP3   OH276783   5.528   0.093  14.141 -0.0749  0.1777 -0.1859
18431TIP3    H176784   5.449   0.145  14.153  0.8241  1.6244 -0.3509
18431TIP3    H276785   5.497   0.014  14.096 -1.1841  1.5121 -1.8904
18432TIP3   OH276786   3.927   2.225   2.674  0.4977  0.2177 -0.2143
18432TIP3    H176787   3.951   2.136   2.702  0.8711  1.0253  2.2991
18432TIP3    H276788   3.879   2.261   2.748  0.4129  2.1558 -1.1584
18433TIP3   OH276789   0.753   3.980  15.055  0.3688 -0.4051  0.9608
18433TIP3    H176790   0.827   4.028  15.016  0.8016 -0.7197  1.3923
18433TIP3    H276791   0.703   4.047  15.101 -2.0538  0.6792 -2.8066
18434TIP3   OH276792   6.356   3.276   0.550  0.0194 -0.2188 -0.5382
18434TIP3    H176793   6.448   3.301   0.547 -0.1233  0.3193 -0.6483
18434TIP3    H276794   6.314   3.348   0.598 -0.3701 -0.3719 -0.6481
18435TIP3   OH276795   3.631   6.328   0.030 -0.2307  0.8580 -0.0555
18435TIP3    H176796   3.602   6.311   0.120  0.4953 -0.6443 -0.0695
18435TIP3    H276797   3.726   6.332   0.036 -0.1475  0.2429 -0.8225
18436TIP3   OH276798   0.819   1.376  11.983 -0.4307  0.1293 -0.4558
18436TIP3    H176799   0.884   1.434  11.944  0.6733 -0.8957 -0.1878
18436TIP3    H276800   0.798   1.415  12.068  0.2089  0.2016 -0.3297
18437TIP3   OH276801   0.797   6.588  17.095  0.2428  0.1740 -0.3027
18437TIP3    H176802   0.737   6.663  17.090 -0.9060 -0.5694  1.3435
18437TIP3    H276803   0.867   6.609  17.033 -0.6045  2.0932 -0.6878
18438TIP3   OH276804   2.822   3.638   3.552 -0.0290 -0.9312  0.3238
18438TIP3    H176805   2.907   3.665   3.518 -0.4216 -0.8994 -0.6788
18438TIP3    H276806   2.768   3.718   3.550 -0.3335 -1.1375  0.1187
18439TIP3   OH276807   6.702   5.422   5.049  0.0549  0.1984 -0.2799
18439TIP3    H176808   6.748   5.354   5.098  0.5249  1.5985  1.3267
18439TIP3    H276809   6.743   5.504   5.078 -2.0217  1.3412 -0.4167
18440TIP3   OH276810   2.016   1.669  13.631  0.3144 -0.0263 -0.1326
18440TIP3    H176811   2.029   1.587  13.678  2.0647  1.2895  1.8404
18440TIP3    H276812   1.975   1.727  13.695 -1.6697  0.4646 -1.7502
18441TIP3   OH276813   6.444   5.615   5.170  0.5761  0.4562  0.2490
18441TIP3    H176814   6.401   5.631   5.254 -0.1243 -2.8129  0.6351
18441TIP3    H276815   6.500   5.540   5.185 -0.3410 -0.8957 -2.4285
18442TIP3   OH276816   4.821   3.229   0.502  0.3070 -0.0816  0.0627
18442TIP3    H176817   4.758   3.299   0.485 -0.3064 -0.4150  0.8628
18442TIP3    H276818   4.898   3.252   0.450 -0.0407  0.9575 -0.0091
18443TIP3   OH276819   6.145   0.962   1.972 -0.3954  0.9444 -0.4600
18443TIP3    H176820   6.105   1.042   1.939 -1.2374  0.6190 -0.2737
18443TIP3    H276821   6.211   0.992   2.034  0.6244  1.5372 -1.7850
18444TIP3   OH276822   1.762   4.883   6.351  0.3821 -0.0307  0.1960
18444TIP3    H176823   1.743   4.976   6.362 -0.8348 -0.4791  2.6757
18444TIP3    H276824   1.854   4.874   6.378  0.5115  0.4471 -0.0800
18445TIP3   OH276825   6.055   4.914  12.253 -0.0166 -0.0604  0.1983
18445TIP3    H176826   6.087   4.848  12.192  0.9740  2.6463 -2.4694
18445TIP3    H276827   6.115   4.910  12.327  2.0923  0.0101 -1.4182
18446TIP3   OH276828   5.305   1.294  15.465 -0.0952 -0.1513  1.0525
18446TIP3    H176829   5.304   1.380  15.507 -0.8434 -0.3280  1.4205
18446TIP3    H276830   5.389   1.256  15.490  0.0172  0.2631  1.3256
18447TIP3   OH276831   5.228   0.765   2.875  0.2370 -0.4255 -0.2984
18447TIP3    H176832   5.256   0.728   2.959 -1.9128  1.5651  1.4312
18447TIP3    H276833   5.226   0.860   2.890 -2.9223 -0.1631 -1.6018
18448TIP3   OH276834   4.667   1.341  11.446 -0.0878  0.5060  0.5210
18448TIP3    H176835   4.669   1.425  11.400 -2.2802  0.7531  0.8047
18448TIP3    H276836   4.657   1.275  11.378  2.2813  0.3412  0.2348
18449TIP3   OH276837   6.743   3.776   4.447  0.1060  1.1184 -0.0332
18449TIP3    H176838   6.735   3.832   4.524  1.3743 -0.3457  1.2408
18449TIP3    H276839   6.671   3.803   4.390 -1.2431  1.8661  1.9123
18450TIP3   OH276840   3.300   4.725   0.104 -0.8518  0.1566  0.1506
18450TIP3    H176841   3.268   4.640   0.136  0.4074 -0.3573  0.0780
18450TIP3    H276842   3.311   4.713   0.010  3.6454 -1.1532  0.6198
18451TIP3   OH276843   0.294   6.391  10.914  0.1974  0.3638  0.0795
18451TIP3    H176844   0.239   6.331  10.966  2.3279 -0.3137  1.6764
18451TIP3    H276845   0.307   6.345  10.831 -1.1398  0.2868 -0.1142
18452TIP3   OH276846   0.698   1.194  16.944 -0.0416  0.0135  0.4154
18452TIP3    H176847   0.707   1.219  17.036  0.3112  0.0004  0.3845
18452TIP3    H276848   0.710   1.099  16.943  2.4785  0.2802  0.0459
18453TIP3   OH276849   1.470   0.871   1.021  0.2309 -0.2215 -0.0152
18453TIP3    H176850   1.528   0.946   1.031  1.3438 -0.9308 -0.8326
18453TIP3    H276851   1.454   0.865   0.927 -0.5177 -0.5195  0.1237
18454TIP3   OH276852   5.051   2.098   1.543  0.4362 -0.4972  0.6932
18454TIP3    H176853   4.963   2.124   1.516  2.2252  2.8677 -2.7554
18454TIP3    H276854   5.057   2.006   1.517 -1.5138 -0.2946 -0.7157
18455TIP3   OH276855   3.503   5.196  17.160 -0.1800 -0.5221  0.1808
18455TIP3    H176856   3.574   5.220  17.219  1.1421  1.2952 -1.9909
18455TIP3    H276857   3.539   5.127  17.104 -0.0907  0.3927 -0.9220
18456TIP3   OH276858   6.165   2.818  15.660  0.0314 -0.2983  0.0783
18456TIP3    H176859   6.236   2.807  15.724 -0.5968 -1.3859  0.6225
18456TIP3    H276860   6.153   2.731  15.622 -1.0490 -0.1592  0.0502
18457TIP3   OH276861   4.720   5.891   1.995  0.2844  0.2169  0.1875
18457TIP3    H176862   4.811   5.865   2.012  0.3024 -0.0444 -0.3049
18457TIP3    H276863   4.669   5.812   2.008  0.5252 -0.5539 -2.9447
18458TIP3   OH276864   5.951   1.050  13.614 -0.1014 -0.0220 -0.4282
18458TIP3    H176865   5.917   1.124  13.665 -0.3561 -0.6035  0.2472
18458TIP3    H276866   6.044   1.047  13.635 -0.2595 -0.4358  0.2304
18459TIP3   OH276867   5.315   5.904  13.421  0.4877  0.0304 -0.3886
18459TIP3    H176868   5.227   5.915  13.455  0.0315 -0.7482 -1.2532
18459TIP3    H276869   5.352   5.992  13.419 -1.3909  0.8804 -2.9241
18460TIP3   OH276870   1.523   2.573   5.345  0.1562  0.2939 -0.1083
18460TIP3    H176871   1.488   2.662   5.350  0.7583  0.5543 -0.4302
18460TIP3    H276872   1.571   2.570   5.262  1.8043  0.2909  0.7967
18461TIP3   OH276873   4.993   3.557  12.289  0.4602  0.5985 -0.4788
18461TIP3    H176874   4.978   3.462  12.283  1.7739  0.0715  2.5849
18461TIP3    H276875   4.910   3.593  12.320  1.1483 -0.3038  2.7743
18462TIP3   OH276876   3.599   3.699   6.016  0.4037  0.0690 -0.1266
18462TIP3    H176877   3.590   3.621   5.962 -1.7187 -0.2266  0.5565
18462TIP3    H276878   3.566   3.672   6.102 -1.7833  2.0776 -0.2608
18463TIP3   OH276879   3.332   2.072   1.935  0.0262 -0.1056 -0.3055
18463TIP3    H176880   3.270   2.143   1.952  0.3186  0.6901 -2.3384
18463TIP3    H276881   3.276   1.997   1.914 -0.2565  0.1088 -0.3303
18464TIP3   OH276882   0.656   1.437  12.197 -0.1857 -0.3216  0.2236
18464TIP3    H176883   0.697   1.353  12.219  1.8289 -0.0313 -2.0576
18464TIP3    H276884   0.683   1.496  12.268  3.8464 -0.0675 -1.2665
18465TIP3   OH276885   6.818   3.306   3.734  0.3212  0.6136 -0.1320
18465TIP3    H176886   6.792   3.383   3.785  0.6238  0.1727  0.7167
18465TIP3    H276887   6.892   3.335   3.681  1.5318  0.5178  1.4150
18466TIP3   OH276888   0.775   5.302  11.956 -0.7000  0.1090 -1.0114
18466TIP3    H176889   0.786   5.210  11.933  0.4484  0.3942 -1.7043
18466TIP3    H276890   0.849   5.321  12.014 -1.8551  0.1864  0.4714
18467TIP3   OH276891   3.621   2.857   4.509  0.4295 -0.0056 -0.0646
18467TIP3    H176892   3.618   2.820   4.421  1.2287 -2.0640  0.7288
18467TIP3    H276893   3.630   2.952   4.494  1.9075 -0.4013 -2.2152
18468TIP3   OH276894   2.293   1.604  12.917  0.1572 -0.0912  0.1535
18468TIP3    H176895   2.227   1.566  12.860  1.9246 -2.1424 -0.6395
18468TIP3    H276896   2.243   1.645  12.987 -1.9503 -2.1001 -0.0661
18469TIP3   OH276897   0.887   4.437   0.593 -0.4465  0.1088 -0.3134
18469TIP3    H176898   0.907   4.497   0.522 -1.3289  1.5791  0.6407
18469TIP3    H276899   0.965   4.437   0.648 -0.2010 -0.1344 -0.6594
18470TIP3   OH276900   0.320   4.929   3.092 -0.3697 -0.0517  0.0114
18470TIP3    H176901   0.292   4.926   3.183  1.8874  0.1194  0.7456
18470TIP3    H276902   0.273   5.004   3.055 -0.8604  0.2351  1.1762
18471TIP3   OH276903   5.281   1.351  10.916 -0.2173  0.0240 -0.0852
18471TIP3    H176904   5.336   1.273  10.927 -1.8218 -1.2781 -0.8653
18471TIP3    H276905   5.309   1.389  10.833 -1.8949 -1.9346 -1.6685
18472TIP3   OH276906   5.382   2.791   1.494  0.6926  0.0299 -0.0059
18472TIP3    H176907   5.375   2.707   1.448  2.1936  0.1295 -0.4694
18472TIP3    H276908   5.393   2.856   1.425 -0.0484  0.5793  0.3736
18473TIP3   OH276909   2.415   4.503  11.567  0.0584 -0.6865  0.0692
18473TIP3    H176910   2.425   4.468  11.479 -0.9349 -0.8094  0.0019
18473TIP3    H276911   2.348   4.448  11.608  2.0747 -2.0885  1.6828
18474TIP3   OH276912   3.892   3.481   3.107 -0.9158  0.1886 -0.0561
18474TIP3    H176913   3.846   3.542   3.050 -1.4866 -0.5496 -0.3980
18474TIP3    H276914   3.974   3.462   3.061 -2.0591 -1.6375 -1.4549
18475TIP3   OH276915   0.423   5.557   0.155  0.4629 -0.8300 -0.3048
18475TIP3    H176916   0.404   5.650   0.163 -1.3906 -1.2542  0.8400
18475TIP3    H276917   0.466   5.533   0.237 -1.0985 -1.3821  0.3945
18476TIP3   OH276918   4.173   3.681   2.867  0.2311 -0.3623 -0.4657
18476TIP3    H176919   4.174   3.611   2.801 -1.7482  0.0047 -0.9585
18476TIP3    H276920   4.241   3.741   2.838 -0.0466 -0.6163 -1.7321
18477TIP3   OH276921   3.713   5.301   0.013  0.8003 -0.0232 -0.2850
18477TIP3    H176922   3.654   5.324   0.084 -0.0490  0.7382 -1.2106
18477TIP3    H276923   3.783   5.366   0.018  2.4344 -1.7728  1.7168
18478TIP3   OH276924   2.510   0.088  14.136 -0.1939 -0.0709 -0.2223
18478TIP3    H176925   2.549   0.118  14.054  0.7635 -2.4038 -0.6918
18478TIP3    H276926   2.563   0.012  14.162 -2.4605 -1.4004  0.8136
18479TIP3   OH276927   6.676   3.172  16.229  0.1456 -0.9094  0.3760
18479TIP3    H176928   6.757   3.165  16.279 -1.0036 -3.0146  2.1201
18479TIP3    H276929   6.616   3.219  16.287 -0.3146 -0.6548 -0.2929
18480TIP3   OH276930   1.047   2.953  14.909  0.1955  0.4957 -0.4257
18480TIP3    H176931   1.085   3.037  14.885 -0.9200  0.9519 -0.6595
18480TIP3    H276932   0.954   2.970  14.918 -0.1171 -0.7989 -0.8869
18481TIP3   OH276933   6.038   4.037  16.876 -0.2257  0.0934 -0.1562
18481TIP3    H176934   5.945   4.032  16.853 -0.4988  0.5724  0.7620
18481TIP3    H276935   6.051   3.966  16.939 -0.2512  0.7036  0.5591
18482TIP3   OH276936   2.955   1.136  12.645 -0.0595  0.2213  0.7621
18482TIP3    H176937   3.043   1.097  12.648 -0.8368 -1.6019  3.0116
18482TIP3    H276938   2.937   1.160  12.736 -2.5199 -1.0127  0.6646
18483TIP3   OH276939   2.904   6.643   4.794  0.1652 -0.1944  0.7475
18483TIP3    H176940   2.938   6.560   4.828 -2.9825 -1.5931  0.8536
18483TIP3    H276941   2.896   6.699   4.872  0.5590 -0.4655  0.9882
18484TIP3   OH276942   0.117   6.624   4.963  0.5672  0.4691  0.6057
18484TIP3    H176943   0.041   6.672   4.995  0.5781  0.3009  0.8873
18484TIP3    H276944   0.156   6.682   4.897  0.6136  0.8713  0.9835
18485TIP3   OH276945   2.440   1.832  15.942 -0.2009 -0.7244  0.3712
18485TIP3    H176946   2.372   1.895  15.965  1.0348  0.4130  1.1174
18485TIP3    H276947   2.507   1.843  16.010  1.5683 -0.4428 -1.3089
18486TIP3   OH276948   5.365   2.363  12.307  0.8602  0.2466 -0.0702
18486TIP3    H176949   5.274   2.389  12.292  1.3710  0.3525 -3.8785
18486TIP3    H276950   5.365   2.268  12.293  1.4344  0.3665 -0.9818
18487TIP3   OH276951   4.937   6.580   3.352 -0.2867 -0.0769 -0.4121
18487TIP3    H176952   4.842   6.570   3.360 -0.2880 -1.4617 -1.6700
18487TIP3    H276953   4.963   6.630   3.429 -2.1380  1.0658 -0.4672
18488TIP3   OH276954   1.621   1.941   1.055  0.5751 -0.0690 -0.0533
18488TIP3    H176955   1.703   1.918   1.011  0.3369  0.6560 -0.9132
18488TIP3    H276956   1.566   1.864   1.043  0.2286  0.3972 -1.7854
18489TIP3   OH276957   2.083   6.477  15.480 -0.2135  0.1986  0.1320
18489TIP3    H176958   2.144   6.464  15.407 -1.0526  0.0903 -0.5610
18489TIP3    H276959   2.068   6.389  15.515 -0.2595  0.1813  0.0681
18490TIP3   OH276960   5.431   3.653  13.906 -0.8090  0.2894 -0.6730
18490TIP3    H176961   5.521   3.623  13.896 -0.9616 -0.9030  1.0637
18490TIP3    H276962   5.438   3.748  13.910  0.1660  0.3139 -2.2096
18491TIP3   OH276963   4.125   6.048   4.918  0.2606 -0.4712  0.0401
18491TIP3    H176964   4.106   5.998   4.998 -2.3679 -1.1298 -0.8961
18491TIP3    H276965   4.118   5.984   4.848 -1.9785  0.9035 -1.0860
18492TIP3   OH276966   1.861   1.241   1.982  0.3928  0.6513 -0.4721
18492TIP3    H176967   1.866   1.146   1.975  2.2975  0.3627  2.6598
18492TIP3    H276968   1.940   1.272   1.938  1.3821  0.4766  1.1050
18493TIP3   OH276969   6.749   4.886   5.617 -0.4493 -0.4143  0.0273
18493TIP3    H176970   6.702   4.926   5.690 -1.9508  1.3732 -1.7785
18493TIP3    H276971   6.841   4.902   5.635 -0.8867  3.6259 -0.2536
18494TIP3   OH276972   1.380   0.679  12.155 -0.3072  0.0384  0.7468
18494TIP3    H176973   1.403   0.594  12.193 -0.4610 -1.9077 -3.0025
18494TIP3    H276974   1.286   0.674  12.139 -0.3926  1.1018  0.8264
18495TIP3   OH276975   4.705   4.717  11.764 -0.3362 -0.7925 -0.0507
18495TIP3    H176976   4.713   4.670  11.681 -0.4211 -0.0281 -0.4995
18495TIP3    H276977   4.757   4.666  11.825 -2.4919 -2.9636  0.1469
18496TIP3   OH276978   1.180   3.799  16.900 -0.1903 -0.0929 -0.0463
18496TIP3    H176979   1.254   3.781  16.958 -1.4124 -3.7603  0.6396
18496TIP3    H276980   1.219   3.840  16.823  2.2742 -0.2514  1.0343
18497TIP3   OH276981   1.357   2.694  16.407 -0.5305 -0.0846  0.1029
18497TIP3    H176982   1.280   2.741  16.438 -0.6514  0.8825 -1.5821
18497TIP3    H276983   1.429   2.756  16.416  0.2281 -1.1591  2.1835
18498TIP3   OH276984   5.905   3.699  11.904  0.2466 -0.0930  0.5490
18498TIP3    H176985   5.889   3.773  11.846 -1.1752 -0.7571  0.0512
18498TIP3    H276986   5.962   3.641  11.854 -2.5672 -1.6282 -1.1159
18499TIP3   OH276987   2.391   1.563   0.850  0.7303 -0.7810  0.4153
18499TIP3    H176988   2.377   1.611   0.931  1.7931  1.8928 -0.8648
18499TIP3    H276989   2.329   1.602   0.788 -0.4737 -3.1517 -0.0224
18500TIP3   OH276990   4.497   2.938   5.510 -0.0549 -0.8172  0.1465
18500TIP3    H176991   4.413   2.940   5.555 -0.0122  1.5286  0.2494
18500TIP3    H276992   4.560   2.912   5.577 -0.0449  2.2654  1.4587
18501TIP3   OH276993   3.694   1.448  13.766  0.1331  1.0253  0.0136
18501TIP3    H176994   3.668   1.363  13.801  0.9375  1.4553  1.7875
18501TIP3    H276995   3.711   1.432  13.673  0.6510 -0.8501  0.3935
18502TIP3   OH276996   2.382   6.533  16.429 -0.3195  0.4592 -0.2629
18502TIP3    H176997   2.408   6.589  16.502  0.3792  0.7532 -0.7246
18502TIP3    H276998   2.297   6.567  16.402 -1.6589 -1.0204  1.7829
18503TIP3   OH276999   2.633   0.602   4.325  0.4770 -0.2211 -0.1664
18503TIP3    H177000   2.642   0.605   4.229  2.4318  3.4911 -0.0660
18503TIP3    H277001   2.686   0.528   4.352 -0.6305 -1.7375 -1.9363
18504TIP3   OH277002   0.113   5.261  17.246  0.3281  0.6249 -0.5096
18504TIP3    H177003   0.059   5.339  17.231 -1.6703 -0.4559  0.5561
18504TIP3    H277004   0.145   5.271  17.336  0.5718  0.5227 -0.5868
18505TIP3   OH277005   5.432   2.328  14.204 -0.1499 -0.6638  0.4244
18505TIP3    H177006   5.516   2.352  14.163  0.6150 -0.9096  1.8101
18505TIP3    H277007   5.448   2.244  14.246 -1.6102 -1.5831 -0.7238
18506TIP3   OH277008   6.234   6.356   5.361  0.2380 -0.4180  0.0620
18506TIP3    H177009   6.219   6.266   5.331  1.6316 -1.2445  1.6410
18506TIP3    H277010   6.248   6.406   5.281  2.5808 -2.2685 -0.7895
18507TIP3   OH277011   0.501   3.034   5.436  0.2957  0.1938  0.0234
18507TIP3    H177012   0.430   2.970   5.430  0.6869 -0.2587  0.0885
18507TIP3    H277013   0.576   2.989   5.396  0.7521  0.3509  0.6944
18508TIP3   OH277014   4.529   4.437   2.907  0.3553 -0.3402  0.2033
18508TIP3    H177015   4.508   4.445   2.814  0.7390 -1.0359  0.0489
18508TIP3    H277016   4.462   4.376   2.941  0.6565 -0.6642  0.2225
18509TIP3   OH277017   4.982   0.833   3.715  0.4277  0.2948 -0.6197
18509TIP3    H177018   5.075   0.824   3.736  0.0429  1.5664  2.1098
18509TIP3    H277019   4.980   0.889   3.637  1.9518  1.2815 -0.0019
18510TIP3   OH277020   4.170   2.976  15.957  0.4123  0.3757  0.5427
18510TIP3    H177021   4.252   2.931  15.935  0.2596  0.4760 -0.2609
18510TIP3    H277022   4.139   2.930  16.035  1.2326  0.3394  0.8602
18511TIP3   OH277023   1.219   0.427  14.430  0.4185  0.3793  0.5236
18511TIP3    H177024   1.198   0.403  14.340 -3.2616  1.5692  0.8676
18511TIP3    H277025   1.259   0.349  14.468 -0.3945 -1.0605 -1.4195
18512TIP3   OH277026   6.619   5.185  10.848  0.0450  0.2068 -0.0101
18512TIP3    H177027   6.584   5.207  10.762  0.8354 -0.4208 -0.5083
18512TIP3    H277028   6.692   5.127  10.830  0.7599  0.7439  1.0561
18513TIP3   OH277029   4.303   2.488  15.748 -0.0311  0.0920 -0.1634
18513TIP3    H177030   4.330   2.515  15.835 -2.2002 -0.4404  0.7409
18513TIP3    H277031   4.326   2.561  15.691  0.4247  0.8995  1.0433
18514TIP3   OH277032   6.578   6.504  14.472 -0.0695 -0.8082  0.4576
18514TIP3    H177033   6.596   6.507  14.378  0.6582 -1.9981  0.5408
18514TIP3    H277034   6.483   6.514  14.478 -0.2286 -1.5622 -0.4720
18515TIP3   OH277035   6.777   0.548  11.350  0.6123  0.5995  0.0349
18515TIP3    H177036   6.805   0.593  11.430 -1.3952  0.6370  0.7626
18515TIP3    H277037   6.819   0.462  11.356  2.8206  1.5682 -0.3570
18516TIP3   OH277038   5.549   5.004   0.186 -0.8011  0.2517  0.5598
18516TIP3    H177039   5.549   5.079   0.127 -0.9408 -0.6214 -0.5824
18516TIP3    H277040   5.490   4.941   0.145  0.3820 -1.0435  0.7518
18517TIP3   OH277041   0.618   3.420   3.006 -0.0088 -0.0186 -0.2316
18517TIP3    H177042   0.695   3.473   3.027  1.5203 -2.6529  1.3482
18517TIP3    H277043   0.627   3.401   2.912  0.1851  1.2444 -0.4893
18518TIP3   OH277044   5.781   0.277   0.936  0.8589  0.3675  0.1095
18518TIP3    H177045   5.773   0.316   1.023  1.8434 -0.4053  0.5633
18518TIP3    H277046   5.733   0.337   0.879 -1.3803 -0.0490  1.4193
18519TIP3   OH277047   3.125   4.391  13.051  0.6725 -0.2968  0.3170
18519TIP3    H177048   3.159   4.385  12.961 -1.0925  1.0593 -0.4994
18519TIP3    H277049   3.030   4.384  13.041  0.3931  0.6184  2.0043
18520TIP3   OH277050   6.290   0.622  13.754  0.2079 -0.1849  0.0661
18520TIP3    H177051   6.297   0.570  13.674 -1.2920 -0.4257  0.0549
18520TIP3    H277052   6.379   0.629  13.787  0.7003 -0.9934 -1.0537
18521TIP3   OH277053   0.371   5.870   1.019  0.3065 -0.2722  0.2204
18521TIP3    H177054   0.420   5.945   0.985  1.3208 -0.5278  1.0667
18521TIP3    H277055   0.395   5.797   0.962 -1.0646  0.1049 -0.9153
18522TIP3   OH277056   1.762   3.596   3.405 -0.3056  0.3313 -0.1186
18522TIP3    H177057   1.808   3.538   3.345 -1.7109 -0.1599 -0.7778
18522TIP3    H277058   1.810   3.679   3.401  0.6057 -0.2073 -0.6206
18523TIP3   OH277059   4.685   4.794  12.713  0.1299 -0.1893 -0.0956
18523TIP3    H177060   4.620   4.827  12.775 -1.2133 -0.4894 -1.2893
18523TIP3    H277061   4.638   4.727  12.663  1.3211 -0.2822 -1.1232
18524TIP3   OH277062   2.593   3.197   0.761  0.3405 -0.8010  0.6016
18524TIP3    H177063   2.587   3.101   0.763 -2.5323 -0.6909  1.5650
18524TIP3    H277064   2.534   3.223   0.690  3.0741  0.2813 -1.4587
18525TIP3   OH277065   4.511   6.669  15.232  0.0849 -0.3234  0.3251
18525TIP3    H177066   4.468   6.586  15.212 -0.4659 -0.2445  1.1428
18525TIP3    H277067   4.603   6.646  15.245  0.2001 -0.5868 -0.7957
18526TIP3   OH277068   1.023   4.934  16.772  0.1973  0.0240 -0.3039
18526TIP3    H177069   1.075   4.884  16.709  0.7337 -1.1253  0.9701
18526TIP3    H277070   1.074   4.928  16.853 -1.5438 -0.5048  0.8125
18527TIP3   OH277071   4.688   4.161   3.975 -0.3928  0.3757 -0.6097
18527TIP3    H177072   4.767   4.212   3.994  0.0516 -0.2935 -0.6401
18527TIP3    H277073   4.662   4.190   3.887 -0.3576  0.8092 -0.4815
18528TIP3   OH277074   6.130   4.449   5.872 -0.4079 -0.0812  0.3729
18528TIP3    H177075   6.188   4.412   5.806  1.5208  0.9351  1.4096
18528TIP3    H277076   6.048   4.400   5.862  0.2669 -0.8882 -1.8086
18529TIP3   OH277077   6.815   1.547  16.886  0.0405  0.1936 -0.0813
18529TIP3    H177078   6.885   1.565  16.822 -1.2140 -3.4300 -2.8491
18529TIP3    H277079   6.861   1.533  16.968  2.5531 -1.1179 -1.5805
18530TIP3   OH277080   0.301   3.448   4.545  0.0723 -0.2390  0.0990
18530TIP3    H177081   0.363   3.513   4.513  0.2931 -0.4917  0.0060
18530TIP3    H277082   0.216   3.475   4.511 -0.2235  1.2432  1.8574
18531TIP3   OH277083   1.259   5.991   5.278  0.2565 -0.2583  0.6496
18531TIP3    H177084   1.264   6.079   5.240 -0.1313 -0.2895  0.5209
18531TIP3    H277085   1.345   5.953   5.261  0.5191  0.1918  0.9463
18532TIP3   OH277086   6.579   3.260   0.831 -0.0023 -0.0236 -0.9032
18532TIP3    H177087   6.581   3.164   0.832  0.5389 -0.0242 -1.1956
18532TIP3    H277088   6.495   3.283   0.870 -0.4197 -0.6333 -1.4238
18533TIP3   OH277089   1.955   5.223   5.362  0.2242  0.2031  0.0428
18533TIP3    H177090   1.922   5.171   5.435  0.8626 -1.3719 -0.7457
18533TIP3    H277091   1.879   5.272   5.331 -0.4291 -0.3612  0.7265
18534TIP3   OH277092   6.282   1.891  15.827  0.2917 -0.4839 -0.5018
18534TIP3    H177093   6.224   1.966  15.810 -0.6135 -1.1629 -0.4611
18534TIP3    H277094   6.353   1.900  15.763 -0.6976 -0.5190 -1.6231
18535TIP3   OH277095   3.177   4.579  13.445 -0.8451 -0.4665 -0.3444
18535TIP3    H177096   3.209   4.530  13.369 -1.1525  0.4710 -1.0931
18535TIP3    H277097   3.248   4.641  13.464 -1.0833 -0.1944 -0.3406
18536TIP3   OH277098   6.815   4.904  17.033  0.8173  0.1057  0.0294
18536TIP3    H177099   6.803   4.962  17.108  2.6344  1.9762 -1.0490
18536TIP3    H277100   6.800   4.960  16.957 -0.7094 -1.6798 -1.0676
18537TIP3   OH277101   0.377   3.642  16.793 -0.8487 -0.0523  0.0777
18537TIP3    H177102   0.429   3.721  16.776 -0.6504 -0.3175 -0.6094
18537TIP3    H277103   0.341   3.655  16.880 -1.6380  1.2656 -0.4018
18538TIP3   OH277104   3.159   5.405  17.237  0.3397 -0.5377  0.0622
18538TIP3    H177105   3.133   5.459  17.163 -0.8408  0.4540  1.1618
18538TIP3    H277106   3.188   5.323  17.197 -0.0348  0.0569 -1.5068
18539TIP3   OH277107   4.573   5.568  12.304  0.0789  0.2592  0.5422
18539TIP3    H177108   4.550   5.500  12.242  0.5597  1.3756 -0.9111
18539TIP3    H277109   4.626   5.523  12.370  1.2170 -0.5912 -0.9028
18540TIP3   OH277110   2.278   1.144   1.570 -0.1226 -0.0812  0.1818
18540TIP3    H177111   2.324   1.063   1.592 -1.0148 -0.0550  2.4331
18540TIP3    H277112   2.342   1.196   1.522  1.6648 -0.7472  1.7000
18541TIP3   OH277113   4.314   0.253   3.865  0.1099 -0.2997  0.4697
18541TIP3    H177114   4.289   0.239   3.956  0.7741 -0.7068  0.5905
18541TIP3    H277115   4.408   0.236   3.862  0.7976  2.9946  0.3842
18542TIP3   OH277116   0.506   6.809   5.002  0.2802 -0.5284 -0.1783
18542TIP3    H177117   0.544   6.870   5.066  0.3882 -0.6542 -0.1224
18542TIP3    H277118   0.479   6.733   5.054  0.0581 -0.4886 -0.2343
18543TIP3   OH277119   2.280   3.752  13.980  0.5307 -0.2540 -0.4774
18543TIP3    H177120   2.326   3.674  13.949  1.9012  0.0993  0.5905
18543TIP3    H277121   2.198   3.719  14.016  2.1470 -1.6145  2.2956
18544TIP3   OH277122   0.028   2.003   0.776  0.5333  0.3486  0.6374
18544TIP3    H177123   0.047   1.910   0.759  1.7598  0.3063  1.9998
18544TIP3    H277124   0.095   2.051   0.727  0.8834  0.4274  1.1782
18545TIP3   OH277125   0.754   0.187  12.752  0.3010 -0.5413 -0.5878
18545TIP3    H177126   0.734   0.240  12.675 -1.8443 -0.7123 -0.2182
18545TIP3    H277127   0.777   0.101  12.716 -1.8858 -0.9938 -1.0914
18546TIP3   OH277128   6.201   6.568   3.246  0.7757 -0.5236 -0.3154
18546TIP3    H177129   6.185   6.473   3.243 -1.3987 -0.3121  1.7910
18546TIP3    H277130   6.130   6.605   3.194 -0.4326  0.0538  1.6640
18547TIP3   OH277131   0.488   3.704   3.799 -0.3846 -0.0488 -0.2025
18547TIP3    H177132   0.493   3.612   3.774  4.5427 -0.5511  1.6016
18547TIP3    H277133   0.446   3.704   3.885 -1.5462 -0.3340 -0.7379
18548TIP3   OH277134   6.682   0.707  15.534  0.0869  0.3514 -0.7985
18548TIP3    H177135   6.764   0.691  15.581 -0.7391  0.5116  0.7982
18548TIP3    H277136   6.639   0.776  15.585 -1.1529  0.0970 -1.4544
18549TIP3   OH277137   5.888   0.150   2.834  0.3142  0.6039 -0.5528
18549TIP3    H177138   5.795   0.136   2.855  1.1000 -0.6959  2.7116
18549TIP3    H277139   5.913   0.226   2.887  1.2520  0.6103 -0.9818
18550TIP3   OH277140   6.325   6.632  13.326 -0.0698  0.4304 -0.0564
18550TIP3    H177141   6.242   6.679  13.316 -1.2643 -1.0744  1.7901
18550TIP3    H277142   6.357   6.658  13.412 -0.0669 -1.0351  0.4155
18551TIP3   OH277143   3.417   2.198  11.488 -0.0921  0.4152 -0.2891
18551TIP3    H177144   3.494   2.147  11.461  0.8473  0.7758  1.5727
18551TIP3    H277145   3.450   2.287  11.502 -1.0439  0.7941 -0.3424
18552TIP3   OH277146   3.746   0.802  11.671  0.1481  0.0605 -0.4443
18552TIP3    H177147   3.822   0.748  11.691  1.0528  1.1422 -0.8640
18552TIP3    H277148   3.704   0.818  11.756 -0.3444 -1.5677 -0.3570
18553TIP3   OH277149   6.413   2.428  14.905 -0.2846  1.0568 -0.1628
18553TIP3    H177150   6.470   2.422  14.982  1.0410  1.6243 -1.0548
18553TIP3    H277151   6.335   2.378  14.929  0.3374  0.7324  1.3249
18554TIP3   OH277152   4.319   1.877  12.302  0.0024 -0.6498 -1.0838
18554TIP3    H177153   4.240   1.841  12.341  0.8578 -1.8411 -0.3676
18554TIP3    H277154   4.316   1.970  12.321  0.0300 -1.0742  1.2564
18555TIP3   OH277155   2.924   0.421  10.966 -0.9189 -0.0856 -0.0601
18555TIP3    H177156   2.894   0.390  10.881 -0.7080 -3.2336  0.8958
18555TIP3    H277157   3.006   0.467  10.947 -1.4127  0.2103 -1.6340
18556TIP3   OH277158   3.286   0.708   4.186  0.5122 -0.6114  0.2012
18556TIP3    H177159   3.274   0.784   4.242  1.8173 -1.1941  1.3416
18556TIP3    H277160   3.211   0.708   4.127  1.3240  2.5262 -1.0146
18557TIP3   OH277161   6.361   6.030   0.052 -0.2214 -0.5631  0.0848
18557TIP3    H177162   6.419   6.050  -0.022  0.8315 -2.5468  0.2903
18557TIP3    H277163   6.417   5.983   0.114 -1.7041 -1.2689  0.9498
18558TIP3   OH277164   4.017   1.347  12.964 -0.2951  0.1254  0.0592
18558TIP3    H177165   4.029   1.265  13.011 -0.9711 -0.0554 -0.0810
18558TIP3    H277166   3.986   1.408  13.032  1.2884  0.5808  0.4130
18559TIP3   OH277167   2.971   1.203  16.591 -0.1148 -0.8842  0.3197
18559TIP3    H177168   2.877   1.222  16.595  0.0156 -0.3981  1.6106
18559TIP3    H277169   2.997   1.230  16.504 -0.9735 -0.0058  0.3175
18560TIP3   OH277170   4.896   0.961   1.812 -0.3861 -0.0801 -0.3150
18560TIP3    H177171   4.954   0.888   1.834  0.0545  0.2140 -0.4955
18560TIP3    H277172   4.828   0.958   1.879  0.0065 -0.2453  0.0806
18561TIP3   OH277173   6.139   1.829  16.213 -0.0266  0.7731 -0.1940
18561TIP3    H177174   6.110   1.898  16.272 -1.1873  0.2757 -0.1563
18561TIP3    H277175   6.093   1.847  16.131 -0.0272  0.2831 -0.3028
18562TIP3   OH277176   4.613   0.667  10.560 -0.0866  0.3758  0.3070
18562TIP3    H177177   4.633   0.574  10.570 -0.1643  0.3508  0.2326
18562TIP3    H277178   4.545   0.683  10.626  1.8093  1.0000  2.2249
18563TIP3   OH277179   2.303   5.880   1.631  0.4096 -0.5512  0.2508
18563TIP3    H177180   2.344   5.846   1.711 -1.4622 -0.3569  1.3574
18563TIP3    H277181   2.237   5.942   1.662 -0.0865 -0.1593 -1.4731
18564TIP3   OH277182   3.905   2.395   3.258  0.1298 -0.6374 -0.0647
18564TIP3    H177183   3.874   2.465   3.200 -1.1134  0.9659  2.3133
18564TIP3    H277184   3.848   2.321   3.239 -0.2273 -0.1578 -0.9016
18565TIP3   OH277185   6.300   5.458   1.540  0.6594 -0.4729  0.2364
18565TIP3    H177186   6.237   5.386   1.541 -0.7343  0.6627 -0.9553
18565TIP3    H277187   6.293   5.498   1.626 -0.1445 -0.4641  0.1730
18566TIP3   OH277188   6.693   0.693  12.198  0.0120  0.5769 -0.3634
18566TIP3    H177189   6.789   0.691  12.204 -0.0095 -1.5892  0.1895
18566TIP3    H277190   6.675   0.723  12.108  1.1199  2.6201  0.0329
18567TIP3   OH277191   5.522   4.145  12.867 -0.3263  0.5319  0.9328
18567TIP3    H177192   5.611   4.123  12.840 -0.0915  3.0032 -0.5748
18567TIP3    H277193   5.472   4.064  12.853  1.4127 -0.5401  0.6377
18568TIP3   OH277194   2.651   0.546  11.621 -0.4063 -0.4025 -0.3013
18568TIP3    H177195   2.606   0.629  11.638 -0.1431 -0.5868  1.4874
18568TIP3    H277196   2.585   0.492  11.576 -0.4049  0.9146 -1.9912
18569TIP3   OH277197   2.637   4.819   0.770  0.4293  0.2862  0.1562
18569TIP3    H177198   2.693   4.897   0.769 -0.1936  0.7999  1.7283
18569TIP3    H277199   2.673   4.764   0.839  1.2457 -1.1677 -1.3549
18570TIP3   OH277200   3.766   1.758   5.661  0.7203 -0.2625  0.6001
18570TIP3    H177201   3.862   1.763   5.660  0.8753 -2.3353 -1.3974
18570TIP3    H277202   3.741   1.753   5.569 -1.3297  0.0074  1.0937
18571TIP3   OH277203   0.464   0.067   4.221  0.0611  0.2791  0.3105
18571TIP3    H177204   0.466   0.116   4.303 -0.2233 -0.2282  0.6286
18571TIP3    H277205   0.547   0.088   4.178  0.0759  0.7887  0.5856
18572TIP3   OH277206   0.236   2.559   4.012 -0.3704 -0.1896 -0.1912
18572TIP3    H177207   0.200   2.581   4.099 -1.1017  1.8161 -0.9419
18572TIP3    H277208   0.218   2.636   3.959 -0.5260 -1.6262 -2.3342
18573TIP3   OH277209   1.410   4.324   2.404  0.3819 -0.1449  0.1599
18573TIP3    H177210   1.340   4.364   2.353 -0.5998  0.7166  2.0980
18573TIP3    H277211   1.490   4.362   2.369 -0.2254  0.1459 -0.9619
18574TIP3   OH277212   0.747   0.825   1.975 -0.1826  0.1649  0.0537
18574TIP3    H177213   0.734   0.813   1.881 -0.1282  2.0734 -0.2527
18574TIP3    H277214   0.833   0.785   1.993  0.3704  0.8416 -0.9688
18575TIP3   OH277215   5.609   2.532   5.154 -0.2960  0.0608 -0.1953
18575TIP3    H177216   5.665   2.497   5.223 -0.0078  0.0899 -0.4145
18575TIP3    H277217   5.520   2.507   5.180 -0.1095 -0.7195 -0.2725
18576TIP3   OH277218   4.902   0.852  12.797 -0.0181  0.0094  0.0634
18576TIP3    H177219   4.819   0.850  12.844 -0.5524 -0.0132 -0.8504
18576TIP3    H277220   4.932   0.761  12.797 -0.0802 -0.0111  0.2436
18577TIP3   OH277221   0.027   4.226  16.008  0.6918 -0.5003 -0.8144
18577TIP3    H177222   0.059   4.146  16.049  2.2436  0.7862  0.6115
18577TIP3    H277223   0.091   4.244  15.939  1.6514  0.6858  0.3478
18578TIP3   OH277224   0.732   4.827  13.342  0.3293 -0.1455  0.5961
18578TIP3    H177225   0.792   4.753  13.355 -0.3596 -0.6591  0.9468
18578TIP3    H277226   0.789   4.904  13.342  1.4638 -0.8210 -2.7754
18579TIP3   OH277227   2.057   4.727  12.014 -0.2635 -0.4737 -0.6391
18579TIP3    H177228   1.983   4.670  11.995  0.9369 -1.9061 -1.2206
18579TIP3    H277229   2.115   4.717  11.939  1.1796 -0.5072  0.4263
18580TIP3   OH277230   6.815   4.628  10.741  0.5876  0.7234 -0.5033
18580TIP3    H177231   6.796   4.717  10.712  0.0651  0.2337 -1.7545
18580TIP3    H277232   6.909   4.629  10.760  0.6999  1.4126 -1.0395
18581TIP3   OH277233   2.804   5.666  12.127  0.9952 -0.1650 -0.2995
18581TIP3    H177234   2.795   5.673  12.032  0.3704  0.7298 -0.1904
18581TIP3    H277235   2.832   5.753  12.155  0.7655 -0.3019  0.3743
18582TIP3   OH277236   0.722   1.505   4.977 -0.2254  0.3398  0.1076
18582TIP3    H177237   0.678   1.540   5.054 -0.3254  0.5648 -0.0512
18582TIP3    H277238   0.660   1.517   4.905  0.3639  1.3224 -0.2619
18583TIP3   OH277239   5.060   5.789   6.322  0.2016 -0.2948  0.2939
18583TIP3    H177240   5.114   5.710   6.321 -0.6807 -0.9162 -0.3499
18583TIP3    H277241   5.121   5.860   6.302  0.9146 -0.8806  0.3510
18584TIP3   OH277242   5.906   5.574   1.627 -0.1736  0.4883 -0.1128
18584TIP3    H177243   5.846   5.507   1.595  0.3475  0.2778 -0.6603
18584TIP3    H277244   5.943   5.536   1.707  0.0621  0.1505 -0.3783
18585TIP3   OH277245   0.172   6.495  11.432  0.1236  0.0108 -0.4404
18585TIP3    H177246   0.262   6.464  11.430  0.1488 -0.0587  0.8178
18585TIP3    H277247   0.160   6.541  11.349  1.2384 -0.1758 -0.7184
18586TIP3   OH277248   6.193   5.967  16.227 -0.2253  0.5374 -0.0689
18586TIP3    H177249   6.249   6.032  16.184 -0.0291  0.8449  0.6283
18586TIP3    H277250   6.244   5.887  16.227  0.7472  1.1017  1.6172
18587TIP3   OH277251   5.056   6.138   1.305 -0.0476  0.1932 -0.0432
18587TIP3    H177252   5.146   6.163   1.325 -0.3081  0.6312  0.6212
18587TIP3    H277253   5.017   6.118   1.390 -0.2724 -1.0790 -0.4339
18588TIP3   OH277254   6.092   6.640  11.267 -0.2658  0.8448  0.0070
18588TIP3    H177255   6.143   6.618  11.345  0.5332  0.5009 -0.5918
18588TIP3    H277256   6.069   6.732  11.279 -0.6723  0.6314  0.9257
18589TIP3   OH277257   0.751   2.000  11.801 -0.3319  0.2348 -0.3823
18589TIP3    H177258   0.841   1.975  11.821 -0.1633  1.1833  0.1161
18589TIP3    H277259   0.714   1.923  11.757  0.1057 -0.9262  1.1931
18590TIP3   OH277260   0.298   3.536  12.847  0.4854 -0.7715 -0.5182
18590TIP3    H177261   0.269   3.475  12.914  0.6999 -1.5854 -1.1585
18590TIP3    H277262   0.222   3.550  12.792  0.3888 -0.3130 -0.2832
18591TIP3   OH277263   6.706   2.006   3.314 -0.2501 -0.0525 -0.1121
18591TIP3    H177264   6.785   2.056   3.336  0.1711 -1.2054  1.1510
18591TIP3    H277265   6.701   2.010   3.218  1.7484 -0.5220 -0.2816
18592TIP3   OH277266   3.444   1.507  13.305 -0.2717  0.1245 -0.2806
18592TIP3    H177267   3.437   1.582  13.365  1.9108  1.9204 -2.0967
18592TIP3    H277268   3.497   1.443  13.352  0.5167  1.0573  0.1382
18593TIP3   OH277269   1.440   3.117  14.154 -0.4624  0.4264 -0.5498
18593TIP3    H177270   1.483   3.116  14.239  0.8246 -0.4200 -1.1746
18593TIP3    H277271   1.385   3.039  14.154 -0.2785  0.2959 -0.5791
18594TIP3   OH277272   6.636   6.261  11.931  1.2591 -0.7798  0.5205
18594TIP3    H177273   6.609   6.255  11.840  1.5262 -0.3838  0.4123
18594TIP3    H277274   6.558   6.239  11.981  0.9296 -0.3457  0.2021
18595TIP3   OH277275   2.328   0.964   4.803 -0.8001 -0.4549  0.0369
18595TIP3    H177276   2.259   1.006   4.855 -2.3398  0.6961 -2.7347
18595TIP3    H277277   2.334   0.876   4.838  0.0329  0.8678  3.7382
18596TIP3   OH277278   5.587   3.140  14.762  0.2470  0.1473 -0.5525
18596TIP3    H177279   5.501   3.141  14.720  0.3993  0.4616 -0.8631
18596TIP3    H277280   5.599   3.050  14.791 -0.1184  0.0664 -0.6495
18597TIP3   OH277281   4.552   3.884  11.781 -0.3696 -0.1996 -0.9232
18597TIP3    H177282   4.507   3.834  11.849  1.8077 -1.6605 -0.4443
18597TIP3    H277283   4.535   3.836  11.700  0.1485 -0.6239 -0.7797
18598TIP3   OH277284   1.006   1.424   1.162 -0.2751 -0.3167  0.1009
18598TIP3    H177285   0.954   1.505   1.166  0.6475  0.2613  1.6572
18598TIP3    H277286   0.988   1.381   1.246  2.4669  0.4275  1.1883
18599TIP3   OH277287   0.731   4.721  15.043  0.2069 -0.0375  0.0014
18599TIP3    H177288   0.802   4.738  14.981  0.6761  1.1812  0.8570
18599TIP3    H277289   0.661   4.682  14.989  1.2452 -0.6214 -0.9663
18600TIP3   OH277290   3.489   6.814  12.529 -0.4162 -0.3358 -0.3705
18600TIP3    H177291   3.419   6.774  12.476 -0.3022  0.4706 -1.1536
18600TIP3    H277292   3.568   6.768  12.502 -0.3475  0.1261 -0.9634
18601TIP3   OH277293   0.875   5.607  13.270  0.1947  0.1628 -0.0330
18601TIP3    H177294   0.786   5.580  13.247  0.7396 -1.3452 -0.5322
18601TIP3    H277295   0.915   5.632  13.187  0.0829  1.3976  0.2670
18602TIP3   OH277296   5.517   4.343   4.707 -0.2798  0.4509  0.2321
18602TIP3    H177297   5.559   4.257   4.713 -0.1630  0.5095  0.2655
18602TIP3    H277298   5.565   4.398   4.770  0.0446  0.6997 -0.2264
18603TIP3   OH277299   0.195   1.597  12.935  0.3360 -0.3256  0.2272
18603TIP3    H177300   0.110   1.639  12.944  0.7056  0.7937 -1.1687
18603TIP3    H277301   0.246   1.629  13.010  0.1710  0.6670 -0.0711
18604TIP3   OH277302   6.415   3.592  11.690  0.2215  0.1846 -0.3014
18604TIP3    H177303   6.362   3.520  11.655 -1.0266  0.9185  0.0297
18604TIP3    H277304   6.439   3.644  11.613 -1.9466  1.4144 -0.2228
18605TIP3   OH277305   4.868   2.932   1.360  0.3178 -0.3671 -0.0209
18605TIP3    H177306   4.869   2.852   1.307  1.2655 -1.3030  1.3215
18605TIP3    H277307   4.945   2.981   1.330  0.9746 -0.9936  0.5779
18606TIP3   OH277308   2.687   0.857   0.035  0.2343 -0.0907 -0.1717
18606TIP3    H177309   2.628   0.872  -0.039  0.2157  1.7651  0.1713
18606TIP3    H277310   2.732   0.940   0.047  1.2485 -0.7790  1.0455
18607TIP3   OH277311   6.565   2.281  12.202 -0.6312 -0.8689  0.3538
18607TIP3    H177312   6.489   2.338  12.188 -0.0718  0.4676  2.3192
18607TIP3    H277313   6.639   2.331  12.169 -0.2139 -0.6589  1.5447
18608TIP3   OH277314   2.586   6.387   0.830  0.0128 -0.0843 -0.0750
18608TIP3    H177315   2.515   6.428   0.879  0.1009  0.0727 -0.0807
18608TIP3    H277316   2.564   6.293   0.831 -0.7190  0.0614 -0.9180
18609TIP3   OH277317   1.260   1.830   0.846 -0.7969 -0.3229  0.0086
18609TIP3    H177318   1.318   1.853   0.918 -1.2117 -1.5443  0.7532
18609TIP3    H277319   1.183   1.885   0.859 -0.4559  0.1931 -0.1060
18610TIP3   OH277320   3.227   1.480   0.088 -0.1087  0.7246  0.3075
18610TIP3    H177321   3.177   1.412   0.132 -0.6605  0.4076 -0.7695
18610TIP3    H277322   3.308   1.487   0.139  0.2832 -1.2564  0.0520
18611TIP3   OH277323   5.151   0.447   0.628 -0.0343 -0.1800 -0.1028
18611TIP3    H177324   5.194   0.365   0.651  0.0555 -0.3138 -0.7328
18611TIP3    H277325   5.174   0.507   0.700 -0.9805 -0.9976  0.9117
18612TIP3   OH277326   1.136   0.580   5.126  0.1469 -0.0565  0.2899
18612TIP3    H177327   1.183   0.627   5.195 -0.8364  0.4911  0.6009
18612TIP3    H277328   1.166   0.622   5.045  2.3393 -1.5948  0.2219
18613TIP3   OH277329   2.921   4.982  12.819 -0.1430 -0.8930  0.2057
18613TIP3    H177330   2.920   4.992  12.914 -0.9600 -1.9331  0.3316
18613TIP3    H277331   2.916   4.887  12.805  1.0972 -0.8230 -0.8747
18614TIP3   OH277332   1.348   5.198   3.002 -0.4273  0.4653  0.2328
18614TIP3    H177333   1.278   5.133   3.009  1.0898 -1.3690 -0.7235
18614TIP3    H277334   1.428   5.149   3.020  0.6483  2.5634  1.5978
18615TIP3   OH277335   5.783   1.194  16.916  0.1022  0.1019  0.1312
18615TIP3    H177336   5.733   1.145  16.980 -0.3884  0.6666  0.1938
18615TIP3    H277337   5.727   1.197  16.838  0.1409  0.5181  0.1145
18616TIP3   OH277338   6.646   1.936   3.050 -0.4857 -0.3609 -0.1284
18616TIP3    H177339   6.701   1.891   2.986 -0.4770 -3.7840  2.0671
18616TIP3    H277340   6.561   1.892   3.045 -1.3624  1.2054  0.2888
18617TIP3   OH277341   3.430   0.579  15.994 -0.0556 -0.2501  0.1898
18617TIP3    H177342   3.362   0.532  15.946  1.5716 -1.5553 -0.9628
18617TIP3    H277343   3.388   0.605  16.076 -2.2058 -0.1112 -0.8966
18618TIP3   OH277344   3.786   0.437  11.911  0.2329  0.6670 -0.8197
18618TIP3    H177345   3.698   0.462  11.938  0.7144  1.3304  0.2421
18618TIP3    H277346   3.776   0.352  11.870 -0.7759  0.2561  0.2220
18619TIP3   OH277347   0.003   4.918  14.954 -0.3336 -0.0312  0.1971
18619TIP3    H177348   0.017   4.959  15.039 -1.3429 -0.5758  0.6416
18619TIP3    H277349   0.083   4.868  14.937  0.5653  1.4079  0.0336
18620TIP3   OH277350   1.143   3.987  13.342  0.1957  0.1881  0.9374
18620TIP3    H177351   1.095   3.904  13.343  1.0945 -0.3547  0.7241
18620TIP3    H277352   1.097   4.042  13.406 -1.3542  0.0913 -0.0472
18621TIP3   OH277353   6.248   1.074  13.679 -0.5297 -0.1406 -0.7837
18621TIP3    H177354   6.281   1.125  13.753  0.2110  0.4463 -1.4989
18621TIP3    H277355   6.257   0.983  13.706 -0.0264  0.0619 -0.2589
18622TIP3   OH277356   0.497   3.130   4.126 -0.2412  0.0251 -0.1794
18622TIP3    H177357   0.459   3.149   4.040  1.5907 -1.8711 -1.5095
18622TIP3    H277358   0.473   3.039   4.143 -2.0737  0.8634  2.2422
18623TIP3   OH277359   6.059   1.185   1.554 -0.8660  0.0941  0.1161
18623TIP3    H177360   6.030   1.272   1.581 -1.2941 -0.0826  0.2372
18623TIP3    H277361   6.001   1.162   1.482 -3.2906 -1.6240  2.4443
18624TIP3   OH277362   1.002   1.442  17.085  0.2165  0.2713  0.1727
18624TIP3    H177363   1.055   1.521  17.098 -0.5343  0.4123  2.9588
18624TIP3    H277364   0.924   1.473  17.039 -0.2729  1.3106  1.6113
18625TIP3   OH277365   0.328   2.709  14.865 -0.1927  0.0051  0.3352
18625TIP3    H177366   0.411   2.672  14.837 -0.8654 -0.7050 -0.7966
18625TIP3    H277367   0.337   2.720  14.959 -0.0097 -3.3078  0.8320
18626TIP3   OH277368   1.436   5.889   3.195  0.5339  0.0233  0.3829
18626TIP3    H177369   1.352   5.851   3.221  1.0040 -0.8195  0.6767
18626TIP3    H277370   1.413   5.976   3.161 -0.9831 -1.6007 -3.2422
18627TIP3   OH277371   3.495   0.145   4.206  0.0220  0.0089  0.1259
18627TIP3    H177372   3.443   0.076   4.164 -0.5076  0.4244  0.0934
18627TIP3    H277373   3.585   0.122   4.186 -0.2304  0.5331 -1.8088
18628TIP3   OH277374   5.568   1.459   1.202  0.7386 -0.3579 -0.1458
18628TIP3    H177375   5.563   1.509   1.121 -0.2991  1.6003  1.0476
18628TIP3    H277376   5.656   1.423   1.202  0.6455 -0.7397 -2.2949
18629TIP3   OH277377   6.739   0.884   2.819 -0.2306 -0.1096  0.2426
18629TIP3    H177378   6.674   0.817   2.802 -1.1797  0.9150 -0.3154
18629TIP3    H277379   6.802   0.875   2.748  0.8156 -1.7221  1.2993
18630TIP3   OH277380   5.304   6.307   1.840 -0.1158  0.1933 -0.6989
18630TIP3    H177381   5.225   6.293   1.892 -0.1540  0.3764 -0.7060
18630TIP3    H277382   5.279   6.372   1.774  0.6194  1.9590  0.6703
18631TIP3   OH277383   0.831   5.975   5.614  0.6246 -0.2360  0.3154
18631TIP3    H177384   0.779   5.895   5.612  0.9719 -0.5162  1.5743
18631TIP3    H277385   0.840   6.000   5.523 -0.2645 -1.1248 -0.0390
18632TIP3   OH277386   2.736   3.828   0.684  0.3675  0.0279 -0.0363
18632TIP3    H177387   2.780   3.745   0.667 -0.0993 -0.4029  0.8218
18632TIP3    H277388   2.644   3.806   0.690  0.4265  0.2317  2.3363
18633TIP3   OH277389   5.285   1.471   5.204  0.6936 -0.5076 -0.2104
18633TIP3    H177390   5.373   1.500   5.177  0.6815  0.0354  0.3036
18633TIP3    H277391   5.286   1.376   5.191  0.9248 -0.3529 -1.4135
18634TIP3   OH277392   2.290   1.075   6.264 -0.2594  0.5434  0.0979
18634TIP3    H177393   2.203   1.092   6.300  0.0113 -0.5592  1.3491
18634TIP3    H277394   2.313   0.987   6.296  1.8251  1.2953  0.8407
18635TIP3   OH277395   6.385   2.789   2.627 -0.0138 -0.0955  0.8631
18635TIP3    H177396   6.354   2.720   2.685  1.9858 -2.2746 -0.4977
18635TIP3    H277397   6.421   2.743   2.551 -2.3428  2.5512 -2.1648
18636TIP3   OH277398   1.826   6.173  16.437  0.3763  0.0702  0.2042
18636TIP3    H177399   1.844   6.082  16.460 -0.2273  0.2500  1.4974
18636TIP3    H277400   1.734   6.174  16.412  0.8066  0.0406 -1.4781
18637TIP3   OH277401   5.817   0.526  13.629  0.6681  0.4894 -0.0942
18637TIP3    H177402   5.896   0.496  13.675  0.0313 -0.4820  0.4033
18637TIP3    H277403   5.825   0.490  13.541  0.7828  0.3887 -0.0422
18638TIP3   OH277404   4.659   2.226   2.931 -0.1041 -0.1171  0.1540
18638TIP3    H177405   4.712   2.202   3.008 -0.0043  0.8480  0.3945
18638TIP3    H277406   4.631   2.316   2.948 -0.5173 -0.0737 -0.7067
18639TIP3   OH277407   2.114   4.810  17.092 -0.6115  0.4970 -0.2356
18639TIP3    H177408   2.049   4.804  17.161 -0.5153  1.7574 -0.0316
18639TIP3    H277409   2.076   4.760  17.019 -0.6773 -0.9035  0.7261
18640TIP3   OH277410   4.883   4.437  14.223 -0.6402  0.2229 -0.1818
18640TIP3    H177411   4.883   4.352  14.180 -1.3648  0.0296  0.1733
18640TIP3    H277412   4.968   4.443  14.267 -0.4660 -0.1840 -0.4634
18641TIP3   OH277413   0.798   6.052   3.273  0.4665 -0.4418  0.2998
18641TIP3    H177414   0.797   6.121   3.207  0.1534 -0.2934  0.4607
18641TIP3    H277415   0.771   6.095   3.354  0.7508 -0.6456  0.5050
18642TIP3   OH277416   6.664   2.888   4.568  0.5457 -0.1543 -0.1741
18642TIP3    H177417   6.711   2.921   4.492 -0.6682  2.3766  0.0592
18642TIP3    H277418   6.576   2.868   4.535  0.0937  0.7028  0.4828
18643TIP3   OH277419   1.958   4.960   5.842 -0.0226  0.1973 -0.7303
18643TIP3    H177420   1.875   4.914   5.835  0.6241 -0.9412 -1.0736
18643TIP3    H277421   1.990   4.940   5.930  0.2871 -0.0639 -0.9002
18644TIP3   OH277422   1.333   0.972  16.547 -0.3054 -0.5685  0.1594
18644TIP3    H177423   1.394   1.040  16.576 -0.3128 -0.7739  0.6635
18644TIP3    H277424   1.386   0.915  16.490  0.2371 -1.2813  1.3312
18645TIP3   OH277425   2.057   2.130  16.404  0.6487  0.9146  0.5401
18645TIP3    H177426   2.014   2.207  16.442 -0.2541  1.3697 -1.2698
18645TIP3    H277427   2.145   2.161  16.381  1.0151  0.7857  1.6753
18646TIP3   OH277428   6.284   6.451  16.940  0.2447  0.0463 -0.6493
18646TIP3    H177429   6.249   6.371  16.901  2.1191 -1.4452  0.5380
18646TIP3    H277430   6.212   6.485  16.994 -0.3609 -1.2546 -0.5986
18647TIP3   OH277431   4.093   3.258   4.058  0.4734 -0.2058  0.1801
18647TIP3    H177432   4.119   3.303   4.139  1.8483 -0.2838 -0.2023
18647TIP3    H277433   4.162   3.279   3.995 -1.0579  0.6515 -1.2978
18648TIP3   OH277434   3.286   3.015  15.045  0.1126 -0.0825  0.7361
18648TIP3    H177435   3.292   2.969  14.961 -0.5438 -1.5032  1.4190
18648TIP3    H277436   3.199   2.991  15.078 -0.1846  1.5491  1.2281
18649TIP3   OH277437   0.482   5.930   2.811  0.4811 -0.1449  0.1355
18649TIP3    H177438   0.522   5.851   2.846  0.8435  1.0065  2.6012
18649TIP3    H277439   0.389   5.920   2.831  0.3118 -0.5541 -0.8429
18650TIP3   OH277440   3.699   6.665   2.163 -0.1015  0.5111 -0.7669
18650TIP3    H177441   3.671   6.612   2.238 -1.1279  1.6408 -0.3256
18650TIP3    H277442   3.747   6.738   2.201  1.7153 -0.2691 -1.4048
18651TIP3   OH277443   5.621   5.155  12.268 -0.2274  0.1911 -0.3328
18651TIP3    H177444   5.668   5.078  12.235  1.0892  0.4110  0.9283
18651TIP3    H277445   5.529   5.132  12.260  0.1274 -1.2031 -0.7121
18652TIP3   OH277446   0.470   6.596  16.339  0.2326  0.1387 -0.0250
18652TIP3    H177447   0.528   6.544  16.283 -1.4366 -0.3676 -1.3923
18652TIP3    H277448   0.501   6.686  16.328  0.5135 -0.0643 -1.0563
18653TIP3   OH277449   2.170   1.260  12.246  0.2994 -0.0460 -1.0267
18653TIP3    H177450   2.254   1.278  12.203 -0.1284  0.6303 -1.6017
18653TIP3    H277451   2.116   1.336  12.226  0.6672  1.2787  2.3595
18654TIP3   OH277452   4.538   5.060  15.185 -0.4501 -0.0788  0.0335
18654TIP3    H177453   4.583   5.041  15.103  0.7249 -0.9591  0.8405
18654TIP3    H277454   4.445   5.061  15.162 -0.1185  0.1452 -1.3833
18655TIP3   OH277455   2.799   5.244  13.533 -0.1956 -0.5672 -0.2167
18655TIP3    H177456   2.838   5.169  13.576 -1.8845 -1.0597  0.5421
18655TIP3    H277457   2.864   5.272  13.468  1.8544 -0.6194  1.7098
18656TIP3   OH277458   4.941   0.633  12.156 -0.1901  0.0364  0.3648
18656TIP3    H177459   4.983   0.627  12.242 -0.5338  0.5702  0.5735
18656TIP3    H277460   5.013   0.626  12.093 -0.0668 -1.5851  0.6565
18657TIP3   OH277461   3.492   4.688   3.089  0.4992  0.7912 -0.0460
18657TIP3    H177462   3.535   4.695   3.174 -1.8511  2.8044  1.0840
18657TIP3    H277463   3.455   4.775   3.073 -2.0448 -0.4272 -1.4777
18658TIP3   OH277464   5.329   5.880  12.227 -0.5964 -0.4966 -0.1766
18658TIP3    H177465   5.399   5.818  12.207  0.3124  0.8158 -1.2408
18658TIP3    H277466   5.372   5.952  12.273 -1.5704 -0.4906  0.7633
18659TIP3   OH277467   3.157   5.164   2.862 -0.0353 -0.0342  0.8123
18659TIP3    H177468   3.094   5.124   2.802  1.2484  0.6771 -1.0990
18659TIP3    H277469   3.116   5.155   2.948 -1.6204 -1.7735 -0.0351
18660TIP3   OH277470   5.016   5.876  11.085  0.1252 -0.3355 -0.2295
18660TIP3    H177471   4.978   5.812  11.024 -2.2036 -2.0250  2.7111
18660TIP3    H277472   5.050   5.823  11.157 -1.3539  1.6466  2.0545
18661TIP3   OH277473   1.048   4.382  17.006 -0.1288  0.0622 -0.2309
18661TIP3    H177474   1.027   4.440  17.079 -1.0706 -0.2120 -0.2730
18661TIP3    H277475   1.088   4.439  16.941  1.5861  0.1611  0.8389
18662TIP3   OH277476   3.539   4.599  13.296  0.1250 -0.2075 -0.2116
18662TIP3    H177477   3.593   4.533  13.338 -1.9978 -1.7767  0.1996
18662TIP3    H277478   3.464   4.551  13.262  0.5028  1.3588 -3.6885
18663TIP3   OH277479   0.126   4.042   3.208 -0.0290 -0.0466  0.1986
18663TIP3    H177480   0.038   4.031   3.244  0.2385 -1.5083  0.4831
18663TIP3    H277481   0.112   4.082   3.122 -0.7738  2.1491  1.2743
18664TIP3   OH277482   3.071   2.001   4.119 -0.3360  0.8332 -0.2671
18664TIP3    H177483   3.060   2.029   4.028 -1.6534  0.9494 -0.0966
18664TIP3    H277484   3.032   2.071   4.171  0.6085  0.8736  0.4187
18665TIP3   OH277485   4.741   0.984   2.017  0.6835  0.0082 -0.5633
18665TIP3    H177486   4.703   1.069   2.035 -0.7680 -0.6285 -0.4979
18665TIP3    H277487   4.682   0.922   2.060  1.6222 -1.0405 -0.7412
18666TIP3   OH277488   1.896   5.762  15.409  0.1381  0.5849  0.2986
18666TIP3    H177489   1.847   5.834  15.449  0.4558  0.5410  0.7832
18666TIP3    H277490   1.931   5.713  15.484 -1.4893 -1.0806  0.0228
18667TIP3   OH277491   6.337   3.693   1.175  0.0780 -0.0745 -0.5626
18667TIP3    H177492   6.346   3.724   1.085  1.8714 -1.4238 -0.8866
18667TIP3    H277493   6.274   3.754   1.215 -0.6283  0.6348 -2.6596
18668TIP3   OH277494   4.772   1.747   3.835  0.1869  0.0165 -0.1695
18668TIP3    H177495   4.862   1.753   3.802  0.3599 -0.8684  0.1199
18668TIP3    H277496   4.740   1.663   3.802 -0.4080  0.1538  0.0497
18669TIP3   OH277497   1.862   0.867   3.093  0.2129  0.0796  0.2867
18669TIP3    H177498   1.826   0.950   3.124  1.1575  0.1359  1.3052
18669TIP3    H277499   1.815   0.849   3.011  0.3197  1.8345 -0.1964
18670TIP3   OH277500   5.159   3.546  14.678  0.2117 -0.4515 -0.3695
18670TIP3    H177501   5.084   3.486  14.672 -2.3675  2.3118  1.1895
18670TIP3    H277502   5.201   3.524  14.761  0.1240 -1.0147 -0.4760
18671TIP3   OH277503   0.155   0.504  11.552 -0.0823  0.3007  0.7136
18671TIP3    H177504   0.117   0.592  11.553  0.4231  0.5597 -0.4990
18671TIP3    H277505   0.248   0.518  11.569  0.1886  0.1334 -0.5314
18672TIP3   OH277506   5.315   1.119  11.675 -0.1247 -0.3596 -0.9415
18672TIP3    H177507   5.290   1.063  11.601  0.6461 -0.5859 -1.0381
18672TIP3    H277508   5.236   1.126  11.728 -0.0083 -2.2336 -0.4711
18673TIP3   OH277509   0.822   4.041  15.361  0.2110  0.1256  0.5902
18673TIP3    H177510   0.762   4.077  15.296 -0.7818 -1.2499  0.6971
18673TIP3    H277511   0.766   4.018  15.435  1.0647 -0.0340  1.2016
18674TIP3   OH277512   2.108   5.587   1.171  0.7875 -0.0054  0.2798
18674TIP3    H177513   2.073   5.576   1.260 -1.0279  0.4773 -0.3359
18674TIP3    H277514   2.032   5.576   1.114  1.4864  1.8615 -1.1057
18675TIP3   OH277515   3.195   4.824  16.168 -0.0767  0.4168 -0.7875
18675TIP3    H177516   3.103   4.834  16.145 -0.6090 -0.0470  1.0149
18675TIP3    H277517   3.240   4.895  16.121 -1.3263  0.5912 -1.7517
18676TIP3   OH277518   2.966   1.783   4.320  0.1401  0.5328 -0.5792
18676TIP3    H177519   3.060   1.765   4.318 -0.4444 -3.5435 -0.3823
18676TIP3    H277520   2.941   1.774   4.411 -0.6587 -0.1603 -0.8514
18677TIP3   OH277521   6.668   2.300   1.448  0.2368 -0.1736  0.1122
18677TIP3    H177522   6.651   2.259   1.363  0.5175  1.0844 -0.5903
18677TIP3    H277523   6.713   2.382   1.426  0.0420  0.3257  1.4642
18678TIP3   OH277524   0.274   5.106  15.796  0.0399  0.1500 -0.2337
18678TIP3    H177525   0.358   5.150  15.812 -0.1972  0.5495 -0.0832
18678TIP3    H277526   0.222   5.169  15.748 -0.6239  0.3820  0.7581
18679TIP3   OH277527   0.002   6.816  15.973 -0.0168  0.4033  0.1878
18679TIP3    H177528   0.048   6.784  15.895 -1.0400 -0.9739  0.1115
18679TIP3    H277529  -0.043   6.896  15.943  1.4003  1.1608 -0.0074
18680TIP3   OH277530   6.045   0.585  14.691  0.2576 -0.0126 -0.6542
18680TIP3    H177531   6.063   0.594  14.597 -1.4925 -0.2253 -1.0412
18680TIP3    H277532   6.027   0.492  14.703  0.5134  0.0089 -0.0973
18681TIP3   OH277533   1.049   4.197  14.105  0.2454 -0.0947 -1.1223
18681TIP3    H177534   1.056   4.258  14.031 -0.2127  0.0594 -1.0375
18681TIP3    H277535   1.118   4.132  14.089  0.7582  0.4641 -1.1956
18682TIP3   OH277536   2.604   5.182  17.008 -0.2716 -0.2856  0.0647
18682TIP3    H177537   2.666   5.210  17.075  0.1458  0.5229 -0.6482
18682TIP3    H277538   2.639   5.215  16.926 -2.2202  1.2126 -0.2460
18683TIP3   OH277539   5.757   4.578   3.451 -0.2585  0.3372  0.6033
18683TIP3    H177540   5.717   4.655   3.490 -1.0723 -0.2376  0.9246
18683TIP3    H277541   5.721   4.504   3.499 -0.6648 -0.3421 -0.6863
18684TIP3   OH277542   3.876   3.163   0.905 -0.1082  0.2960 -0.0611
18684TIP3    H177543   3.912   3.213   0.832  1.0448 -0.9229 -0.3749
18684TIP3    H277544   3.783   3.151   0.883  0.0185  0.7298 -0.8566
18685TIP3   OH277545   1.297   3.511  13.917  0.0217  0.0821  0.8704
18685TIP3    H177546   1.275   3.455  13.992 -0.8343 -2.7982 -1.3335
18685TIP3    H277547   1.330   3.450  13.851  2.3012  2.6887 -0.6097
18686TIP3   OH277548   2.101   0.726   6.232 -0.8481  0.3021  0.2555
18686TIP3    H177549   2.163   0.771   6.289 -0.1993  1.4720 -1.2845
18686TIP3    H277550   2.054   0.666   6.289  0.4503  0.7010  1.8048
18687TIP3   OH277551   2.421   2.115  17.251 -0.3937  0.1735 -0.7552
18687TIP3    H177552   2.476   2.051  17.296 -0.2995  1.5646  1.2449
18687TIP3    H277553   2.467   2.133  17.169  1.1425 -0.1370 -0.0022
18688TIP3   OH277554   6.259   1.358  17.287  0.0283 -0.0325 -0.1453
18688TIP3    H177555   6.204   1.295  17.335 -1.4473  0.9327 -0.4950
18688TIP3    H277556   6.287   1.420  17.354  1.0023 -0.6959  0.0914
18689TIP3   OH277557   3.113   0.884  15.188  0.2327 -0.7547 -0.2984
18689TIP3    H177558   3.067   0.825  15.129  0.3188  0.0017 -1.1445
18689TIP3    H277559   3.107   0.970  15.146  2.4787 -0.6348 -0.4924
18690TIP3   OH277560   4.247   2.744   1.432  0.0339 -0.0179 -0.3512
18690TIP3    H177561   4.178   2.678   1.442 -0.0516  0.4177  2.8428
18690TIP3    H277562   4.199   2.825   1.415 -0.3580  0.2762  1.8177
18691TIP3   OH277563   2.693   6.165  13.470 -0.0123  0.1534  0.1845
18691TIP3    H177564   2.639   6.232  13.513 -0.4875 -0.3883  0.4408
18691TIP3    H277565   2.630   6.100  13.440  0.1019  1.1922 -2.6736
18692TIP3   OH277566   0.002   1.202   2.339 -0.1281  0.4216 -0.1696
18692TIP3    H177567   0.058   1.170   2.268  0.7042 -0.3135  0.7780
18692TIP3    H277568  -0.067   1.137   2.346  0.4316 -0.1227  0.4278
18693TIP3   OH277569   1.876   3.798   4.673  0.0956 -0.0660  0.3782
18693TIP3    H177570   1.783   3.818   4.659  0.2689  0.2762 -0.3077
18693TIP3    H277571   1.881   3.703   4.669 -0.4538 -0.2012  1.9202
18694TIP3   OH277572   0.255   1.955  11.492 -0.1484  0.3246  0.3608
18694TIP3    H177573   0.351   1.947  11.484 -0.0091  0.2601  1.8912
18694TIP3    H277574   0.224   1.864  11.491 -0.4388  0.3727 -2.2827
18695TIP3   OH277575   0.370   4.985  13.185 -0.6861 -0.0170 -0.1931
18695TIP3    H177576   0.442   5.042  13.156  0.5235 -0.9925  0.7782
18695TIP3    H277577   0.307   5.046  13.223  1.0908  0.6803  1.8712
18696TIP3   OH277578   5.361   3.689  15.895  0.4417  0.1030 -0.6323
18696TIP3    H177579   5.267   3.679  15.911  0.5387 -1.0625 -0.6593
18696TIP3    H277580   5.373   3.656  15.806  0.9250 -0.0655 -0.5049
18697TIP3   OH277581   5.725   2.000   0.983 -0.0741 -0.4353  0.0543
18697TIP3    H177582   5.654   2.017   0.921  0.3185  0.1517 -0.2399
18697TIP3    H277583   5.785   2.073   0.971 -0.7347  0.5486  2.2249
18698TIP3   OH277584   0.970   3.761  10.499 -0.2795 -0.0894  0.5537
18698TIP3    H177585   0.914   3.796  10.430  2.1623 -0.1296 -1.6137
18698TIP3    H277586   1.014   3.838  10.536 -0.0139 -0.2507  0.5763
18699TIP3   OH277587   4.444   0.462  13.897  0.5878  0.0597 -0.7260
18699TIP3    H177588   4.478   0.551  13.899  1.4557 -0.2721  0.6053
18699TIP3    H277589   4.462   0.427  13.985  1.6037 -1.9151 -1.6400
18700TIP3   OH277590   0.039   0.232  14.972 -0.0324 -0.3334  0.3562
18700TIP3    H177591  -0.042   0.269  15.006  0.2053 -1.2237  2.0076
18700TIP3    H277592   0.035   0.139  14.996  0.2205 -1.0320 -2.0256
18701TIP3   OH277593   3.873   4.273  13.279  0.0740 -0.3605 -0.1460
18701TIP3    H177594   3.939   4.265  13.347  1.6547  3.0518 -1.0520
18701TIP3    H277595   3.829   4.356  13.298 -1.0743 -0.5032 -1.9350
18702TIP3   OH277596   4.981   0.565  16.561 -0.1964  0.3107 -0.5958
18702TIP3    H177597   4.913   0.588  16.624  0.1736  0.8118 -0.3689
18702TIP3    H277598   5.001   0.473  16.578 -0.7618  0.1831 -0.6147
18703TIP3   OH277599   4.009   5.937  13.286  0.3880 -0.6064 -0.2589
18703TIP3    H177600   3.994   5.995  13.361  0.3535 -0.4719 -0.3680
18703TIP3    H277601   3.928   5.942  13.235  0.6228 -0.2471 -0.6058
18704TIP3   OH277602   0.454   5.544   3.039  0.1017  0.4836  0.1533
18704TIP3    H177603   0.519   5.552   2.970 -1.2127 -0.6146 -1.2666
18704TIP3    H277604   0.505   5.538   3.120  1.7171  0.4350 -0.8424
18705TIP3   OH277605   1.955   1.158  16.893 -0.2627 -0.0259 -0.0998
18705TIP3    H177606   1.991   1.198  16.814 -0.9741 -0.9749 -0.9427
18705TIP3    H277607   1.981   1.066  16.886 -2.4665 -0.6789 -0.5739
18706TIP3   OH277608   2.060   4.283  13.325  0.5243  0.2480 -0.2971
18706TIP3    H177609   2.122   4.211  13.338  1.8884  0.9137 -2.4875
18706TIP3    H277610   1.993   4.247  13.267  0.2686  0.2528 -0.0048
18707TIP3   OH277611   2.298   2.114  15.042  0.1974 -0.4200  0.1802
18707TIP3    H177612   2.261   2.086  14.959 -1.7224  2.4672 -0.0903
18707TIP3    H277613   2.392   2.099  15.032 -0.1163 -1.3006 -2.0195
18708TIP3   OH277614   3.170   1.883   3.244  0.4558  0.2733 -0.1469
18708TIP3    H177615   3.196   1.944   3.175 -0.4352  1.0122  0.1503
18708TIP3    H277616   3.190   1.796   3.208  1.4205  0.7102 -0.7109
18709TIP3   OH277617   1.421   3.401  16.976 -0.2403 -0.4633 -0.0987
18709TIP3    H177618   1.446   3.438  17.061 -1.0338  2.8254 -1.1344
18709TIP3    H277619   1.337   3.358  16.993  0.2175 -0.9732  0.9966
18710TIP3   OH277620   1.852   0.701  16.914 -0.2844 -0.1760 -0.2966
18710TIP3    H177621   1.850   0.626  16.855  0.8245 -0.7495  0.3645
18710TIP3    H277622   1.804   0.672  16.991 -0.3887  0.0224 -0.2873
18711TIP3   OH277623   1.251   5.072   0.525  0.4309 -0.5546 -0.3677
18711TIP3    H177624   1.231   5.010   0.596 -1.4516  0.8103  0.3858
18711TIP3    H277625   1.230   5.023   0.445 -2.3131 -0.5829  0.2532
18712TIP3   OH277626   6.443   6.771  17.091  0.6809  0.4570  0.2245
18712TIP3    H177627   6.430   6.680  17.064  0.7737 -0.5892  3.2497
18712TIP3    H277628   6.390   6.822  17.030 -0.3512 -1.7473 -0.8529
18713TIP3   OH277629   3.498   5.443   5.769  0.5331  0.3501  0.5705
18713TIP3    H177630   3.429   5.492   5.725  1.2366  1.3194  0.5409
18713TIP3    H277631   3.517   5.370   5.710 -0.9355 -0.3481  0.8960
18714TIP3   OH277632   3.746   1.002   1.105  0.2398 -0.3100  0.1072
18714TIP3    H177633   3.677   1.029   1.165  0.5005 -0.3259  0.4158
18714TIP3    H277634   3.827   1.036   1.143  0.2153  1.3659 -1.2426
18715TIP3   OH277635   4.569   3.902   0.218  0.2438 -0.3594 -0.3218
18715TIP3    H177636   4.485   3.859   0.202 -0.4064 -2.4352  5.8467
18715TIP3    H277637   4.547   3.992   0.241 -0.4162 -0.8685  1.1623
18716TIP3   OH277638   4.312   6.472  16.131 -0.4998 -0.1105  0.1250
18716TIP3    H177639   4.355   6.516  16.058 -1.9069  0.4183 -0.4166
18716TIP3    H277640   4.363   6.392  16.144  0.9833  0.7588 -0.0871
18717TIP3   OH277641   2.042   4.977   0.535 -0.2356  0.8106  0.3943
18717TIP3    H177642   2.053   5.021   0.450 -1.6463 -0.5698 -0.5568
18717TIP3    H277643   2.013   4.889   0.512 -1.3861  0.6395  2.3415
18718TIP3   OH277644   1.902   6.071  11.395  0.1492 -0.2071  0.2954
18718TIP3    H177645   1.908   5.981  11.362 -1.8225 -0.5227  0.7009
18718TIP3    H277646   1.823   6.106  11.354 -0.0747  0.7506  1.5139
18719TIP3   OH277647   0.380   2.198   0.913  0.9327  0.4695 -0.4395
18719TIP3    H177648   0.337   2.116   0.936  0.6574  0.4351 -1.0560
18719TIP3    H277649   0.354   2.259   0.982  1.0543  0.0673 -0.0364
18720TIP3   OH277650   0.889   5.173  14.650  0.7621 -0.0681 -0.3447
18720TIP3    H177651   0.824   5.118  14.694  0.1136 -0.0011 -1.1873
18720TIP3    H277652   0.944   5.112  14.602  2.3496 -0.2630  1.6147
18721TIP3   OH277653   0.391   5.727   6.198  0.7297 -0.1389  0.8578
18721TIP3    H177654   0.308   5.710   6.153  0.9464  1.2363 -0.1269
18721TIP3    H277655   0.365   5.743   6.289 -0.0632 -0.0205  0.6188
18722TIP3   OH277656   3.340   5.033   3.059  0.0914 -0.3516 -0.0575
18722TIP3    H177657   3.330   5.055   3.151 -0.2648 -1.5564  0.2026
18722TIP3    H277658   3.252   5.011   3.029  0.3310 -0.7358 -0.4869
18723TIP3   OH277659   1.105   3.087   2.585  0.0061  0.0407  0.2246
18723TIP3    H177660   1.079   3.173   2.618 -0.1874  0.0899 -0.0531
18723TIP3    H277661   1.025   3.050   2.549  0.2242  0.0056 -0.2280
18724TIP3   OH277662   0.612   5.878  14.883  0.1973  0.3290 -0.8028
18724TIP3    H177663   0.690   5.923  14.850  0.7206  0.0683  0.0186
18724TIP3    H277664   0.627   5.873  14.978  0.0738 -1.3788 -0.8343
18725TIP3   OH277665   3.076   0.125   2.154 -0.4196  0.2653 -0.1686
18725TIP3    H177666   3.125   0.146   2.074 -0.1531  0.2865  0.0014
18725TIP3    H277667   3.043   0.036   2.138  2.1510 -0.9827  0.8990
18726TIP3   OH277668   1.193   2.341   6.265  0.7726  0.2193  0.1514
18726TIP3    H177669   1.174   2.294   6.184 -1.2038  1.5145 -0.1934
18726TIP3    H277670   1.155   2.428   6.252  3.2985  1.6057  1.1977
18727TIP3   OH277671   2.554   4.493   0.920  0.4343 -0.0347 -0.2245
18727TIP3    H177672   2.481   4.462   0.865  0.7568 -0.9987 -0.1390
18727TIP3    H277673   2.542   4.447   1.003  2.9681 -2.9274 -1.2545
18728TIP3   OH277674   4.975   5.744  15.942 -0.7924  0.3286 -1.0449
18728TIP3    H177675   5.049   5.739  16.004 -1.5694  2.2895  0.1586
18728TIP3    H277676   4.935   5.658  15.945 -0.6091  0.2607  1.0141
18729TIP3   OH277677   0.189   3.311  13.930  0.1927 -0.7741 -0.3369
18729TIP3    H177678   0.218   3.358  14.008  2.0576 -0.3474 -1.2313
18729TIP3    H277679   0.233   3.227  13.935 -1.3207 -1.5672  0.0899
18730TIP3   OH277680   2.328   6.256   1.940  0.2155 -0.0768  0.4030
18730TIP3    H177681   2.285   6.274   1.857 -0.8614  0.3852  1.0357
18730TIP3    H277682   2.330   6.160   1.946 -0.9882 -0.1050  0.4807
18731TIP3   OH277683   1.384   1.081   5.939 -0.3542  0.4839 -0.6918
18731TIP3    H177684   1.365   1.081   6.033  0.5945  0.9081 -0.4832
18731TIP3    H277685   1.300   1.098   5.897 -0.9996 -0.8070  0.0238
18732TIP3   OH277686   6.535   3.633  16.414 -0.1294 -0.0029  0.0179
18732TIP3    H177687   6.611   3.669  16.460 -1.5589  0.1648  2.4243
18732TIP3    H277688   6.565   3.621  16.324  3.2345 -1.4235  1.1789
18733TIP3   OH277689   2.382   3.923  17.024  0.1356  0.5022  0.4793
18733TIP3    H177690   2.470   3.928  17.060  1.2207  0.5560 -2.0094
18733TIP3    H277691   2.347   3.841  17.059  1.7878 -0.3497  0.2458
18734TIP3   OH277692   6.698   0.603   4.499  0.0639 -0.7709 -0.7862
18734TIP3    H177693   6.783   0.575   4.534  1.9266  0.8226 -3.6406
18734TIP3    H277694   6.657   0.522   4.468  0.2289 -1.6265  1.0577
18735TIP3   OH277695   0.266   2.022  15.171 -0.0935 -0.4670 -0.1377
18735TIP3    H177696   0.297   2.001  15.259 -0.7704  2.6518  0.9654
18735TIP3    H277697   0.171   2.026  15.180 -0.1148  0.6985 -0.7863
18736TIP3   OH277698   5.347   3.471   0.279  0.5432  0.4050 -0.2895
18736TIP3    H177699   5.381   3.561   0.274 -0.3907  0.7444 -0.8375
18736TIP3    H277700   5.343   3.453   0.373  1.5237  0.6200 -0.1930
18737TIP3   OH277701   3.226   1.910  15.894 -0.3418 -0.0764  0.2896
18737TIP3    H177702   3.149   1.894  15.948  0.1374 -0.4391  0.8756
18737TIP3    H277703   3.294   1.854  15.931  0.5482  1.1441  0.5488
18738TIP3   OH277704   0.307   5.156   1.053 -0.4094  0.3574  0.5727
18738TIP3    H177705   0.226   5.207   1.046 -0.2980  0.5371  0.5893
18738TIP3    H277706   0.335   5.169   1.144 -0.5428  0.0223  0.6601
18739TIP3   OH277707   4.573   6.711   0.196 -0.3468 -0.8458  0.1954
18739TIP3    H177708   4.576   6.797   0.154 -0.7982 -0.9830 -0.1210
18739TIP3    H277709   4.625   6.722   0.276 -1.6849  0.1732  0.9701
18740TIP3   OH277710   6.295   3.394   1.210 -0.0510  0.1155  0.0494
18740TIP3    H177711   6.337   3.407   1.125  0.2408 -1.0196  0.0040
18740TIP3    H277712   6.250   3.476   1.227  1.3738  1.0154 -0.3621
18741TIP3   OH277713   1.102   5.115  12.332 -0.5828  0.4488  0.1172
18741TIP3    H177714   1.069   5.191  12.380  0.5440  1.0216  0.0055
18741TIP3    H277715   1.026   5.082  12.285 -1.5872  0.2656  1.7581
18742TIP3   OH277716   4.644   6.269  12.754  0.0702  0.2904 -0.1358
18742TIP3    H177717   4.682   6.184  12.776 -0.0742  0.5945  1.4045
18742TIP3    H277718   4.653   6.276  12.659  1.2740 -0.8662 -0.1289
18743TIP3   OH277719   0.224   1.094  16.284  0.4269 -0.7164  0.2820
18743TIP3    H177720   0.213   1.179  16.241 -0.4195 -1.6043 -1.3613
18743TIP3    H277721   0.137   1.056  16.284  1.0442 -2.1969 -0.4116
18744TIP3   OH277722   0.709   0.586  16.564 -0.7251 -0.1968  0.3838
18744TIP3    H177723   0.695   0.521  16.496  1.6924 -0.6602  0.2176
18744TIP3    H277724   0.684   0.669  16.524  0.1364 -0.5378 -0.9049
18745TIP3   OH277725   6.806   6.504   4.731  0.5613 -0.0899  0.2603
18745TIP3    H177726   6.854   6.551   4.799 -0.5492 -0.5792  1.4287
18745TIP3    H277727   6.773   6.573   4.674 -0.4878  0.5641  1.5784
18746TIP3   OH277728   2.812   1.637  13.413 -0.0992  0.6826  0.0339
18746TIP3    H177729   2.840   1.661  13.325 -2.1051 -0.5826 -1.0145
18746TIP3    H277730   2.871   1.565  13.438 -0.2021  0.3287 -0.7158
18747TIP3   OH277731   0.059   3.331  12.550 -0.4362 -0.4814  0.4874
18747TIP3    H177732   0.150   3.303  12.565 -0.6766 -0.2331  2.7386
18747TIP3    H277733   0.008   3.279  12.612 -1.5632  0.8863  0.7569
18748TIP3   OH277734   0.373   4.547   1.395 -0.0251 -0.0633 -0.0604
18748TIP3    H177735   0.306   4.598   1.440  1.0627  1.3818 -0.0203
18748TIP3    H277736   0.325   4.495   1.330 -1.3201 -0.2004  0.9747
18749TIP3   OH277737   2.743   3.162   2.259 -0.2998  0.2095 -0.2195
18749TIP3    H177738   2.658   3.130   2.226 -1.7067  3.3351 -0.0097
18749TIP3    H277739   2.731   3.166   2.354  0.2866  0.1730 -0.1447
18750TIP3   OH277740   4.315   2.968  11.728 -0.1159  0.3352 -0.0016
18750TIP3    H177741   4.293   2.951  11.820  0.4985  1.2848  0.3337
18750TIP3    H277742   4.312   2.882  11.686  0.4109 -0.2288  1.0833
18751TIP3   OH277743   2.889   0.319   5.088 -0.0115 -0.3051  0.8437
18751TIP3    H177744   2.834   0.383   5.043  2.5070  2.4671  1.4598
18751TIP3    H277745   2.932   0.271   5.018  1.1183  1.4869  0.2587
18752TIP3   OH277746   2.594   1.714   4.784 -0.2707 -0.6143 -0.0441
18752TIP3    H177747   2.650   1.650   4.740  0.7398  0.5182 -0.4895
18752TIP3    H277748   2.650   1.751   4.853 -0.3830  0.6160 -0.5709
18753TIP3   OH277749   0.287   4.653  10.748 -0.2941 -0.0075 -0.1895
18753TIP3    H177750   0.270   4.747  10.738 -1.9486 -0.2976 -0.3433
18753TIP3    H277751   0.383   4.646  10.746 -0.1490  1.6297 -0.5585
18754TIP3   OH277752   6.559   4.826   0.421 -0.6096  0.8981  0.0345
18754TIP3    H177753   6.468   4.838   0.447 -0.3034  1.1291  1.0214
18754TIP3    H277754   6.566   4.871   0.337 -0.9851  2.3705  0.7642
18755TIP3   OH277755   1.025   1.971   3.138  0.3079  0.3631 -0.7606
18755TIP3    H177756   1.094   1.977   3.072  0.7777 -0.9180 -0.4093
18755TIP3    H277757   0.981   2.056   3.133  1.2977  0.8600 -1.6474
18756TIP3   OH277758   5.283   1.259  12.318  0.0685 -0.1643 -0.4253
18756TIP3    H177759   5.364   1.305  12.294 -0.5528 -0.2242 -2.8765
18756TIP3    H277760   5.245   1.233  12.234 -2.1630 -0.7292  0.7033
18757TIP3   OH277761   5.982   3.850  12.287 -0.0438 -0.4394  0.0162
18757TIP3    H177762   5.946   3.935  12.262  1.1882  0.2240  0.4485
18757TIP3    H277763   6.022   3.816  12.207  2.1270  0.7845  0.4892
18758TIP3   OH277764   4.246   0.533   0.381  0.3601 -0.1601  0.3431
18758TIP3    H177765   4.284   0.461   0.331  0.6289  0.5309 -0.4772
18758TIP3    H277766   4.257   0.610   0.325  0.1877  0.5457  1.2435
18759TIP3   OH277767   4.808   6.007   5.543 -0.1496 -0.5872 -0.4962
18759TIP3    H177768   4.729   5.972   5.584 -0.9600  1.9323  0.3113
18759TIP3    H277769   4.776   6.075   5.483  1.2667 -1.6263 -2.5343
18760TIP3   OH277770   4.405   6.505   3.104  0.0737  0.2843 -0.1829
18760TIP3    H177771   4.369   6.437   3.162  1.0941 -1.7346 -1.7949
18760TIP3    H277772   4.329   6.538   3.056 -0.3464 -0.2427  0.1034
18761TIP3   OH277773   0.241   2.793   1.294 -0.3637 -0.2255  0.4131
18761TIP3    H177774   0.190   2.761   1.219  0.6119 -1.6021  0.2970
18761TIP3    H277775   0.291   2.867   1.260 -0.0293 -0.7601 -0.2784
18762TIP3   OH277776   3.330   0.810   5.339  0.1543  0.0643  0.0346
18762TIP3    H177777   3.253   0.861   5.366 -1.1484 -1.4229 -0.7048
18762TIP3    H277778   3.348   0.754   5.415  0.6374  0.5334  0.2727
18763TIP3   OH277779   2.382   1.759  16.581  0.7470  0.7322  0.0488
18763TIP3    H177780   2.288   1.776  16.578  0.5903 -0.1279 -0.2821
18763TIP3    H277781   2.398   1.729  16.671  0.7260  0.9663  0.1317
18764TIP3   OH277782   0.244   3.604   2.371 -0.6556 -0.1846 -0.3751
18764TIP3    H177783   0.302   3.528   2.365 -0.3469  0.1451 -2.1405
18764TIP3    H277784   0.298   3.677   2.343 -0.9278  0.7264  1.3975
18765TIP3   OH277785   3.141   4.012   4.675  0.1068 -0.4989  0.1656
18765TIP3    H177786   3.216   4.070   4.662  0.3177 -0.3073  1.9435
18765TIP3    H277787   3.151   3.981   4.765 -1.7216 -0.8238  0.2835
18766TIP3   OH277788   5.012   1.497  12.573 -0.1919  0.1482 -0.7050
18766TIP3    H177789   5.064   1.542  12.639  0.3559 -0.5435 -0.6508
18766TIP3    H277790   4.922   1.505  12.605 -0.0052  0.4152 -0.2316
18767TIP3   OH277791   3.110   0.544   4.363 -0.1498 -0.2134  0.5506
18767TIP3    H177792   3.193   0.588   4.346 -0.9104  0.6853 -1.0883
18767TIP3    H277793   3.109   0.471   4.301 -0.1461 -0.8672  1.3003
18768TIP3   OH277794   1.442   4.290  12.728 -0.1970  0.2497  0.7111
18768TIP3    H177795   1.472   4.364  12.676  0.7766 -0.1200  0.7362
18768TIP3    H277796   1.453   4.214  12.672 -0.4913  0.0268  0.9503
18769TIP3   OH277797   5.539   6.705  12.222  0.0508 -0.2348 -0.5852
18769TIP3    H177798   5.515   6.718  12.131 -2.7831  1.0395  0.2565
18769TIP3    H277799   5.538   6.793  12.260 -0.0012 -0.8690  0.9489
18770TIP3   OH277800   0.888   5.850   2.995 -0.3910  0.3399  0.1196
18770TIP3    H177801   0.814   5.879   3.047 -1.1263  0.1129 -0.7574
18770TIP3    H277802   0.872   5.888   2.908  1.2078  1.3745  0.2328
18771TIP3   OH277803   2.130   1.017  10.421 -0.1856 -0.2183 -0.1099
18771TIP3    H177804   2.037   0.998  10.407  0.3490 -3.0846 -0.3234
18771TIP3    H277805   2.172   0.931  10.421  2.5881  1.0392 -0.7515
18772TIP3   OH277806   6.001   2.337   3.174  0.3115  0.5294 -0.2487
18772TIP3    H177807   6.094   2.358   3.177  0.5918 -0.4963 -1.1158
18772TIP3    H277808   5.966   2.393   3.104  0.0767  1.5579  0.6621
18773TIP3   OH277809   5.578   1.403  11.139 -0.4991 -0.4037  0.2983
18773TIP3    H177810   5.669   1.390  11.115 -0.4085  0.8778 -0.1117
18773TIP3    H277811   5.540   1.315  11.138  0.4192 -0.8051 -0.7884
18774TIP3   OH277812   4.573   0.289  12.681 -0.2822  0.3819 -0.2541
18774TIP3    H177813   4.625   0.358  12.722 -0.2127  0.5268 -0.5818
18774TIP3    H277814   4.551   0.324  12.595 -0.2985  0.0173 -0.3978
18775TIP3   OH277815   6.036   6.481  12.506  0.0890  0.6818  0.2718
18775TIP3    H177816   6.017   6.571  12.478  2.2450  0.9701 -0.4439
18775TIP3    H277817   6.129   6.482  12.526  0.6132 -1.8734 -1.5816
18776TIP3   OH277818   3.534   4.593   1.301  0.3198  0.0025 -0.0617
18776TIP3    H177819   3.626   4.589   1.276 -0.3361 -1.6109 -2.4433
18776TIP3    H277820   3.512   4.504   1.326 -0.8410  0.1695 -0.4417
18777TIP3   OH277821   0.306   3.436  10.674 -0.0964 -0.3266 -0.8513
18777TIP3    H177822   0.347   3.432  10.588 -0.8579 -0.6860 -1.2071
18777TIP3    H277823   0.220   3.397  10.662 -0.0201 -0.8730  0.1927
18778TIP3   OH277824   0.817   0.581  12.269  0.2728 -0.0949 -0.4388
18778TIP3    H177825   0.827   0.518  12.197 -1.2013 -0.6190 -0.2186
18778TIP3    H277826   0.890   0.641  12.258  0.6649 -0.7652 -1.7672
18779TIP3   OH277827   3.791   5.015  16.496  0.0747  0.3939  0.5014
18779TIP3    H177828   3.724   4.953  16.522  0.2122  1.1257  2.8391
18779TIP3    H277829   3.874   4.972  16.518  0.2350  0.7469  0.6033
18780TIP3   OH277830   4.525   1.939   4.260  0.4654  0.0552  0.7762
18780TIP3    H177831   4.615   1.935   4.290  0.4723  0.9294  0.8788
18780TIP3    H277832   4.532   1.959   4.166  0.3636  3.1658  1.3384
18781TIP3   OH277833   5.863   2.801   5.261  0.5306  0.2227  0.5072
18781TIP3    H177834   5.773   2.788   5.232  0.2322 -0.8198  1.7840
18781TIP3    H277835   5.892   2.881   5.217 -0.4983 -0.2367 -1.0773
18782TIP3   OH277836   6.013   1.920   1.105 -0.0910 -0.2938 -0.1102
18782TIP3    H177837   6.105   1.925   1.078  0.1919 -0.2428  0.8293
18782TIP3    H277838   5.992   2.009   1.134 -0.3760 -0.3563 -0.1253
18783TIP3   OH277839   6.121   6.067   4.906 -0.8537 -0.0484  0.2413
18783TIP3    H177840   6.064   6.141   4.884  0.8849  1.8772  1.7987
18783TIP3    H277841   6.135   6.022   4.823 -1.5550  1.6788 -0.8725
18784TIP3   OH277842   5.851   0.662  12.916  0.1683 -0.4637 -0.1612
18784TIP3    H177843   5.909   0.601  12.869 -0.3193  0.4120 -1.9871
18784TIP3    H277844   5.877   0.654  13.008  4.4101  1.0773 -1.0054
18785TIP3   OH277845   0.695   0.176  13.651  0.4394  0.0556 -0.4524
18785TIP3    H177846   0.694   0.254  13.706  2.2042  0.1350 -0.4766
18785TIP3    H277847   0.654   0.204  13.569  1.5927  1.1622 -0.6889
18786TIP3   OH277848   1.938   1.884  14.284  0.0139 -0.2472 -0.2797
18786TIP3    H177849   2.006   1.881  14.352 -0.6581 -0.4822  0.3939
18786TIP3    H277850   1.987   1.894  14.202  0.9258 -1.5091  0.0706
18787TIP3   OH277851   5.549   2.140   2.320  0.1630 -0.1754 -0.0063
18787TIP3    H177852   5.514   2.211   2.373 -0.9773  0.3744 -1.4075
18787TIP3    H277853   5.641   2.135   2.343  0.1791  1.5171  0.3977
18788TIP3   OH277854   4.687   6.694   1.692  0.2705 -0.6708  0.3877
18788TIP3    H177855   4.612   6.679   1.634  1.3170 -0.7483 -1.0182
18788TIP3    H277856   4.734   6.766   1.650  1.1606 -0.8418  1.0720
18789TIP3   OH277857   6.234   1.117  16.171 -0.1214 -0.2885  0.3256
18789TIP3    H177858   6.162   1.062  16.142 -1.0198  0.4314  1.1064
18789TIP3    H277859   6.197   1.206  16.175  0.5666 -0.0180  1.4764
18790TIP3   OH277860   3.813   2.153  15.417 -0.1459  0.1594 -0.5542
18790TIP3    H177861   3.762   2.105  15.483  1.3649 -1.9174 -0.8207
18790TIP3    H277862   3.845   2.230  15.464 -2.9802  1.2789 -0.2375
18791TIP3   OH277863   6.084   0.590  12.446  0.4372  0.3689  0.0105
18791TIP3    H177864   6.130   0.568  12.364 -0.9868 -0.0792 -0.6899
18791TIP3    H277865   6.006   0.637  12.417  0.0126  0.3757  1.1397
18792TIP3   OH277866   1.785   2.148  15.653  0.0314  0.0078  0.4444
18792TIP3    H177867   1.827   2.223  15.610  1.0720  1.2475  3.3633
18792TIP3    H277868   1.834   2.137  15.735 -0.8545 -3.1501  0.6854
18793TIP3   OH277869   1.831   5.477  17.280 -0.2770 -0.1349  0.9274
18793TIP3    H177870   1.812   5.416  17.209  0.0581  0.8219 -0.0149
18793TIP3    H277871   1.777   5.448  17.353  0.1537 -1.7750  0.6302
18794TIP3   OH277872   2.174   5.452  15.925 -0.0181 -0.2386  0.0963
18794TIP3    H177873   2.215   5.393  15.862 -1.6672 -1.6809  0.3169
18794TIP3    H277874   2.246   5.477  15.984  0.5709 -2.9044  0.6587
18795TIP3   OH277875   5.188   4.809   2.970 -0.6359  0.1846 -0.2874
18795TIP3    H177876   5.115   4.865   2.998 -0.1692 -0.4342  2.4693
18795TIP3    H277877   5.263   4.841   3.020  1.0131  0.6081 -2.8425
18796TIP3   OH277878   0.178   3.632  14.940 -0.0816  0.2303 -0.5981
18796TIP3    H177879   0.139   3.587  15.015  0.5355 -0.6876 -0.8078
18796TIP3    H277880   0.134   3.717  14.937 -0.6343 -0.0094  0.3556
18797TIP3   OH277881   1.022   5.324   2.321  0.2767 -0.6745  0.0755
18797TIP3    H177882   0.971   5.280   2.253  0.0022  0.9910 -0.8422
18797TIP3    H277883   0.964   5.393   2.353  1.0661 -0.3143  0.7647
18798TIP3   OH277884   1.995   0.119  14.273 -0.1352  0.5299 -0.0999
18798TIP3    H177885   1.939   0.069  14.214  0.6466  0.5562 -0.8769
18798TIP3    H277886   2.082   0.081  14.261  0.4472  1.9487 -0.5604
18799TIP3   OH277887   5.260   5.714  13.086 -0.1656  0.1706 -0.7296
18799TIP3    H177888   5.206   5.646  13.045 -0.2390 -0.6750  0.7190
18799TIP3    H277889   5.272   5.684  13.176 -0.4191  2.2001  0.0306
18800TIP3   OH277890   2.524   6.258  11.646 -0.4351 -0.3333 -0.6200
18800TIP3    H177891   2.587   6.313  11.599  1.2632 -0.2164  1.6268
18800TIP3    H277892   2.551   6.169  11.628  2.0471 -0.2996  2.2109
18801TIP3   OH277893   0.545   5.565   2.102  0.1855  0.7771  0.6637
18801TIP3    H177894   0.584   5.512   2.172  1.4735  2.3762  1.2162
18801TIP3    H277895   0.455   5.579   2.130 -1.0825 -3.1657 -0.7280
18802TIP3   OH277896   0.932   0.806   5.942  0.0452 -0.0094 -0.2497
18802TIP3    H177897   1.009   0.756   5.968  0.8140  1.4929  0.4806
18802TIP3    H277898   0.862   0.741   5.936  0.8290 -1.0709  1.3973
18803TIP3   OH277899   6.397   2.736   4.848 -0.0354 -0.0912 -0.3268
18803TIP3    H177900   6.318   2.682   4.851  0.5247 -0.9083  0.5670
18803TIP3    H277901   6.379   2.808   4.908 -0.6856  0.5888 -1.3185
18804TIP3   OH277902   0.012   5.555  17.262  0.4421  0.4671  0.4053
18804TIP3    H177903   0.069   5.595  17.327 -0.6663  2.0239  0.4589
18804TIP3    H277904  -0.060   5.616  17.251 -0.6516 -0.9082 -0.5112
18805TIP3   OH277905   6.185   5.506   4.994 -0.0211 -0.4191 -0.5687
18805TIP3    H177906   6.102   5.461   5.012 -0.0750 -0.4034 -0.7813
18805TIP3    H277907   6.250   5.457   5.045  0.2650 -1.9692 -2.3008
18806TIP3   OH277908   1.912   0.455  13.177  0.0848  0.2688 -0.0398
18806TIP3    H177909   1.933   0.546  13.201 -1.1651  0.6354 -0.2850
18806TIP3    H277910   1.862   0.421  13.250 -0.9676  0.3539 -0.7010
18807TIP3   OH277911   4.464   1.921  15.857  0.6793 -0.5044  0.2599
18807TIP3    H177912   4.427   2.008  15.867  1.6766 -0.1025  0.5140
18807TIP3    H277913   4.388   1.862  15.858  0.1421  0.1097  2.8929
18808TIP3   OH277914   3.817   2.592   3.085 -0.0775 -0.7799  0.7877
18808TIP3    H177915   3.826   2.624   2.995 -1.5284 -1.0700  0.5199
18808TIP3    H277916   3.729   2.618   3.111  0.9251  0.9629  2.8214
18809TIP3   OH277917   0.238   2.489   4.584 -0.2450 -0.0337 -0.4443
18809TIP3    H177918   0.194   2.525   4.507  0.6343  2.0886 -0.0323
18809TIP3    H277919   0.270   2.566   4.631  1.4746 -1.3881  0.7186
18810TIP3   OH277920   5.669   2.227   1.907  0.0046 -0.8211  0.2383
18810TIP3    H177921   5.619   2.251   1.830  0.3182  0.0141  0.2914
18810TIP3    H277922   5.752   2.273   1.897 -0.6037  0.7540  1.9452
18811TIP3   OH277923   3.470   6.155  15.777 -0.6740 -0.0254  0.2126
18811TIP3    H177924   3.520   6.081  15.813 -0.1035 -0.2891 -1.0562
18811TIP3    H277925   3.451   6.210  15.853  3.8947  1.5257  0.5585
18812TIP3   OH277926   2.964   6.063  16.287  0.1037 -0.1115 -0.1916
18812TIP3    H177927   3.039   6.045  16.343 -0.1249  1.2316  0.5695
18812TIP3    H277928   2.959   5.987  16.229  2.0313 -0.2292 -0.2495
18813TIP3   OH277929   0.409   0.694  16.779  0.3874 -0.3684  0.0601
18813TIP3    H177930   0.412   0.673  16.872  1.6843 -0.5042  0.0011
18813TIP3    H277931   0.455   0.777  16.771 -0.6888  0.2128 -0.3286
18814TIP3   OH277932   3.933   3.313  16.446 -0.2207  0.1492 -0.4552
18814TIP3    H177933   3.972   3.233  16.481 -0.2406  0.4773  0.3201
18814TIP3    H277934   4.007   3.372  16.430  0.0748 -0.8014 -3.2070
18815TIP3   OH277935   2.194   6.053   5.576 -0.3234  0.2068 -0.1575
18815TIP3    H177936   2.243   6.045   5.658 -0.7617  0.6808  0.1582
18815TIP3    H277937   2.105   6.074   5.603 -0.7415 -0.8012 -0.7217
18816TIP3   OH277938   3.426   5.889  16.668  0.2060 -0.3942  0.1417
18816TIP3    H177939   3.466   5.974  16.646  2.6299 -1.4259  0.2466
18816TIP3    H277940   3.397   5.899  16.759 -0.0269  0.4742 -0.0202
18817TIP3   OH277941   1.694   6.109   1.435  0.3913 -0.1026  0.4063
18817TIP3    H177942   1.740   6.116   1.351 -0.6305 -1.6914 -0.3372
18817TIP3    H277943   1.667   6.018   1.440 -0.3252  0.1660  2.0798
18818TIP3   OH277944   5.997   6.470  13.586  0.0460  0.0028 -0.7343
18818TIP3    H177945   5.936   6.408  13.546  1.4418 -0.8798 -1.5698
18818TIP3    H277946   6.007   6.539  13.521 -2.4244  1.8148  0.6698
18819TIP3   OH277947   1.911   4.994  15.257  0.0368  0.0519 -0.3400
18819TIP3    H177948   1.911   4.903  15.228  0.0888  0.3488 -1.3474
18819TIP3    H277949   2.003   5.017  15.264  0.0226 -0.0333  0.1065
18820TIP3   OH277950   0.733   5.084  15.274 -0.2044 -1.1035 -0.6333
18820TIP3    H177951   0.731   4.988  15.272 -0.3078 -1.2461  2.5400
18820TIP3    H277952   0.801   5.106  15.337 -1.8969  0.8049  0.6746
18821TIP3   OH277953   5.228   2.695  15.671 -0.1484 -0.1983  0.3194
18821TIP3    H177954   5.152   2.749  15.693  0.3942  0.7919 -0.1660
18821TIP3    H277955   5.303   2.750  15.691  0.4087 -0.0172 -1.9374
18822TIP3   OH277956   3.371   3.993   5.506 -0.4870 -0.4121 -0.2325
18822TIP3    H177957   3.283   4.020   5.530 -0.6270 -0.3844 -0.7612
18822TIP3    H277958   3.364   3.967   5.414  0.1534  0.0664 -0.4257
18823TIP3   OH277959   6.350   1.548  14.030 -0.5345 -0.0743 -0.1500
18823TIP3    H177960   6.378   1.544  14.121 -0.3545  0.7753 -0.1633
18823TIP3    H277961   6.304   1.632  14.022 -1.8134 -0.7773 -0.4951
18824TIP3   OH277962   6.552   2.142   4.260  0.5308 -0.0856  0.2985
18824TIP3    H177963   6.495   2.210   4.296  0.2976  0.2891 -0.7638
18824TIP3    H277964   6.607   2.115   4.334 -1.8071 -1.3353  1.7149
18825TIP3   OH277965   0.795   6.662   5.052  0.3035 -0.5444  0.2425
18825TIP3    H177966   0.851   6.735   5.080 -0.4913  0.2324 -0.1267
18825TIP3    H277967   0.750   6.695   4.974 -0.8823 -1.0189  0.6985
18826TIP3   OH277968   0.012   2.793  12.600  0.1496  0.3312 -0.5481
18826TIP3    H177969   0.087   2.801  12.659  0.7730 -2.5059 -0.8089
18826TIP3    H277970   0.034   2.849  12.525  1.1297  0.9605  0.1850
18827TIP3   OH277971   4.166   0.370  11.787  0.0734  0.1102 -0.0301
18827TIP3    H177972   4.122   0.336  11.709  0.6152 -0.1200 -0.2361
18827TIP3    H277973   4.259   0.360  11.769  0.2097 -1.3545  1.2523
18828TIP3   OH277974   0.436   4.792  13.381 -0.3045 -0.3324 -0.1191
18828TIP3    H177975   0.395   4.866  13.335 -0.3509  0.4366  1.1124
18828TIP3    H277976   0.528   4.817  13.388 -0.6343  0.4922  1.8871
18829TIP3   OH277977   5.953   2.841  16.736  0.4889 -0.2415 -0.2532
18829TIP3    H177978   5.903   2.762  16.757 -0.4095  0.7302  1.5128
18829TIP3    H277979   5.893   2.894  16.683  0.0831  0.3797  0.8039
18830TIP3   OH277980   1.727   5.940  17.185 -0.0834 -0.6993  0.0844
18830TIP3    H177981   1.699   5.946  17.277 -0.0027 -4.4654  0.5123
18830TIP3    H277982   1.818   5.910  17.190  0.7427  1.3848 -1.3069
18831TIP3   OH277983   3.571   4.703  10.795  0.1277 -0.3392 -0.2709
18831TIP3    H177984   3.548   4.692  10.703  1.1676  1.5775 -0.8013
18831TIP3    H277985   3.539   4.790  10.818 -2.2857 -1.6551  1.9295
18832TIP3   OH277986   6.798   6.311   6.222 -0.0433  0.6407  0.1312
18832TIP3    H177987   6.728   6.340   6.280 -0.7552 -0.7873  0.0232
18832TIP3    H277988   6.754   6.290   6.140  0.5345 -0.0702 -0.0084
18833TIP3   OH277989   1.301   4.920   1.879 -0.6292  0.3347 -0.0133
18833TIP3    H177990   1.287   5.008   1.844 -0.8594  1.0612  1.7724
18833TIP3    H277991   1.214   4.892   1.908 -0.4748 -0.2737 -0.1355
18834TIP3   OH277992   4.116   5.509   3.105  0.1190  0.1007 -0.2769
18834TIP3    H177993   4.074   5.423   3.102 -2.3258  1.1851  0.0095
18834TIP3    H277994   4.184   5.501   3.172 -2.5478 -0.6956  2.6130
18835TIP3   OH277995   2.604   3.183  13.635  0.0892  0.0402 -0.5470
18835TIP3    H177996   2.622   3.233  13.715 -1.7915 -1.6381  1.0292
18835TIP3    H277997   2.691   3.157  13.604  0.8869 -1.5213  2.5141
18836TIP3   OH277998   2.435   6.317   5.877  0.0140 -0.7274  0.8715
18836TIP3    H177999   2.375   6.392   5.881  1.7562  0.8291 -0.2370
18836TIP3    H278000   2.501   6.336   5.943  1.2832 -0.4691 -0.4161
18837TIP3   OH278001   6.748   6.419   1.337  0.3514  0.1512  0.6134
18837TIP3    H178002   6.683   6.373   1.388 -0.5084  0.3127 -0.3130
18837TIP3    H278003   6.725   6.402   1.246  1.8519 -0.1355  0.2597
18838TIP3   OH278004   5.520   0.001   0.732  0.1039 -0.6602  0.1910
18838TIP3    H178005   5.519   0.046   0.816  1.0780 -0.0340 -0.1121
18838TIP3    H278006   5.551  -0.087   0.752  0.9510 -0.3207  0.4118
18839TIP3   OH278007   3.209   2.340  13.283  0.2190  0.5845 -0.4235
18839TIP3    H178008   3.149   2.284  13.235  0.8016 -0.0096 -0.4678
18839TIP3    H278009   3.209   2.422  13.234 -0.7319  0.6835 -0.2865
18840TIP3   OH278010   5.105   4.573  15.183 -0.0824 -0.2540 -0.4931
18840TIP3    H178011   5.101   4.668  15.167  1.5318 -0.2461 -0.9784
18840TIP3    H278012   5.076   4.534  15.101  1.0779 -0.1758 -0.9521
18841TIP3   OH278013   2.375   3.775   6.325  0.0762  0.6670 -0.2246
18841TIP3    H178014   2.462   3.759   6.362 -0.8003  0.3982  1.8881
18841TIP3    H278015   2.320   3.707   6.365 -0.8530 -0.0606 -2.6115
18842TIP3   OH278016   4.807   4.418   5.284 -0.2707 -0.0258  0.2628
18842TIP3    H178017   4.806   4.332   5.242  0.8851  0.2429 -0.3680
18842TIP3    H278018   4.875   4.411   5.351  1.6651  1.0723 -1.4351
18843TIP3   OH278019   3.330   0.365   5.442  0.6702  0.1745  0.1461
18843TIP3    H178020   3.399   0.431   5.431 -1.1457  2.3901  1.1658
18843TIP3    H278021   3.266   0.386   5.373  0.1168 -0.6380  0.4004
18844TIP3   OH278022   1.019   5.728  15.892  0.3725  0.4044 -0.2444
18844TIP3    H178023   0.997   5.635  15.880 -1.7861  1.0009 -1.5183
18844TIP3    H278024   1.114   5.730  15.896  0.4545 -1.9203  0.3311
18845TIP3   OH278025   2.591   2.623  14.845 -0.0437 -0.6193  0.3567
18845TIP3    H178026   2.588   2.650  14.937 -2.8260  0.0147  0.1540
18845TIP3    H278027   2.545   2.540  14.842 -0.1761 -0.5249 -0.4949
18846TIP3   OH278028   6.127   1.731   4.692  0.2174 -0.3446  0.7181
18846TIP3    H178029   6.080   1.812   4.713 -0.3931 -0.5201  0.0516
18846TIP3    H278030   6.219   1.757   4.687 -0.0252  0.4081  0.0164
18847TIP3   OH278031   1.401   5.817   1.610 -0.5091  0.6653  0.0824
18847TIP3    H178032   1.367   5.756   1.676 -0.6329 -1.2600 -1.6510
18847TIP3    H278033   1.377   5.777   1.526  1.5547  1.8870 -1.1673
18848TIP3   OH278034   2.262   3.677  17.079  0.1053  0.1697 -0.3799
18848TIP3    H178035   2.237   3.695  17.170  1.3559  0.8441 -0.1347
18848TIP3    H278036   2.323   3.603  17.086  0.4371  0.4158 -0.6197
18849TIP3   OH278037   6.517   4.896  13.913  0.4514 -0.2366 -0.3564
18849TIP3    H178038   6.522   4.834  13.840  0.9482 -1.5683  0.7729
18849TIP3    H278039   6.452   4.858  13.973  1.0930  0.0856  0.5679
18850TIP3   OH278040   6.189   4.500  17.128  0.4669  0.3806 -0.0054
18850TIP3    H178041   6.256   4.567  17.121 -1.2001  1.9391 -2.1486
18850TIP3    H278042   6.121   4.540  17.182  0.5449 -0.6015  0.8570
18851TIP3   OH278043   6.665   3.266   3.010 -0.0657 -0.1410 -0.4528
18851TIP3    H178044   6.617   3.328   2.956  0.7510  0.8140 -0.1129
18851TIP3    H278045   6.644   3.291   3.100 -0.5892 -1.0533 -0.3086
18852TIP3   OH278046   4.386   1.147   5.285  0.4616 -0.0589  0.2403
18852TIP3    H178047   4.468   1.103   5.307  0.3208 -1.5920 -1.9821
18852TIP3    H278048   4.401   1.185   5.199 -0.4448  1.7052  0.7993
18853TIP3   OH278049   2.862   4.483  15.357 -0.2483 -0.6824  0.2165
18853TIP3    H178050   2.815   4.523  15.430  0.4680  0.3997  0.1022
18853TIP3    H278051   2.808   4.501  15.280  0.8252  1.5518 -0.0965
18854TIP3   OH278052   2.053   0.183   3.574 -0.3438  0.0636 -0.0143
18854TIP3    H178053   2.053   0.266   3.621 -0.2817 -0.3569  0.7404
18854TIP3    H278054   2.005   0.201   3.493  0.0415  0.9395 -0.0579
18855TIP3   OH278055   0.883   2.082  15.383  0.1482  0.6548 -0.3681
18855TIP3    H178056   0.853   2.171  15.405 -0.9141  0.4465 -0.9201
18855TIP3    H278057   0.806   2.040  15.344 -0.4490 -1.6028  2.7838
18856TIP3   OH278058   6.803   1.331  11.436  0.8315  0.0933 -0.6381
18856TIP3    H178059   6.860   1.309  11.510 -2.3666 -2.5108  1.3024
18856TIP3    H278060   6.778   1.422  11.451  1.0303 -0.0876  0.9240
18857TIP3   OH278061   3.746   1.347  15.663  0.0957 -0.3257 -0.5154
18857TIP3    H178062   3.833   1.377  15.636  0.2699 -0.1852  0.1774
18857TIP3    H278063   3.751   1.251  15.656  0.6334 -0.3833  0.4308
18858TIP3   OH278064   3.554   5.171  13.083 -0.1146  0.7134 -0.3498
18858TIP3    H178065   3.491   5.147  13.015  1.7800  0.8689 -2.2697
18858TIP3    H278066   3.558   5.094  13.141 -0.1773 -0.3446 -1.7017
18859TIP3   OH278067   6.816   0.131  16.716 -0.3579  1.1133 -0.5986
18859TIP3    H178068   6.902   0.172  16.721  0.1330  0.0482  0.3949
18859TIP3    H278069   6.792   0.115  16.808 -2.0808  2.3083 -0.8058
18860TIP3   OH278070   1.760   5.683   2.872  0.3841 -0.1755  0.5801
18860TIP3    H178071   1.853   5.668   2.885  0.3773 -0.0994  0.7144
18860TIP3    H278072   1.747   5.673   2.778  0.5682  0.0540  0.5306
18861TIP3   OH278073   1.747   4.708   5.281 -0.1731 -0.5391 -0.3075
18861TIP3    H178074   1.826   4.662   5.306  0.7426  1.6441  1.0984
18861TIP3    H278075   1.678   4.669   5.333  0.4547 -0.7763  0.3521
18862TIP3   OH278076   3.884   3.908  14.424 -0.3963  0.0174 -0.3069
18862TIP3    H178077   3.929   3.992  14.421 -0.1328 -0.1167 -0.0671
18862TIP3    H278078   3.795   3.929  14.453  0.2339 -0.0198  1.7969
18863TIP3   OH278079   0.352   0.549  15.601  0.0498 -0.1207 -0.0487
18863TIP3    H178080   0.426   0.503  15.639 -0.1729 -0.5748 -0.1516
18863TIP3    H278081   0.367   0.641  15.621 -0.3828 -0.3989  1.7075
18864TIP3   OH278082   6.314   4.607   1.963 -0.1669  0.0541  0.3348
18864TIP3    H178083   6.266   4.592   2.045 -1.1369 -1.3863 -0.4471
18864TIP3    H278084   6.389   4.547   1.967  0.0707  0.3577  0.4006
18865TIP3   OH278085   1.027   0.260   4.446  0.0029  0.1448  0.0129
18865TIP3    H178086   1.040   0.341   4.495 -0.2433  0.1097  0.1358
18865TIP3    H278087   0.932   0.248   4.443  0.0818 -1.2819  1.8558
18866TIP3   OH278088   4.707   6.013  11.309  0.2332 -0.0220  0.3461
18866TIP3    H178089   4.785   6.026  11.256  0.7158 -2.1569  0.4295
18866TIP3    H278090   4.734   5.950  11.376 -1.5904 -1.0508  0.1896
18867TIP3   OH278091   4.816   5.228  13.092 -0.5502  0.0002  0.0583
18867TIP3    H178092   4.727   5.252  13.115 -0.6105  2.0553 -1.9475
18867TIP3    H278093   4.871   5.283  13.147 -0.6548  2.1243 -1.8162
18868TIP3   OH278094   1.531   1.168  16.617  0.4827 -0.7239 -0.0897
18868TIP3    H178095   1.505   1.229  16.547  2.2097  0.3640  0.1584
18868TIP3    H278096   1.536   1.222  16.696  0.7798 -1.4543  0.4023
18869TIP3   OH278097   5.878   5.177  11.995 -0.1343 -0.7597  0.2579
18869TIP3    H178098   5.872   5.267  12.027  0.3295 -0.9227  0.8340
18869TIP3    H278099   5.827   5.126  12.058 -1.8699 -0.6967 -1.0288
18870TIP3   OH278100   0.978   3.646  15.657 -0.3503  0.0855 -0.0983
18870TIP3    H178101   1.036   3.721  15.666  0.4255 -0.5657  0.5161
18870TIP3    H278102   0.991   3.616  15.567 -1.0128  0.9421 -0.4979
18871TIP3   OH278103   1.310   5.178  13.961 -0.3755 -0.3886  0.2518
18871TIP3    H178104   1.283   5.264  13.929 -2.7605 -2.0551 -2.7117
18871TIP3    H278105   1.388   5.158  13.909 -0.4333 -0.4447  0.1864
18872TIP3   OH278106   5.846   1.373  10.974 -0.5881 -0.3068 -0.2319
18872TIP3    H178107   5.868   1.398  10.884 -0.2291 -0.1774 -0.1083
18872TIP3    H278108   5.899   1.296  10.992  0.1651  0.3068  0.2434
18873TIP3   OH278109   3.724   5.943  14.373  0.8877  0.2149 -0.3222
18873TIP3    H178110   3.754   5.905  14.456 -1.0294  1.5008  1.0296
18873TIP3    H278111   3.657   5.882  14.342  1.0325  0.1598 -0.5354
18874TIP3   OH278112   2.053   4.197  11.144 -0.5114 -0.3368  0.3224
18874TIP3    H178113   1.968   4.229  11.114 -0.4496  0.1169  0.6265
18874TIP3    H278114   2.037   4.106  11.169 -0.0634 -1.6863 -3.5087
18875TIP3   OH278115   3.552   3.511  15.594 -0.2044 -0.4052  0.4447
18875TIP3    H178116   3.577   3.547  15.679 -0.7514 -1.0601  0.8898
18875TIP3    H278117   3.621   3.448  15.573 -0.0099 -0.1621  0.3414
18876TIP3   OH278118   3.384   1.440   3.050 -0.0214 -0.4918 -0.0747
18876TIP3    H178119   3.405   1.468   2.960  1.3726  0.0418  0.3867
18876TIP3    H278120   3.469   1.440   3.095 -0.7630 -0.3112  1.3758
18877TIP3   OH278121   4.593   4.003  13.939 -0.1107 -0.2519 -0.1919
18877TIP3    H178122   4.640   3.974  14.017  2.4347  1.6776 -0.8770
18877TIP3    H278123   4.634   4.086  13.915 -3.8685  1.5638 -1.0105
18878TIP3   OH278124   3.366   0.729   3.826 -0.0724  0.4311  0.5498
18878TIP3    H178125   3.432   0.785   3.786 -1.4550  0.4459 -1.9003
18878TIP3    H278126   3.292   0.788   3.844 -0.4383 -0.0755  0.7407
18879TIP3   OH278127   5.940   6.343   0.835 -0.4979  0.3172  0.3343
18879TIP3    H178128   5.972   6.431   0.817 -1.0931  0.4555 -0.0858
18879TIP3    H278129   5.954   6.295   0.753 -0.0950 -0.0127  0.5856
18880TIP3   OH278130   1.074   5.626   6.139  0.1285 -0.2191 -0.1757
18880TIP3    H178131   1.131   5.680   6.084  0.9197  0.3508  1.1546
18880TIP3    H278132   1.088   5.537   6.107 -0.1083  0.1845 -1.4675
18881TIP3   OH278133   5.808   3.202   2.003 -0.4970 -0.0986 -0.6393
18881TIP3    H178134   5.815   3.180   1.910  2.6697  1.2755 -0.8482
18881TIP3    H278135   5.891   3.244   2.024 -1.2194 -0.1096  2.7842
18882TIP3   OH278136   3.559   1.051  13.769 -0.2967  0.0697 -0.2248
18882TIP3    H178137   3.528   1.119  13.829  2.0838  0.3991  0.7799
18882TIP3    H278138   3.515   0.972  13.797  0.8665  0.1753  2.1992
18883TIP3   OH278139   2.458   0.116  12.289 -0.6057  0.2552 -0.3486
18883TIP3    H178140   2.490   0.071  12.210 -0.3995 -0.3071  0.0567
18883TIP3    H278141   2.505   0.199  12.289 -0.8152  0.3808 -0.9709
18884TIP3   OH278142   2.501   4.294   1.806  0.2961 -0.2412  0.4665
18884TIP3    H178143   2.455   4.219   1.844 -0.0981 -0.2750 -0.0603
18884TIP3    H278144   2.431   4.358   1.789  0.8019  0.9100  2.3907
18885TIP3   OH278145   0.384   3.353   3.121 -0.1397  0.0962  0.0884
18885TIP3    H178146   0.464   3.365   3.069 -0.5349 -0.5329 -0.7007
18885TIP3    H278147   0.313   3.365   3.058 -0.6458 -0.0912  0.6200
18886TIP3   OH278148   1.728   0.607  17.165  0.0072 -0.3575 -0.7684
18886TIP3    H178149   1.689   0.614  17.252 -0.4722  1.3132 -1.0895
18886TIP3    H278150   1.805   0.552  17.177 -0.0172 -0.0901  0.7220
18887TIP3   OH278151   0.261   2.303   2.104  0.2305  0.8816  0.0918
18887TIP3    H178152   0.315   2.330   2.179 -1.0178 -0.8138  1.7113
18887TIP3    H278153   0.311   2.232   2.064  0.5240  1.2446 -0.1895
18888TIP3   OH278154   5.700   3.041  14.439 -0.4591 -0.2291  0.6236
18888TIP3    H178155   5.733   3.131  14.441 -2.0701  0.4019  0.6143
18888TIP3    H278156   5.624   3.043  14.497 -1.9825 -0.9547 -1.2394
18889TIP3   OH278157   0.681   3.290  12.526 -0.0039 -0.2824  0.6623
18889TIP3    H178158   0.682   3.235  12.448  0.1598 -0.2734  0.6587
18889TIP3    H278159   0.592   3.325  12.529 -0.8729 -2.3581  1.9286
18890TIP3   OH278160   2.575   2.740  16.050 -0.6081  0.0150  0.4595
18890TIP3    H178161   2.670   2.747  16.060 -0.3947  0.4675 -1.4883
18890TIP3    H278162   2.553   2.658  16.092  0.6756 -0.1810  0.8012
18891TIP3   OH278163   0.634   5.868   3.128 -0.8540 -0.1477  0.1912
18891TIP3    H178164   0.551   5.912   3.110  0.6961  2.3588 -1.4461
18891TIP3    H278165   0.669   5.913   3.205 -0.1306  0.2433 -0.3455
18892TIP3   OH278166   4.902   5.962   0.457  0.0968 -0.5125  0.1126
18892TIP3    H178167   4.846   5.924   0.525  0.7737 -0.1463  0.8900
18892TIP3    H278168   4.842   6.014   0.403  0.0215  2.1588  2.5587
18893TIP3   OH278169   6.681   3.427  12.367  0.0636  0.6019  0.2556
18893TIP3    H178170   6.644   3.349  12.325 -1.7247  1.7173 -0.3635
18893TIP3    H278171   6.733   3.392  12.439  1.4309 -1.2647 -1.5234
18894TIP3   OH278172   4.754   5.219  15.834 -0.2841  0.0239 -0.0087
18894TIP3    H178173   4.726   5.255  15.918 -1.8694  2.9210 -1.6310
18894TIP3    H278174   4.844   5.250  15.823  0.8696 -2.4478  1.5946
18895TIP3   OH278175   1.868   3.445   1.460  0.1466 -0.9333 -0.5543
18895TIP3    H178176   1.834   3.519   1.409 -1.4741 -1.3620 -0.1579
18895TIP3    H278177   1.921   3.395   1.398 -1.5051 -1.2560 -1.7883
18896TIP3   OH278178   3.947   5.053   6.213  0.4837  0.6731  0.1876
18896TIP3    H178179   3.856   5.077   6.229  0.0863 -1.0735  0.7948
18896TIP3    H278180   3.955   5.051   6.118  0.0120  1.2594  0.1322
18897TIP3   OH278181   5.137   2.845   0.869 -0.5275 -0.4847 -0.1067
18897TIP3    H178182   5.122   2.926   0.820 -0.4086 -0.5312 -0.2215
18897TIP3    H278183   5.150   2.778   0.802 -0.0658 -0.4902 -0.0166
18898TIP3   OH278184   4.747   5.860  12.047  0.2627 -0.1432  0.2820
18898TIP3    H178185   4.740   5.934  12.107 -1.3569  1.7288 -2.0037
18898TIP3    H278186   4.664   5.813  12.057  0.9896 -1.2792  1.2023
18899TIP3   OH278187   0.146   6.723   4.699 -0.6841  1.3249  0.8370
18899TIP3    H178188   0.233   6.765   4.695  0.6585 -1.2843  0.7518
18899TIP3    H278189   0.122   6.710   4.608  0.5545 -1.1223  0.7821
18900TIP3   OH278190   3.047   1.908   0.648 -0.0904  0.0446  0.3248
18900TIP3    H178191   2.985   1.935   0.716  0.9324  0.3932  1.1255
18900TIP3    H278192   3.029   1.814   0.636 -1.2638  0.2907  0.0188
18901TIP3   OH278193   4.241   6.328   3.266 -0.3442  0.6753  1.0419
18901TIP3    H178194   4.237   6.251   3.322 -1.4160  0.5546  0.8224
18901TIP3    H278195   4.154   6.334   3.227  0.9020 -0.4117 -2.2238
18902TIP3   OH278196   6.525   1.055   6.214  0.0230  0.1475 -0.5862
18902TIP3    H178197   6.457   1.118   6.240 -0.8593 -1.0050 -0.0070
18902TIP3    H278198   6.493   0.971   6.247  0.8957 -0.7062 -1.8519
18903TIP3   OH278199   0.347   2.477  11.242  0.1267  0.3444  0.6041
18903TIP3    H178200   0.328   2.387  11.216  0.3879  0.5147 -0.2075
18903TIP3    H278201   0.418   2.505  11.184 -0.0668  1.1292  0.7259
18904TIP3   OH278202   0.194   6.745  16.932  0.0214 -0.3177 -0.4294
18904TIP3    H178203   0.220   6.730  16.841 -0.5642 -0.1103 -0.6352
18904TIP3    H278204   0.237   6.674  16.981  2.4467  1.0107 -0.4716
18905TIP3   OH278205   4.624   0.127  14.463  0.5750 -0.1469 -0.1244
18905TIP3    H178206   4.621   0.035  14.436  0.4860  0.1055 -1.0196
18905TIP3    H278207   4.611   0.125  14.557  4.4342 -1.3612  0.5414
18906TIP3   OH278208   1.040   5.137  13.723 -0.0927 -0.4955 -0.1287
18906TIP3    H178209   1.038   5.212  13.782 -1.2243  0.6406 -1.5219
18906TIP3    H278210   1.115   5.086  13.751 -0.6807 -0.1188  2.3864
18907TIP3   OH278211   0.910   2.773  12.769 -0.0600 -0.2791  0.0532
18907TIP3    H178212   0.943   2.850  12.723 -0.0462 -0.0236  0.4796
18907TIP3    H278213   0.987   2.716  12.777  0.2427  0.2142  0.8378
18908TIP3   OH278214   3.823   4.684  11.313 -0.0750  0.3396 -0.5548
18908TIP3    H178215   3.761   4.622  11.352  1.6417 -0.6797  0.6994
18908TIP3    H278216   3.837   4.749  11.382  1.9278 -0.7080  0.1028
18909TIP3   OH278217   1.674   2.020   5.644 -0.2775 -0.4900 -0.3368
18909TIP3    H178218   1.715   2.051   5.563 -2.0779 -3.1863 -2.4835
18909TIP3    H278219   1.700   1.928   5.651 -2.3299 -1.0762  0.5908
18910TIP3   OH278220   1.139   5.061   4.656  0.2711 -0.1122  0.2594
18910TIP3    H178221   1.046   5.083   4.649  0.4264  0.9821  1.4077
18910TIP3    H278222   1.147   5.014   4.739  0.5389 -1.4297 -0.4821
18911TIP3   OH278223   1.212   4.100  12.527  0.3440 -0.6131  0.1201
18911TIP3    H178224   1.177   4.043  12.458 -0.2156  1.5388 -1.4528
18911TIP3    H278225   1.169   4.068  12.607  0.9335 -3.0971 -0.4522
18912TIP3   OH278226   3.041   4.778   1.801  0.4440  0.4390 -0.0053
18912TIP3    H178227   3.063   4.850   1.861 -0.9529  0.1473  0.9136
18912TIP3    H278228   3.050   4.699   1.855 -0.1052  0.1129 -0.3827
18913TIP3   OH278229   0.743   0.147   6.491 -0.1228 -0.3672 -0.8618
18913TIP3    H178230   0.807   0.177   6.426 -1.6812 -1.5095 -3.0335
18913TIP3    H278231   0.662   0.135   6.442 -1.3961 -1.2641  1.3160
18914TIP3   OH278232   6.253   4.080   0.289  0.0237  0.7926  0.1477
18914TIP3    H178233   6.209   4.054   0.209 -0.6546 -3.1110  1.5474
18914TIP3    H278234   6.340   4.040   0.283  0.5368  1.7704  0.7351
18915TIP3   OH278235   4.955   5.114  13.619  0.0380  0.2171 -0.0509
18915TIP3    H178236   4.982   5.066  13.540 -0.6544 -0.1144 -0.0929
18915TIP3    H278237   5.002   5.197  13.614 -0.6299  0.5519 -1.2577
18916TIP3   OH278238   6.374   1.481   5.724  0.9146  0.0635  0.5758
18916TIP3    H178239   6.320   1.530   5.662  0.4386  0.3201  1.1727
18916TIP3    H278240   6.316   1.411   5.756  0.9967  0.2046  1.0524
18917TIP3   OH278241   6.121   0.452  16.486 -0.3661 -0.5025  0.2347
18917TIP3    H178242   6.117   0.357  16.479  0.0650 -0.4996 -0.1270
18917TIP3    H278243   6.051   0.475  16.548 -0.3603 -1.0641  0.4543
18918TIP3   OH278244   0.385   2.946   5.762  0.0409 -0.4041 -0.1752
18918TIP3    H178245   0.351   2.884   5.827  0.3632 -0.8877 -0.4623
18918TIP3    H278246   0.462   2.902   5.725 -0.3141 -0.2618 -1.1004
18919TIP3   OH278247   6.677   2.566  13.447  0.1314 -0.5527 -0.0575
18919TIP3    H178248   6.638   2.523  13.371  0.4071 -1.2286  0.1787
18919TIP3    H278249   6.651   2.512  13.521 -0.5105  0.3415  0.4055
18920TIP3   OH278250   4.704   3.966  12.746 -0.1286 -0.7386 -0.0736
18920TIP3    H178251   4.731   3.878  12.718 -0.5292 -2.0635  3.3022
18920TIP3    H278252   4.776   4.022  12.718  1.1789 -2.4889 -0.4427
18921TIP3   OH278253   6.413   1.242   0.330 -0.1444 -0.2738  0.2806
18921TIP3    H178254   6.388   1.324   0.372  0.7270 -1.3916  3.2325
18921TIP3    H278255   6.489   1.265   0.276 -1.6031  1.3192 -1.1931
18922TIP3   OH278256   4.357   4.881  16.841  0.6491  0.4090  0.3254
18922TIP3    H178257   4.383   4.971  16.821 -0.0304  0.4541 -0.3830
18922TIP3    H278258   4.440   4.833  16.845  0.9576  0.8982 -0.1449
18923TIP3   OH278259   1.344   6.082   2.575 -0.1262  0.0229  0.9178
18923TIP3    H178260   1.256   6.075   2.612 -0.5652 -1.9491 -0.2979
18923TIP3    H278261   1.338   6.033   2.492  2.2007 -0.5017  0.9987
18924TIP3   OH278262   2.175   5.621  16.709 -0.0871 -0.7992 -0.4414
18924TIP3    H178263   2.134   5.600  16.625 -2.5287  3.2354 -0.5057
18924TIP3    H278264   2.113   5.588  16.775 -1.0632  0.9708 -0.4282
18925TIP3   OH278265   2.833   4.538  13.846  0.3116 -0.1503 -0.1498
18925TIP3    H178266   2.921   4.519  13.813  0.9652  2.2655 -0.0075
18925TIP3    H278267   2.799   4.605  13.787 -0.0005  1.5074  1.7740
18926TIP3   OH278268   2.081   1.319  11.892  0.2783 -0.1827 -0.3122
18926TIP3    H178269   2.171   1.339  11.865 -0.2895  1.2846 -1.2340
18926TIP3    H278270   2.073   1.355  11.980  0.5458 -0.1549 -0.2980
18927TIP3   OH278271   0.228   0.959  11.995  0.7654 -0.1630  0.3557
18927TIP3    H178272   0.282   0.886  12.027  1.5708 -0.4688 -1.5680
18927TIP3    H278273   0.290   1.015  11.948 -0.3007  0.3968 -0.4066
18928TIP3   OH278274   2.122   5.739  16.136  0.0359  0.5700 -0.1809
18928TIP3    H178275   2.186   5.682  16.093 -0.3010  0.7955 -0.9948
18928TIP3    H278276   2.169   5.822  16.148  0.5782  0.0960  1.1485
18929TIP3   OH278277   2.806   3.331  13.408  0.3517 -0.4443  0.4333
18929TIP3    H178278   2.740   3.280  13.454 -0.3007 -0.0360 -0.0274
18929TIP3    H278279   2.757   3.378  13.340  1.2223 -0.7192 -0.4137
18930TIP3   OH278280   1.376   3.904   0.577 -0.1666 -0.4639  0.0166
18930TIP3    H178281   1.292   3.944   0.600 -0.3026 -0.5228 -0.3705
18930TIP3    H278282   1.396   3.846   0.650  0.2543  0.6407  0.8201
18931TIP3   OH278283   2.817   0.433  15.854 -0.4610  0.0216  0.0173
18931TIP3    H178284   2.786   0.522  15.871  0.3731  0.2236  0.5220
18931TIP3    H278285   2.769   0.379  15.918 -0.6120  0.1723  0.0324
18932TIP3   OH278286   0.153   2.901  12.992  0.4994  0.4399  0.7112
18932TIP3    H178287   0.080   2.839  12.983  1.0179 -0.1697  0.6823
18932TIP3    H278288   0.196   2.877  13.074  2.7796 -1.5102 -0.9234
18933TIP3   OH278289   3.039   1.269  11.146  0.2251 -0.3010 -0.0438
18933TIP3    H178290   3.133   1.258  11.131  0.5381  2.3798 -0.4707
18933TIP3    H278291   3.002   1.281  11.059 -0.4597 -0.8261  0.1651
18934TIP3   OH278292   1.489   2.752   2.011  0.4195 -0.0628  0.0197
18934TIP3    H178293   1.551   2.820   1.985 -0.4960  0.4522 -0.8554
18934TIP3    H278294   1.466   2.708   1.929 -0.4207 -0.2101  0.3297
18935TIP3   OH278295   3.768   3.547  14.035  0.3587  0.0289 -0.3307
18935TIP3    H178296   3.681   3.518  14.061  0.3298 -1.2749 -1.7102
18935TIP3    H278297   3.828   3.500  14.092  0.2085 -0.7553 -0.7985
18936TIP3   OH278298   5.726   0.984   2.451  0.1216  0.0745 -0.2779
18936TIP3    H178299   5.799   0.971   2.390  0.0242  3.8813 -1.4478
18936TIP3    H278300   5.767   1.024   2.528  0.1851 -4.3278  2.2786
18937TIP3   OH278301   1.110   2.796   0.577  0.4117 -0.1959 -0.2207
18937TIP3    H178302   1.043   2.816   0.643 -0.2548 -3.0587  0.0961
18937TIP3    H278303   1.192   2.822   0.619 -0.2563  1.1624  0.3284
18938TIP3   OH278304   5.091   2.825  15.195  0.3171 -0.0735  0.1095
18938TIP3    H178305   5.152   2.824  15.269  0.7122  2.0958 -0.1208
18938TIP3    H278306   5.141   2.787  15.122  0.0155 -1.9611  0.8309
18939TIP3   OH278307   1.783   3.242  16.048 -0.6131  0.0837  0.6533
18939TIP3    H178308   1.702   3.229  15.999 -0.9704  0.4297  1.1449
18939TIP3    H278309   1.828   3.158  16.043 -1.2591 -0.2797  0.8511
18940TIP3   OH278310   0.633   4.721   0.248  0.2864  0.2511 -0.1598
18940TIP3    H178311   0.688   4.796   0.228 -1.3653  1.7342  0.5471
18940TIP3    H278312   0.600   4.738   0.337 -1.0253 -0.7114 -0.4272
18941TIP3   OH278313   5.425   5.811   1.672 -0.5386 -0.1930 -0.2435
18941TIP3    H178314   5.512   5.817   1.634 -1.4394 -1.7006 -2.8294
18941TIP3    H278315   5.388   5.899   1.665  1.0775  0.7332  1.9099
18942TIP3   OH278316   5.629   1.967   5.009 -0.3911  0.0356  0.3353
18942TIP3    H178317   5.622   2.055   4.974  0.3576 -0.1185 -0.2046
18942TIP3    H278318   5.541   1.949   5.044 -0.5696  0.9562  0.3944
18943TIP3   OH278319   5.322   4.618  12.399  0.0513  0.2634  0.0285
18943TIP3    H178320   5.230   4.643  12.401 -0.3311 -0.9848 -0.8507
18943TIP3    H278321   5.334   4.575  12.315  1.4550  0.4285  0.1111
18944TIP3   OH278322   1.517   6.149  11.323  0.1607 -0.2050  0.2646
18944TIP3    H178323   1.456   6.166  11.252  0.6820 -1.5898 -0.5576
18944TIP3    H278324   1.583   6.218  11.316 -0.0833 -0.0266 -0.2578
18945TIP3   OH278325   4.142   3.810   0.383 -0.3906  0.5496 -0.0424
18945TIP3    H178326   4.048   3.819   0.369 -0.4314 -0.0967 -0.2379
18945TIP3    H278327   4.157   3.715   0.380  0.2313  0.6367  0.2135
18946TIP3   OH278328   3.133   1.909  12.138 -0.1419 -0.3042 -0.2557
18946TIP3    H178329   3.148   1.820  12.105  3.6225 -0.7790  2.0340
18946TIP3    H278330   3.179   1.965  12.076  1.6856 -0.5695  0.7798
18947TIP3   OH278331   1.450   0.419  11.902  0.1419  0.0065 -0.1114
18947TIP3    H178332   1.405   0.484  11.956 -0.2936 -1.1433  0.9642
18947TIP3    H278333   1.425   0.335  11.940 -0.7720 -0.9194 -2.5629
18948TIP3   OH278334   2.495   0.842  16.334  0.1075 -0.0265  0.3742
18948TIP3    H178335   2.529   0.825  16.246 -0.6505  0.5160 -0.0339
18948TIP3    H278336   2.572   0.838  16.390  0.7988  0.7601 -0.4744
18949TIP3   OH278337   5.790   6.108   6.119  0.3910 -0.0095 -0.3782
18949TIP3    H178338   5.871   6.079   6.077 -1.1362 -3.0999 -1.5307
18949TIP3    H278339   5.741   6.027   6.133 -2.2281  1.6729  0.8978
18950TIP3   OH278340   0.126   2.906   5.192  0.5218 -0.1102 -0.6973
18950TIP3    H178341   0.061   2.836   5.201 -0.2171  0.5940 -0.4846
18950TIP3    H278342   0.196   2.881   5.252  1.3303 -1.8242 -2.2487
18951TIP3   OH278343   1.358   0.411   0.281  0.1318  0.0288  0.0410
18951TIP3    H178344   1.342   0.455   0.198 -1.8900 -0.0115  0.3455
18951TIP3    H278345   1.422   0.343   0.260  0.7270  0.9262 -1.1563
18952TIP3   OH278346   6.623   5.353  17.235  0.3725 -0.0656 -0.2091
18952TIP3    H178347   6.685   5.412  17.277 -0.5010 -1.1662  2.8457
18952TIP3    H278348   6.578   5.408  17.171  2.7580  1.3445 -0.7929
18953TIP3   OH278349   6.414   0.356   0.487  0.0666 -0.9988  0.0094
18953TIP3    H178350   6.354   0.289   0.519 -1.1684  0.6370  1.2608
18953TIP3    H278351   6.448   0.398   0.566  3.7380 -2.4939 -0.5590
18954TIP3   OH278352   4.611   0.792  11.295  0.1756 -0.8571  0.5115
18954TIP3    H178353   4.529   0.758  11.333 -0.7939 -0.6739 -1.3205
18954TIP3    H278354   4.633   0.868  11.350 -0.3508 -1.4810  1.6114
18955TIP3   OH278355   0.753   0.260   4.495  0.1484 -0.0707  0.0456
18955TIP3    H178356   0.772   0.207   4.573  2.2169  0.4005 -0.0709
18955TIP3    H278357   0.696   0.330   4.526  3.0846  1.7055  1.8438
18956TIP3   OH278358   5.141   5.686   4.519 -0.4743 -0.0998 -0.0019
18956TIP3    H178359   5.212   5.686   4.583 -1.1474  0.8520  0.7721
18956TIP3    H278360   5.076   5.746   4.555 -0.8570  0.4879 -1.5891
18957TIP3   OH278361   3.147   1.632  14.649  0.2146 -0.6587  0.0169
18957TIP3    H178362   3.238   1.630  14.619 -0.0207  0.9604 -0.9285
18957TIP3    H278363   3.144   1.704  14.712 -0.6352  0.0554 -0.8173
18958TIP3   OH278364   3.674   5.935  13.365 -1.1091  0.3093  0.6749
18958TIP3    H178365   3.654   5.866  13.428 -1.1220 -0.5953 -0.2955
18958TIP3    H278366   3.683   5.889  13.281  0.4225  1.2888  0.2730
18959TIP3   OH278367   4.582   2.181  14.039  0.0270  0.8151 -0.1913
18959TIP3    H178368   4.620   2.137  13.963 -1.3219  0.1790 -0.5277
18959TIP3    H278369   4.576   2.273  14.013  1.0781  0.8988 -0.2119
18960TIP3   OH278370   1.338   3.242  12.799 -0.2990 -0.4631  0.2459
18960TIP3    H178371   1.346   3.286  12.884 -0.6669 -0.9951  0.5689
18960TIP3    H278372   1.428   3.220  12.775 -0.0909  0.5941 -0.0032
18961TIP3   OH278373   3.841   4.127  10.988  0.2486 -0.7737 -0.0648
18961TIP3    H178374   3.750   4.117  10.960 -0.2624  0.0790  1.2105
18961TIP3    H278375   3.847   4.075  11.068  0.4003  0.5256  0.7950
18962TIP3   OH278376   4.757   0.513   6.062  0.5847 -0.4243  0.5791
18962TIP3    H178377   4.776   0.465   5.981 -0.3954 -0.1516  0.1680
18962TIP3    H278378   4.693   0.458   6.107 -1.8250  1.1665 -0.6651
18963TIP3   OH278379   4.226   4.798  15.196  0.4175  0.0354 -0.6437
18963TIP3    H178380   4.135   4.772  15.211  0.9244 -2.2740 -1.2009
18963TIP3    H278381   4.274   4.765  15.272  1.1303 -1.0616 -1.5210
18964TIP3   OH278382   3.327   4.231   4.603  0.0291  0.3219  0.3637
18964TIP3    H178383   3.283   4.268   4.527 -1.8038 -1.8443  0.2532
18964TIP3    H278384   3.409   4.279   4.609 -0.5044  1.6903 -1.9642
18965TIP3   OH278385   5.909   3.545  15.809 -0.4496  0.0911  0.5242
18965TIP3    H178386   5.859   3.464  15.807 -0.0552 -0.3613  3.6949
18965TIP3    H278387   6.000   3.518  15.800 -0.4872  0.5814 -1.8224
18966TIP3   OH278388   4.423   2.263   3.128 -0.0317 -0.5209  0.7130
18966TIP3    H178389   4.329   2.266   3.111  0.0946  1.0516  0.1744
18966TIP3    H278390   4.431   2.210   3.208 -1.2516 -1.6216  0.1403
18967TIP3   OH278391   4.028   0.540   6.466  0.5121  0.2650  0.2080
18967TIP3    H178392   4.081   0.497   6.533 -0.2300  0.5244  0.9754
18967TIP3    H278393   4.032   0.480   6.391 -0.2675 -1.0406  1.1538
18968TIP3   OH278394   0.436   6.329  13.925  0.0627  0.0018 -0.5586
18968TIP3    H178395   0.482   6.406  13.893  2.2652 -0.9687  0.0942
18968TIP3    H278396   0.417   6.278  13.847  2.8161 -0.9780 -0.6818
18969TIP3   OH278397   3.112   3.669  10.758  0.0162  0.3200 -0.2483
18969TIP3    H178398   3.077   3.653  10.670 -1.5440 -0.8922  0.5499
18969TIP3    H278399   3.079   3.755  10.782 -2.5703 -0.7768  0.4734
18970TIP3   OH278400   3.395   1.638   6.187  0.7370  0.3659  0.5955
18970TIP3    H178401   3.322   1.700   6.191 -0.5749 -0.9306 -1.6359
18970TIP3    H278402   3.462   1.677   6.244 -0.9864  2.4990  1.3078
18971TIP3   OH278403   1.317   2.866   0.754  0.1095 -0.6745  0.5127
18971TIP3    H178404   1.286   2.954   0.735 -2.3622 -1.5076  0.3535
18971TIP3    H278405   1.280   2.845   0.840  1.2841 -1.3103  0.8925
18972TIP3   OH278406   0.242   6.100   3.226  0.5820  0.8364 -0.0009
18972TIP3    H178407   0.163   6.081   3.176  0.9778 -0.9933 -0.0040
18972TIP3    H278408   0.313   6.099   3.162  0.9079 -0.1003  0.3500
18973TIP3   OH278409   3.193   1.673   2.311 -0.0457  0.0281  0.1170
18973TIP3    H178410   3.101   1.673   2.337  0.2136 -1.0598  1.0983
18973TIP3    H278411   3.214   1.766   2.298  0.1191  0.9561  5.1664
18974TIP3   OH278412   6.370   0.252  11.741 -0.0560 -0.2083 -0.0306
18974TIP3    H178413   6.424   0.331  11.736 -0.2590 -0.0655  0.0063
18974TIP3    H278414   6.395   0.212  11.824 -0.5547  0.2629  0.3518
18975TIP3   OH278415   5.479   2.109  15.082 -0.3336  0.2887 -0.1538
18975TIP3    H178416   5.460   2.065  14.999 -0.6973 -0.0565  0.1115
18975TIP3    H278417   5.441   2.197  15.072  1.7779  1.1580 -1.3050
18976TIP3   OH278418   3.109   4.145   3.609  0.3466 -0.4089 -0.1754
18976TIP3    H178419   3.016   4.159   3.591 -0.1563 -3.8662 -0.8644
18976TIP3    H278420   3.154   4.188   3.536 -0.7594  0.2175 -0.5095
18977TIP3   OH278421   1.247   5.187  15.859  0.0839  0.2507  0.1527
18977TIP3    H178422   1.282   5.270  15.826 -0.7472  0.2974 -0.6582
18977TIP3    H278423   1.166   5.174  15.809 -0.3884 -0.4820  1.0803
18978TIP3   OH278424   0.928   6.082   5.302 -0.1439 -0.1393  0.3906
18978TIP3    H178425   0.928   6.178   5.309  0.1768 -0.1637  0.7537
18978TIP3    H278426   1.007   6.055   5.348 -0.6683 -0.6305  1.0060
18979TIP3   OH278427   5.346   5.097  13.076  0.1798  0.4464  0.4015
18979TIP3    H178428   5.314   5.131  12.992 -2.5883 -0.3228  1.0576
18979TIP3    H278429   5.300   5.149  13.142  0.8525 -0.2455  1.4362
18980TIP3   OH278430   6.425   3.783   2.521 -0.0222 -0.4245  0.0462
18980TIP3    H178431   6.396   3.712   2.465  0.2912 -0.1350 -0.4877
18980TIP3    H278432   6.519   3.770   2.531  0.0402 -0.0771 -0.0681
18981TIP3   OH278433   4.236   5.590  13.924 -0.4602 -0.0360  0.1649
18981TIP3    H178434   4.257   5.520  13.862  1.2990 -0.2722  0.9871
18981TIP3    H278435   4.229   5.546  14.008 -0.4901  0.6210  0.5075
18982TIP3   OH278436   6.628   5.888  12.649  0.5404  0.4767  0.3538
18982TIP3    H178437   6.618   5.794  12.667 -0.2451  0.5800  0.4932
18982TIP3    H278438   6.698   5.916  12.708 -1.1284  0.5377  2.4256
18983TIP3   OH278439   4.875   0.856  15.261  0.3520 -0.2548 -0.5569
18983TIP3    H178440   4.895   0.791  15.194  0.2317 -2.0379  1.0567
18983TIP3    H278441   4.845   0.805  15.337 -0.7956  1.7398  0.4307
18984TIP3   OH278442   3.964   4.114  12.846 -0.1011  0.2417  0.4394
18984TIP3    H178443   3.923   4.029  12.829 -2.1020  1.1406  0.5188
18984TIP3    H278444   4.046   4.093  12.891 -1.6347 -1.5608  2.5737
18985TIP3   OH278445   3.824   2.137  17.196  0.1304 -0.1645 -1.1072
18985TIP3    H178446   3.742   2.111  17.156 -0.0205 -0.4598 -0.6069
18985TIP3    H278447   3.889   2.077  17.160  0.0619 -0.1821 -1.2004
18986TIP3   OH278448   1.714   5.479  11.967 -0.5294 -0.0543  0.2479
18986TIP3    H178449   1.644   5.415  11.976 -1.1384  0.6033  0.2932
18986TIP3    H278450   1.769   5.465  12.044  0.2908 -1.6288 -0.5751
18987TIP3   OH278451   0.449   3.935   5.902 -0.6506  0.1140  0.0502
18987TIP3    H178452   0.384   4.001   5.878 -0.2249  0.7090  0.5075
18987TIP3    H278453   0.441   3.926   5.997  0.6753  1.0195  0.2776
18988TIP3   OH278454   6.294   6.404  11.994 -0.2305  0.0514  0.1757
18988TIP3    H178455   6.276   6.480  12.050 -2.4814 -1.3901  1.5760
18988TIP3    H278456   6.355   6.351  12.044 -1.2975 -0.6536  0.7577
18989TIP3   OH278457   4.585   2.457   5.920  0.0153 -0.6014 -0.3775
18989TIP3    H178458   4.625   2.376   5.889 -1.2473 -1.1637 -0.6259
18989TIP3    H278459   4.643   2.489   5.988  0.9779 -1.2575 -0.8787
18990TIP3   OH278460   6.128   5.857   4.692  0.1427 -0.5097  0.3959
18990TIP3    H178461   6.037   5.837   4.718  1.0032 -0.9779  3.4575
18990TIP3    H278462   6.138   5.815   4.606 -2.2852 -1.1625  0.3492
18991TIP3   OH278463   1.917   0.088   6.355  0.6400 -0.2708 -0.6385
18991TIP3    H178464   1.999   0.049   6.385  1.1548  0.6883 -0.7582
18991TIP3    H278465   1.850   0.022   6.375  1.4590 -1.1405 -0.7145
18992TIP3   OH278466   0.169   6.548  12.151 -0.0049 -0.4141 -0.3623
18992TIP3    H178467   0.111   6.561  12.076 -0.4715 -0.2083  0.0377
18992TIP3    H278468   0.197   6.636  12.176 -1.2631 -0.3266  0.8274
18993TIP3   OH278469   1.548   3.668  14.388  0.0223  0.3170 -0.4199
18993TIP3    H178470   1.527   3.739  14.326  1.1257 -0.0653 -1.2662
18993TIP3    H278471   1.537   3.708  14.474 -0.2688  1.2521 -0.8699
18994TIP3   OH278472   0.459   2.317   4.650 -1.0096  0.1301  0.0479
18994TIP3    H178473   0.399   2.358   4.587 -1.9905 -0.1899  0.7559
18994TIP3    H278474   0.406   2.304   4.728  0.0981  0.1709  0.8170
18995TIP3   OH278475   4.623   2.142  15.967  0.1292  0.1182  0.8303
18995TIP3    H178476   4.617   2.217  16.026 -2.0696  0.1114  0.6969
18995TIP3    H278477   4.583   2.069  16.016 -2.0718  0.1965 -0.6766
18996TIP3   OH278478   5.517   6.674   2.947 -0.0183  0.0005 -0.3012
18996TIP3    H178479   5.450   6.727   2.990  0.6407 -0.1903  1.0264
18996TIP3    H278480   5.481   6.585   2.946  0.3426 -0.1789  0.7794
18997TIP3   OH278481   3.117   0.129  11.521 -0.4388 -0.2262  0.5142
18997TIP3    H178482   3.213   0.137  11.513 -0.5013  0.2946  0.2047
18997TIP3    H278483   3.083   0.190  11.456 -0.9876 -0.1403  0.8768
18998TIP3   OH278484   5.483   4.738  16.647  0.1442  0.6720 -0.0445
18998TIP3    H178485   5.406   4.733  16.590 -0.6344  1.6308  0.8765
18998TIP3    H278486   5.450   4.774  16.729  1.1946 -0.8324  1.1043
18999TIP3   OH278487   3.641   4.017   0.011  0.2017  0.1809  0.6586
18999TIP3    H178488   3.736   4.016   0.025  0.1434  2.1217  1.5848
18999TIP3    H278489   3.605   3.975   0.089  0.3005 -1.1983 -0.0188
19000TIP3   OH278490   3.479   1.164   5.491  0.3725 -0.6136 -0.5698
19000TIP3    H178491   3.435   1.234   5.538  0.6531 -0.8653  0.0779
19000TIP3    H278492   3.475   1.089   5.550 -0.3277 -1.2800 -1.4487
19001TIP3   OH278493   1.130   4.676  13.658  0.9271  0.1542 -0.3069
19001TIP3    H178494   1.106   4.768  13.647  1.4780  0.2388 -0.9295
19001TIP3    H278495   1.225   4.675  13.643  0.7036 -0.7358 -1.8264
19002TIP3   OH278496   4.744   3.796  13.814  0.6760  0.0764 -0.1327
19002TIP3    H178497   4.700   3.874  13.846 -1.0121 -0.3014 -1.3325
19002TIP3    H278498   4.765   3.746  13.893 -2.2383 -0.2794  0.5407
19003TIP3   OH278499   2.130   5.065   2.565 -0.1685  0.4559 -0.0632
19003TIP3    H178500   2.101   4.974   2.573  1.5815 -0.1833 -0.3808
19003TIP3    H278501   2.072   5.114   2.622 -0.3597 -1.0587  1.1268
19004TIP3   OH278502   4.765   0.573  15.721 -0.3542  0.0442  0.2678
19004TIP3    H178503   4.724   0.490  15.697 -1.2522 -0.7356  3.9627
19004TIP3    H278504   4.746   0.631  15.647 -3.1034 -1.9460 -0.7517
19005TIP3   OH278505   1.829   3.155   5.234  0.5674 -0.2560  0.3768
19005TIP3    H178506   1.862   3.210   5.163  1.1847 -0.5810  0.4102
19005TIP3    H278507   1.794   3.077   5.190  0.4749 -0.2243  0.3935
19006TIP3   OH278508   5.244   6.264  16.985  0.1494  0.4916  0.0261
19006TIP3    H178509   5.157   6.270  17.025  0.4517  0.9061  0.6249
19006TIP3    H278510   5.268   6.354  16.966 -0.8846  0.2357 -3.1014
19007TIP3   OH278511   4.621   2.194   6.207  0.1469 -0.3597  0.0813
19007TIP3    H178512   4.688   2.262   6.202 -0.6876  0.4455 -0.2704
19007TIP3    H278513   4.666   2.120   6.249  1.1823  0.2470  0.0755
19008TIP3   OH278514   2.707   1.988  12.780  0.0846  0.0871  0.1960
19008TIP3    H178515   2.662   2.058  12.826 -2.2629  0.6010 -2.6329
19008TIP3    H278516   2.710   2.016  12.689  0.4084 -2.8245 -0.8032
19009TIP3   OH278517   4.499   0.965   6.101 -0.2076 -0.2777 -0.2528
19009TIP3    H178518   4.557   0.925   6.166 -0.8913  1.0626  1.2294
19009TIP3    H278519   4.414   0.968   6.143 -0.6973  0.5343 -1.2680
19010TIP3   OH278520   2.107   1.626  17.105  0.3529 -0.7970 -0.1114
19010TIP3    H178521   2.033   1.632  17.165 -0.2295  0.1438 -0.8843
19010TIP3    H278522   2.181   1.661  17.154 -0.1208 -0.0110  0.0634
19011TIP3   OH278523   3.332   0.204   4.501  0.2415 -0.0251 -0.2534
19011TIP3    H178524   3.312   0.229   4.591  1.3406  0.2622 -0.0691
19011TIP3    H278525   3.428   0.201   4.498  0.2104 -0.3366 -1.3304
19012TIP3   OH278526   1.033   3.118  15.355 -0.1126  0.2062  0.0749
19012TIP3    H178527   1.039   3.149  15.445  0.7655 -1.2284  0.5302
19012TIP3    H278528   1.017   3.024  15.363 -0.4138  0.1268 -1.2718
19013TIP3   OH278529   0.840   5.492  14.978  0.6094 -0.1162 -0.2234
19013TIP3    H178530   0.787   5.562  15.017 -0.0093 -0.0921 -1.0706
19013TIP3    H278531   0.892   5.537  14.911  0.0456 -0.4910 -0.9258
19014TIP3   OH278532   1.562   5.046  11.406  0.4594  0.1925  0.0717
19014TIP3    H178533   1.530   5.135  11.392  2.3097  1.0628  0.9588
19014TIP3    H278534   1.487   4.998  11.441 -0.4923  1.4743 -0.1495
19015TIP3   OH278535   1.468   0.335  13.337 -0.0542  0.3003  0.3924
19015TIP3    H178536   1.505   0.251  13.310 -0.4768  0.1978  0.1229
19015TIP3    H278537   1.434   0.318  13.425  2.5251  0.9870  1.6279
19016TIP3   OH278538   1.029   4.055   5.801  0.4224  0.0557 -0.1106
19016TIP3    H178539   0.945   4.099   5.788  0.5439  0.1789 -0.4774
19016TIP3    H278540   1.019   3.972   5.756  0.8162  0.4508 -0.9327
19017TIP3   OH278541   2.210   1.148  12.498 -0.0509  0.2752  0.4047
19017TIP3    H178542   2.290   1.190  12.530 -0.5727  1.6963 -0.0921
19017TIP3    H278543   2.197   1.183  12.411 -0.2780 -1.3055 -0.2326
19018TIP3   OH278544   3.977   1.664   2.482 -0.1438 -0.6108  0.5309
19018TIP3    H178545   4.036   1.613   2.427  1.1550  0.0101  1.3135
19018TIP3    H278546   3.911   1.601   2.512 -0.5420 -1.0839 -1.2173
19019TIP3   OH278547   4.856   3.076   5.576 -0.1361 -0.4410  0.2511
19019TIP3    H178548   4.851   3.133   5.653  2.0440 -0.5582  0.5280
19019TIP3    H278549   4.851   2.988   5.612 -1.1581 -0.4894  0.0319
19020TIP3   OH278550   1.088   5.886   4.047 -0.0193  0.7533 -0.2541
19020TIP3    H178551   1.112   5.856   4.134  0.2073  0.3046 -0.4661
19020TIP3    H278552   1.159   5.945   4.020  0.7557 -0.3862 -0.7858
19021TIP3   OH278553   2.595   5.328  15.764 -0.0848 -0.1595 -0.7477
19021TIP3    H178554   2.656   5.258  15.787 -1.1196 -1.1798 -1.0281
19021TIP3    H278555   2.510   5.298  15.798 -0.1831  2.0157  1.2003
19022TIP3   OH278556   3.928   1.551  14.712  0.1148 -0.4704 -0.0397
19022TIP3    H178557   3.965   1.542  14.800 -0.6199  1.2475  0.4882
19022TIP3    H278558   3.992   1.605  14.665 -0.2645 -0.0235 -0.0500
19023TIP3   OH278559   0.081   3.099  10.835 -0.2303  0.5719 -0.4245
19023TIP3    H178560   0.012   3.056  10.885 -1.3437  3.3181  0.5874
19023TIP3    H278561   0.050   3.099  10.744  0.0728 -1.1760 -0.5520
19024TIP3   OH278562   1.052   5.855   1.547 -0.7382 -0.3534 -0.4057
19024TIP3    H178563   1.138   5.894   1.529 -1.1567 -0.1109 -2.0832
19024TIP3    H278564   1.007   5.919   1.601  0.3745 -0.8043  1.1051
19025TIP3   OH278565   3.219   2.012  11.216 -0.2304  0.1321 -0.9021
19025TIP3    H178566   3.289   2.031  11.154 -1.4452  1.2647 -1.9981
19025TIP3    H278567   3.188   2.098  11.244  0.0621 -0.3527  1.0537
19026TIP3   OH278568   0.819   6.453   3.910  0.2506 -0.7072  0.0840
19026TIP3    H178569   0.889   6.389   3.925  0.1311 -0.7006  0.6733
19026TIP3    H278570   0.864   6.531   3.879  0.3261 -1.3702 -1.6472
19027TIP3   OH278571   2.025   4.448   2.011 -0.2904  0.0224  0.5240
19027TIP3    H178572   1.959   4.455   2.080 -0.5847  1.8233  0.1098
19027TIP3    H278573   2.038   4.538   1.982  0.4185 -0.6140 -1.2235
19028TIP3   OH278574   3.203   2.922  10.555 -0.0532  0.2105 -0.7607
19028TIP3    H178575   3.147   2.968  10.618  0.4807 -0.2536  0.0677
19028TIP3    H278576   3.162   2.836  10.545  2.2107 -1.4233  2.4115
19029TIP3   OH278577   0.980   0.810  15.379 -0.2564 -0.0248 -0.6256
19029TIP3    H178578   0.986   0.793  15.473 -0.8708 -2.1628 -0.9189
19029TIP3    H278579   0.886   0.822  15.363 -0.1108  0.7776 -0.9165
19030TIP3   OH278580   0.440   1.551  12.040  0.4609 -0.4262 -0.2767
19030TIP3    H178581   0.369   1.509  12.087  0.2341  1.8885  1.6550
19030TIP3    H278582   0.518   1.536  12.094  0.7267  0.0359 -0.5159
19031TIP3   OH278583   2.248   5.108  16.068 -0.0197  0.7108  0.4621
19031TIP3    H178584   2.160   5.136  16.043 -0.8142 -0.8729  1.3576
19031TIP3    H278585   2.235   5.051  16.144  1.4674 -1.9694 -1.1472
19032TIP3   OH278586   2.505   2.959  15.816 -0.1729  0.3504  0.4368
19032TIP3    H178587   2.533   2.872  15.791 -1.1986 -0.0418  0.5783
19032TIP3    H278588   2.582   3.000  15.854 -0.3139 -1.5111  3.0380
19033TIP3   OH278589   1.295   5.499  14.904  0.5985  0.0578  0.1934
19033TIP3    H178590   1.224   5.546  14.861  0.0214  0.3088  1.3811
19033TIP3    H278591   1.357   5.567  14.930  0.6560 -0.0281  0.2817
19034TIP3   OH278592   5.944   1.854  17.059 -0.2010 -0.2211 -0.8782
19034TIP3    H178593   5.954   1.942  17.097  1.9375 -0.5467 -0.5732
19034TIP3    H278594   6.033   1.829  17.034 -0.9270 -1.9088 -1.8842
19035TIP3   OH278595   2.455   6.774  13.671 -0.0571  0.0438 -0.1551
19035TIP3    H178596   2.539   6.754  13.628 -1.4502 -1.0559 -2.5651
19035TIP3    H278597   2.443   6.703  13.733  0.7493  0.1753  0.1656
19036TIP3   OH278598   5.284   1.705  13.454  0.3664  0.7507 -0.2082
19036TIP3    H178599   5.236   1.624  13.474  0.5355  1.2794  2.8798
19036TIP3    H278600   5.318   1.691  13.366  1.2968 -3.0334  0.5649
19037TIP3   OH278601   0.992   4.158  12.271 -0.3411  0.0497 -1.1687
19037TIP3    H178602   0.934   4.104  12.218 -1.7683 -0.5933  0.9059
19037TIP3    H278603   1.050   4.095  12.315 -0.3439  0.4042 -0.6426
19038TIP3   OH278604   0.411   1.403   5.967  0.5444 -0.3529 -0.5252
19038TIP3    H178605   0.441   1.480   6.016  1.1105 -0.0356 -1.3455
19038TIP3    H278606   0.480   1.338   5.982  0.4444 -0.4419 -0.4531
19039TIP3   OH278607   5.434   5.014  12.506  0.5809  0.0394  0.0012
19039TIP3    H178608   5.474   4.928  12.493  0.0279 -0.4482  1.3867
19039TIP3    H278609   5.352   5.009  12.458  0.0973 -0.5726  0.8548
19040TIP3   OH278610   5.034   2.402  14.227  0.3634 -0.2119 -0.3339
19040TIP3    H178611   4.993   2.379  14.144  0.4571 -0.7904 -0.2226
19040TIP3    H278612   4.964   2.443  14.278 -0.4290 -2.2610  0.3102
19041TIP3   OH278613   5.684   3.616   2.986 -0.5941  0.3324  0.5201
19041TIP3    H178614   5.745   3.680   2.951 -1.4237  0.8623 -0.0045
19041TIP3    H278615   5.693   3.624   3.081  1.7845 -1.2255  0.5100
19042TIP3   OH278616   6.698   6.329   0.250  0.1544 -0.3811  0.0576
19042TIP3    H178617   6.751   6.334   0.171 -0.5151 -0.0840 -0.3790
19042TIP3    H278618   6.755   6.288   0.315  1.0163  0.1884 -0.3248
19043TIP3   OH278619   5.816   4.023   5.017  0.0710  0.5678  0.5197
19043TIP3    H178620   5.886   3.977   5.063 -1.2034 -0.2279  1.7411
19043TIP3    H278621   5.802   3.973   4.937  0.0467 -0.0071  0.8814
19044TIP3   OH278622   3.437   5.570  15.771 -0.2123  0.1124 -0.1541
19044TIP3    H178623   3.513   5.565  15.829  1.1214  0.2218 -1.7924
19044TIP3    H278624   3.387   5.645  15.802 -0.2948 -0.6355  1.6528
19045TIP3   OH278625   5.624   1.796  12.060 -0.0293  0.5774 -0.2505
19045TIP3    H178626   5.700   1.791  12.118  1.4120 -2.3272 -2.1310
19045TIP3    H278627   5.568   1.724  12.088 -0.3673  0.5093 -1.0745
19046TIP3   OH278628   1.989   6.776   1.985  0.6073  0.3306 -0.1571
19046TIP3    H178629   1.969   6.724   1.908 -0.4427 -1.0672  0.9974
19046TIP3    H278630   2.081   6.756   2.004  1.1438  1.3763 -1.5133
19047TIP3   OH278631   5.887   6.178   5.506 -0.0507 -0.1746 -0.3903
19047TIP3    H178632   5.928   6.231   5.437  3.0338 -0.4776  1.0361
19047TIP3    H278633   5.857   6.099   5.461  2.0485 -0.4452 -1.4641
19048TIP3   OH278634   3.952   6.100  15.418  0.3575  0.1609  0.1346
19048TIP3    H178635   3.872   6.139  15.386  0.1099  0.6484  1.2774
19048TIP3    H278636   3.970   6.027  15.358 -1.1199 -0.1765  0.0643
19049TIP3   OH278637   1.128   4.399   5.213 -0.0423 -0.2153  0.3099
19049TIP3    H178638   1.081   4.323   5.249  1.3601 -0.2216  2.2960
19049TIP3    H278639   1.094   4.473   5.264 -0.4744  0.3357 -0.7442
19050TIP3   OH278640   0.846   0.103   0.987  0.3636  0.6939 -0.1496
19050TIP3    H178641   0.795   0.183   0.981  1.7955  1.5395 -1.7702
19050TIP3    H278642   0.932   0.126   0.954  1.4386 -1.0276  1.2328
19051TIP3   OH278643   5.908   0.309  14.475  0.1243 -0.6201 -0.4976
19051TIP3    H178644   5.920   0.253  14.551  0.3460 -1.8328 -1.3940
19051TIP3    H278645   5.985   0.293  14.421 -0.6112 -0.7230 -1.5514
19052TIP3   OH278646   0.955   5.463   2.646  0.1487  0.0430 -0.0421
19052TIP3    H178647   0.908   5.546   2.646  0.9535  0.5153  0.6420
19052TIP3    H278648   1.045   5.487   2.666  0.3443 -1.0228  0.4138
19053TIP3   OH278649   0.055   4.451  13.886  0.3362  0.3441  0.1521
19053TIP3    H178650   0.084   4.431  13.975  1.7147  1.6512  0.0532
19053TIP3    H278651   0.105   4.392  13.830  0.8511  0.7692  0.1519
19054TIP3   OH278652   2.350   4.086   5.179 -0.0113  0.1823  0.0273
19054TIP3    H178653   2.438   4.053   5.161 -0.5733 -2.5970  1.7923
19054TIP3    H278654   2.365   4.174   5.216  2.1647 -0.6920  1.4431
19055TIP3   OH278655   3.374   4.986   1.853 -0.1349  0.1990  0.8291
19055TIP3    H178656   3.396   4.951   1.767 -1.7368 -1.3529  0.9952
19055TIP3    H278657   3.405   4.920   1.915  0.3366  0.9512  1.4313
19056TIP3   OH278658   0.736   1.411   0.340 -0.2888  0.6450 -0.8043
19056TIP3    H178659   0.820   1.457   0.349 -0.7097  1.2545  0.1999
19056TIP3    H278660   0.682   1.469   0.287 -0.0179  0.1411 -1.6593
19057TIP3   OH278661   0.018   5.108   2.182 -0.1800  0.1057 -0.3702
19057TIP3    H178662  -0.056   5.052   2.157  1.0101 -0.9199 -1.8198
19057TIP3    H278663   0.079   5.102   2.108  0.6604  2.1880  0.0776
19058TIP3   OH278664   6.713   6.222  14.571  0.1769  0.3858  0.5165
19058TIP3    H178665   6.721   6.231  14.476  1.1534 -1.5248  0.3678
19058TIP3    H278666   6.801   6.197  14.599 -0.1718  0.6774  1.8944
19059TIP3   OH278667   2.328   1.486   3.156 -0.3098 -0.2899  0.0972
19059TIP3    H178668   2.374   1.428   3.218 -0.6631 -0.5424  0.1300
19059TIP3    H278669   2.374   1.474   3.073 -1.5114 -2.0591 -0.3693
19060TIP3   OH278670   2.859   2.240   5.321 -0.4989 -0.1557 -0.0380
19060TIP3    H178671   2.927   2.238   5.388  0.6714 -0.2718 -1.1716
19060TIP3    H278672   2.802   2.312   5.346 -0.5149 -0.6636  1.4596
19061TIP3   OH278673   2.643   4.927   2.157  0.3409  0.2343 -0.2660
19061TIP3    H178674   2.724   4.875   2.159 -0.6877 -1.4269  0.8043
19061TIP3    H278675   2.628   4.943   2.063  0.5419 -1.6984 -0.6665
19062TIP3   OH278676   2.563   3.372  15.270 -0.1500 -0.1902 -0.3248
19062TIP3    H178677   2.640   3.414  15.232  0.7992 -1.5088  0.0707
19062TIP3    H278678   2.568   3.393  15.363 -1.0890  0.9301 -0.5077
19063TIP3   OH278679   5.998   1.067   5.770  0.4240 -0.5653 -0.2793
19063TIP3    H178680   6.048   1.031   5.697  1.2103  0.0072 -0.0267
19063TIP3    H278681   5.935   1.127   5.729  0.1756 -1.0147 -0.5645
19064TIP3   OH278682   0.361   2.016  15.445 -0.1280  0.1590 -0.2879
19064TIP3    H178683   0.399   2.104  15.444  0.4388 -0.0792 -1.7207
19064TIP3    H278684   0.307   2.015  15.524 -1.4924  2.3926 -1.0837
19065TIP3   OH278685   2.523   3.522  16.722 -0.3875 -0.7416 -0.4394
19065TIP3    H178686   2.462   3.545  16.652 -0.6237 -0.9061 -0.2865
19065TIP3    H278687   2.566   3.442  16.691 -0.6453 -0.9328 -0.3005
19066TIP3   OH278688   3.436   0.960  13.009  0.2889 -0.2185 -0.2059
19066TIP3    H178689   3.472   0.925  12.928 -0.7717  0.2123 -0.8883
19066TIP3    H278690   3.418   1.052  12.989 -1.0832 -0.3929  0.1127
19067TIP3   OH278691   4.933   5.872   4.544  0.2854  0.1927  0.2293
19067TIP3    H178692   4.855   5.827   4.576  0.2021  0.1024 -0.1017
19067TIP3    H278693   4.920   5.964   4.569  0.8094 -0.0765  1.5982
19068TIP3   OH278694   0.455   6.119   2.521 -0.4652 -0.1442 -0.3548
19068TIP3    H178695   0.405   6.108   2.602  0.1186 -0.2666 -0.0085
19068TIP3    H278696   0.419   6.199   2.482  0.5177  1.0091  0.9739
19069TIP3   OH278697   5.182   1.742  14.748 -0.8859  0.2653  0.2019
19069TIP3    H178698   5.175   1.689  14.827 -2.2947  0.6619  0.3615
19069TIP3    H278699   5.102   1.723  14.699  0.4534 -0.8213 -1.6829
19070TIP3   OH278700   6.379   5.498  13.312  0.3213 -0.4601  0.0542
19070TIP3    H178701   6.408   5.530  13.397  0.6560 -0.7234  0.0408
19070TIP3    H278702   6.321   5.567  13.279  1.3585  0.3401 -0.1639
19071TIP3   OH278703   5.835   3.293   0.193  0.1755  0.0851 -0.9598
19071TIP3    H178704   5.829   3.303   0.288 -0.2091 -1.1605 -0.8292
19071TIP3    H278705   5.841   3.382   0.159 -2.0840  0.6900  0.0785
19072TIP3   OH278706   5.613   1.736  14.123 -0.3888 -0.0933 -0.3033
19072TIP3    H178707   5.700   1.714  14.154 -0.7489 -1.0040  0.0876
19072TIP3    H278708   5.624   1.754  14.030  1.1042  4.6987  0.4947
19073TIP3   OH278709   1.832   5.042  14.923 -0.0353 -0.2185 -0.4554
19073TIP3    H178710   1.817   5.039  14.829  3.1155  1.5018 -1.1458
19073TIP3    H278711   1.811   5.132  14.948  2.4921  0.4380 -0.3434
19074TIP3   OH278712   6.054   3.232   3.680  0.4208 -0.0446 -0.3013
19074TIP3    H178713   6.019   3.258   3.765  3.1571 -0.7705  1.1619
19074TIP3    H278714   6.096   3.311   3.646 -0.4345  0.1700 -0.9091
19075TIP3   OH278715   1.361   6.773  13.790  0.2390  0.0202 -0.2774
19075TIP3    H178716   1.344   6.681  13.768  1.7721 -0.6336  1.0524
19075TIP3    H278717   1.296   6.792  13.858  1.0938 -0.6946  0.7741
19076TIP3   OH278718   6.339   4.874   0.182  0.3862 -0.2605 -0.7318
19076TIP3    H178719   6.271   4.811   0.157  1.1432 -1.8150  0.9444
19076TIP3    H278720   6.420   4.837   0.148  0.7821  0.0723 -0.1668
19077TIP3   OH278721   0.612   1.370   2.113  0.6862  0.4169  0.2443
19077TIP3    H178722   0.527   1.380   2.155  1.3544  0.0459  1.7608
19077TIP3    H278723   0.606   1.421   2.032 -1.3094 -0.4458 -0.2098
19078TIP3   OH278724   1.156   1.226  16.955  0.0557 -0.3190 -0.2460
19078TIP3    H178725   1.087   1.268  17.006  0.1615 -0.3357 -0.0863
19078TIP3    H278726   1.203   1.172  17.019 -0.6167 -1.3641 -0.6147
19079TIP3   OH278727   1.086   2.782  17.060  0.3884 -0.4935  0.2258
19079TIP3    H178728   1.172   2.738  17.064 -0.2956 -2.2318 -2.0446
19079TIP3    H278729   1.071   2.796  16.967 -2.0439 -0.7903  0.5122
19080TIP3   OH278730   2.405   5.697  15.694 -0.2133 -0.1285  0.2791
19080TIP3    H178731   2.369   5.784  15.712  0.7309  0.7543 -1.6784
19080TIP3    H278732   2.354   5.666  15.619  0.1127 -0.8299  0.3463
19081TIP3   OH278733   4.490   2.487   4.996 -0.7098  0.2580 -0.0938
19081TIP3    H178734   4.468   2.540   4.919  0.4905 -0.7574 -1.1954
19081TIP3    H278735   4.583   2.507   5.012 -0.8666  0.2182  0.9187
19082TIP3   OH278736   5.312   2.952  11.663  0.0363 -0.4776  0.2398
19082TIP3    H178737   5.354   2.868  11.680 -1.0896 -1.1382 -0.1528
19082TIP3    H278738   5.244   2.933  11.599 -1.7583  0.2860  1.8197
19083TIP3   OH278739   1.964   6.099   6.857  0.7674  0.4094 -0.5494
19083TIP3    H178740   1.983   6.193   6.848  0.3327  0.4445 -1.1093
19083TIP3    H278741   1.950   6.069   6.768 -4.9994  1.0499 -0.2489
19084TIP3   OH278742   3.367   1.643  11.604  0.9152  0.4957 -0.5334
19084TIP3    H178743   3.304   1.589  11.652  0.2726  1.0161 -0.7749
19084TIP3    H278744   3.412   1.582  11.546 -0.8450  0.4424 -1.9057
19085TIP3   OH278745   6.713   5.736  12.271 -0.3216 -0.3238  0.3562
19085TIP3    H178746   6.788   5.776  12.314 -0.2174  0.6392 -0.6784
19085TIP3    H278747   6.750   5.666  12.218 -0.1900 -0.0666  0.1077
19086TIP3   OH278748   0.517   5.400   6.846  0.0682  0.3501  0.2318
19086TIP3    H178749   0.559   5.437   6.768 -0.7406  2.6268  0.8160
19086TIP3    H278750   0.586   5.401   6.913  0.4401 -0.5721 -0.1119
19087TIP3   OH278751   5.557   0.825  17.261  0.0231  0.6292  0.0061
19087TIP3    H178752   5.523   0.865  17.341  0.0808  0.4133  0.1387
19087TIP3    H278753   5.620   0.760  17.291 -0.7558 -0.2290 -0.1581
19088TIP3   OH278754   0.364   1.392   2.559  0.0146 -0.3348  0.0069
19088TIP3    H178755   0.307   1.424   2.488  0.5724  0.7048  0.0113
19088TIP3    H278756   0.428   1.336   2.515  1.1943  1.3711 -0.5608
19089TIP3   OH278757   2.179   6.461   5.880  0.1035 -0.2035 -0.0222
19089TIP3    H178758   2.090   6.495   5.892  0.2459 -0.5226  2.6733
19089TIP3    H278759   2.205   6.490   5.793 -2.1836  0.9799 -0.3740
19090TIP3   OH278760   0.090   4.221  11.897  0.3001 -0.3535  0.2290
19090TIP3    H178761   0.101   4.141  11.844 -0.4073 -0.5592  0.3818
19090TIP3    H278762   0.011   4.205  11.948  0.8517 -0.0581  1.1960
19091TIP3   OH278763   6.547   3.124  16.876  0.1289 -0.1955 -0.6109
19091TIP3    H178764   6.568   3.118  16.782  0.3397 -1.6591 -0.4919
19091TIP3    H278765   6.453   3.137  16.878 -0.0183 -1.1471 -1.0158
19092TIP3   OH278766   6.738   0.018  16.464 -0.2526 -0.6433  0.2651
19092TIP3    H178767   6.793   0.040  16.539  0.8220 -1.4110 -0.2719
19092TIP3    H278768   6.743  -0.077  16.458  0.3430 -0.5443 -1.2601
19093TIP3   OH278769   2.797   0.049   5.419  0.0520  0.1258  0.1956
19093TIP3    H178770   2.747   0.123   5.384 -0.8622 -0.9219 -0.7921
19093TIP3    H278771   2.748   0.022   5.497 -0.9860 -0.8914 -0.7632
19094TIP3   OH278772   4.158   1.789   5.899 -0.4474  0.1148  0.8317
19094TIP3    H178773   4.166   1.878   5.863 -1.2867  0.6272  1.8475
19094TIP3    H278774   4.248   1.763   5.920 -0.2095  0.7872  0.6627
19095TIP3   OH278775   5.893   3.549   0.981  0.1788 -0.0024  0.1138
19095TIP3    H178776   5.818   3.489   0.983 -0.2472  0.4819 -0.6679
19095TIP3    H278777   5.863   3.625   1.032  0.2385  0.0863  0.0145
19096TIP3   OH278778   5.688   4.216   5.507 -0.3561 -0.3692 -0.0700
19096TIP3    H178779   5.729   4.146   5.457 -1.7747 -0.8344 -0.6329
19096TIP3    H278780   5.707   4.194   5.599  0.8624 -0.4055 -0.3217
19097TIP3   OH278781   4.179   6.758  11.716  0.0075 -0.0781  0.3936
19097TIP3    H178782   4.118   6.685  11.704  0.3631 -0.4522  0.8405
19097TIP3    H278783   4.152   6.822  11.651  0.5286 -1.1440 -0.9201
19098TIP3   OH278784   1.429   2.974  10.989  0.5648 -0.1126 -0.5465
19098TIP3    H178785   1.349   2.921  10.987  1.5689 -1.7079 -0.6599
19098TIP3    H278786   1.458   2.970  11.080  0.6972  0.2005 -0.5737
19099TIP3   OH278787   0.330   6.635   2.775  0.4713  0.1781  0.3741
19099TIP3    H178788   0.361   6.678   2.855 -0.7884  1.7009  0.0776
19099TIP3    H278789   0.248   6.680   2.753 -0.6410 -2.0033 -0.2826
19100TIP3   OH278790   2.996   6.328  13.265 -0.8314  0.4589 -0.1493
19100TIP3    H178791   2.938   6.354  13.337  0.2649 -0.3658  1.0771
19100TIP3    H278792   2.937   6.315  13.191 -1.9448  1.7658  0.4629
19101TIP3   OH278793   5.523   2.181   3.649  0.4749  0.1041  0.4617
19101TIP3    H178794   5.511   2.135   3.732  0.6973 -0.3354  0.2491
19101TIP3    H278795   5.600   2.142   3.609  1.5993  1.7037  0.9770
19102TIP3   OH278796   4.184   4.671  16.481  0.5298  0.2355  0.3203
19102TIP3    H178797   4.192   4.578  16.461 -3.4811 -0.2174 -0.1425
19102TIP3    H278798   4.190   4.715  16.396 -0.4801  0.0240  0.1218
19103TIP3   OH278799   5.477   5.223   3.903  0.6342 -0.2105 -0.5074
19103TIP3    H178800   5.459   5.316   3.889  0.3577 -0.3119 -0.8609
19103TIP3    H278801   5.463   5.210   3.997 -0.2890 -0.0902 -0.6131
19104TIP3   OH278802   2.469   2.678   1.363  0.4995 -0.3251 -0.1214
19104TIP3    H178803   2.462   2.694   1.457  0.3610  1.0725 -0.3557
19104TIP3    H278804   2.560   2.651   1.350  1.1249  1.5080  0.1591
19105TIP3   OH278805   5.890   2.131  12.668  0.2267 -0.0169 -0.1907
19105TIP3    H178806   5.879   2.222  12.641 -0.2989 -0.2552 -0.8069
19105TIP3    H278807   5.846   2.126  12.753  1.8588  0.7282  0.7559
19106TIP3   OH278808   3.994   4.926  16.839  0.1441 -0.5218 -0.0880
19106TIP3    H178809   4.017   5.013  16.809 -0.8322  0.3535  1.5599
19106TIP3    H278810   4.050   4.912  16.915  0.4287 -1.4238 -0.4515
19107TIP3   OH278811   1.949   3.634   5.445  0.3057 -0.5189  0.0123
19107TIP3    H178812   2.038   3.653   5.414  0.0388 -0.7994 -0.9762
19107TIP3    H278813   1.928   3.549   5.405 -1.0103  0.2984 -1.1319
19108TIP3   OH278814   4.749   0.538  16.131 -0.0999 -0.2159  0.3531
19108TIP3    H178815   4.771   0.608  16.192 -1.9088 -0.4476  1.3326
19108TIP3    H278816   4.673   0.496  16.169 -0.2203 -1.5032 -1.2011
19109TIP3   OH278817   1.730   3.748  12.581  0.3248 -0.4225 -0.7023
19109TIP3    H178818   1.741   3.842  12.566  0.0199 -0.0496  1.1159
19109TIP3    H278819   1.639   3.730  12.558 -0.1543  0.1377  0.6745
19110TIP3   OH278820   4.587   2.428  11.325  0.2007 -0.1797  0.0971
19110TIP3    H178821   4.587   2.345  11.372  1.3992  0.5087  1.3888
19110TIP3    H278822   4.660   2.422  11.264 -0.5884 -0.5947 -0.8309
19111TIP3   OH278823   6.067   4.262   5.271  0.4436  0.1341 -0.4488
19111TIP3    H178824   6.150   4.307   5.256 -1.7242  3.9703 -2.6794
19111TIP3    H278825   6.086   4.170   5.253  4.3594  0.6156  0.2470
19112TIP3   OH278826   6.592   6.572  16.905  0.1110  0.0907  0.4584
19112TIP3    H178827   6.580   6.589  16.812  0.1449 -1.4460  0.1444
19112TIP3    H278828   6.625   6.655  16.941 -1.6580  1.2824 -0.5236
19113TIP3   OH278829   1.731   2.617   4.709 -0.1765  0.1159 -0.1084
19113TIP3    H178830   1.674   2.683   4.672  2.8830  1.0628 -3.7665
19113TIP3    H278831   1.726   2.543   4.648  0.3411 -0.9270  1.0581
19114TIP3   OH278832   0.339   0.370  14.082 -0.8130  0.7166  0.2325
19114TIP3    H178833   0.327   0.460  14.114 -0.9946  1.0517 -0.7528
19114TIP3    H278834   0.359   0.380  13.989 -2.5404 -0.3209 -0.3074
19115TIP3   OH278835   1.482   5.621  13.086 -0.0007 -0.1762 -0.8242
19115TIP3    H178836   1.399   5.590  13.049 -0.6354  0.3236  0.1581
19115TIP3    H278837   1.479   5.716  13.077 -0.1905 -0.0439  0.5679
19116TIP3   OH278838   1.864   4.907  12.248 -0.2447  0.0670 -0.1923
19116TIP3    H178839   1.958   4.891  12.250 -0.5285 -2.3141 -1.8784
19116TIP3    H278840   1.841   4.902  12.155 -2.1453 -0.1828  0.2518
19117TIP3   OH278841   2.053   0.272  16.766  0.0023  0.3901  0.2944
19117TIP3    H178842   2.053   0.177  16.756 -0.7648  0.1401  2.3399
19117TIP3    H278843   2.054   0.305  16.676 -1.3593 -1.5625 -0.5017
19118TIP3   OH278844   1.092   6.430  17.036  0.3077 -0.3172 -0.0150
19118TIP3    H178845   1.042   6.484  16.975  0.3658 -1.0668 -0.7428
19118TIP3    H278846   1.128   6.492  17.099 -0.9690  0.3066  0.1277
19119TIP3   OH278847   3.835   3.723  15.784 -0.6537 -0.6047 -0.6885
19119TIP3    H178848   3.778   3.648  15.803  0.5752 -1.3237  0.4091
19119TIP3    H278849   3.780   3.800  15.800 -1.2999 -1.2656  0.4780
19120TIP3   OH278850   1.297   2.017   5.972  0.3253  0.2956  0.4284
19120TIP3    H178851   1.294   1.922   5.961 -1.6390  0.4021 -0.2821
19120TIP3    H278852   1.339   2.048   5.892  0.1517  0.0701  0.2459
19121TIP3   OH278853   5.067   2.950  17.115 -0.3848 -0.0866  0.1019
19121TIP3    H178854   5.148   2.997  17.094  0.5450 -1.2719  0.9320
19121TIP3    H278855   5.035   2.991  17.195  0.0876 -0.4521  0.4800
19122TIP3   OH278856   1.056   3.233  15.634  0.0973  0.2514  0.2724
19122TIP3    H178857   1.108   3.294  15.687  0.8226 -0.6044  0.5753
19122TIP3    H278858   1.003   3.185  15.698 -0.1405  0.2583  0.0817
19123TIP3   OH278859   2.017   0.227   5.309 -0.1500  0.0910 -0.1906
19123TIP3    H178860   2.025   0.160   5.241  2.2844 -0.7666  0.8358
19123TIP3    H278861   2.060   0.188   5.385 -0.9971  1.8337  1.2328
19124TIP3   OH278862   4.925   1.694   0.015  0.1252 -0.0946  0.7724
19124TIP3    H178863   4.860   1.634  -0.022  0.0464  0.1934  0.4409
19124TIP3    H278864   4.952   1.748  -0.059 -0.0020  0.4573  1.1286
19125TIP3   OH278865   5.983   0.114  16.747  0.4408  0.2586 -0.6937
19125TIP3    H178866   5.946   0.151  16.667 -1.2626  0.2383  0.0367
19125TIP3    H278867   5.912   0.060  16.783  1.3200 -0.0758  0.6040
19126TIP3   OH278868   1.468   0.102   0.703 -0.0019 -0.1921  0.2330
19126TIP3    H178869   1.391   0.074   0.752 -0.4336 -0.2013 -0.4434
19126TIP3    H278870   1.464   0.198   0.706 -0.1350 -0.1910  0.0584
19127TIP3   OH278871   2.036   1.363   1.072  0.0858 -0.0502 -0.4714
19127TIP3    H178872   2.120   1.377   1.117 -0.3414  0.1353  0.2836
19127TIP3    H278873   2.026   1.440   1.016  0.3296  0.0186 -0.4230
19128TIP3   OH278874   6.285   5.851  12.683  0.1944 -1.0556  0.0060
19128TIP3    H178875   6.220   5.921  12.690  0.3514 -0.9746  0.6487
19128TIP3    H278876   6.270   5.814  12.596  0.4801  0.1453 -0.5784
19129TIP3   OH278877   5.267   5.667  13.930  0.2011 -0.2923  0.0803
19129TIP3    H178878   5.272   5.594  13.992 -1.5262  1.1700  2.1156
19129TIP3    H278879   5.344   5.721  13.950  0.9930 -1.0515 -0.8156
19130TIP3   OH278880   5.347   4.803   4.768 -0.0705  0.1899  0.3214
19130TIP3    H178881   5.330   4.885   4.814 -0.5053 -0.0387  0.5737
19130TIP3    H278882   5.279   4.744   4.799 -0.3384  0.0162 -0.5753
19131TIP3   OH278883   0.243   4.760   1.648  0.2109 -0.0600 -0.2981
19131TIP3    H178884   0.187   4.803   1.583  0.2782  1.5357  0.6547
19131TIP3    H278885   0.186   4.749   1.725  1.1777  1.6810  0.7215
19132TIP3   OH278886   4.137   5.013   5.503 -0.2718 -0.1647 -0.2462
19132TIP3    H178887   4.129   4.985   5.412  0.7731  0.1784 -0.4590
19132TIP3    H278888   4.227   4.991   5.527  0.1436  1.6528  0.0215
19133TIP3   OH278889   0.518   3.409  10.499  0.1724  0.7685  0.4165
19133TIP3    H178890   0.598   3.361  10.518 -0.1664  0.0802  0.1507
19133TIP3    H278891   0.546   3.479  10.440  0.5688  0.5020  0.2827
19134TIP3   OH278892   4.675   1.656   5.846 -0.1037 -0.2397 -0.4012
19134TIP3    H178893   4.759   1.667   5.890  0.0898 -1.3195 -0.4732
19134TIP3    H278894   4.672   1.563   5.822 -1.8431 -0.5286  0.6936
19135TIP3   OH278895   1.510   1.468   3.891  0.1099 -0.6349 -0.7885
19135TIP3    H178896   1.516   1.532   3.961  0.7947 -1.4175 -0.1030
19135TIP3    H278897   1.506   1.520   3.810 -1.7704  0.2983 -0.1377
19136TIP3   OH278898   0.547   3.980  12.322  0.3021 -0.4938 -0.0724
19136TIP3    H178899   0.501   3.959  12.403  2.3647 -0.8754  1.0569
19136TIP3    H278900   0.577   4.070  12.334  0.7952 -0.6222 -0.3087
19137TIP3   OH278901   2.877   6.411  12.136  0.6731 -0.4431  0.2106
19137TIP3    H178902   2.948   6.419  12.073 -0.9667  1.9122 -1.4927
19137TIP3    H278903   2.897   6.475  12.204  0.9805 -0.9248  0.5770
19138TIP3   OH278904   3.853   4.911   5.968 -0.0583  0.4507  0.2174
19138TIP3    H178905   3.816   4.827   5.995 -1.7812 -0.2933 -3.6725
19138TIP3    H278906   3.948   4.900   5.978 -0.2488 -1.8872  0.0925
19139TIP3   OH278907   0.791   2.170   0.490  0.7889 -0.3111  0.2846
19139TIP3    H178908   0.848   2.246   0.501  0.1573  0.0779  0.9599
19139TIP3    H278909   0.703   2.207   0.482  0.2162 -1.0235  2.5923
19140TIP3   OH278910   6.235   1.623  13.036  0.6877  0.1304  0.4739
19140TIP3    H178911   6.279   1.570  13.101  0.5119  0.7152  1.0809
19140TIP3    H278912   6.157   1.572  13.012  0.7392 -0.0766  0.7436
19141TIP3   OH278913   2.475   0.587  16.071  0.2592 -0.7734  0.3497
19141TIP3    H178914   2.487   0.492  16.066 -0.8864 -0.9471  0.7559
19141TIP3    H278915   2.387   0.599  16.105 -0.2161  0.4494 -1.2034
19142TIP3   OH278916   4.969   3.022   0.053  0.2237 -0.0646 -0.1024
19142TIP3    H178917   4.983   3.010   0.147  0.6331 -0.6898 -0.2347
19142TIP3    H278918   4.875   3.010   0.041  0.3010 -0.9173  0.0985
19143TIP3   OH278919   0.379   3.891  11.031 -0.0938 -0.0840 -0.2036
19143TIP3    H178920   0.333   3.975  11.032 -0.2865 -0.1650  1.8091
19143TIP3    H278921   0.324   3.834  10.978 -1.5767  0.2422  0.9192
19144TIP3   OH278922   5.579   1.549  15.472 -0.4780  0.3017 -0.2484
19144TIP3    H178923   5.487   1.573  15.479  0.0025  2.2079  0.2131
19144TIP3    H278924   5.598   1.553  15.379 -0.7342  0.4062 -0.2971
19145TIP3   OH278925   0.620   0.380   3.972  0.5381 -0.0309 -0.1825
19145TIP3    H178926   0.556   0.397   3.903 -0.3244 -0.0881  0.5847
19145TIP3    H278927   0.694   0.437   3.951  0.7235 -0.7905 -1.7146
19146TIP3   OH278928   3.923   4.557  12.764  0.1265  0.5148  0.5887
19146TIP3    H178929   4.005   4.559  12.814  0.2796  0.7869  0.3255
19146TIP3    H278930   3.937   4.617  12.691 -0.1250  0.1798  0.2561
19147TIP3   OH278931   1.974   0.379   1.354 -0.1772  0.3184 -0.2967
19147TIP3    H178932   1.947   0.470   1.367 -0.1539  0.3631 -0.5472
19147TIP3    H278933   1.993   0.373   1.260 -2.5135 -0.5568 -0.7952
19148TIP3   OH278934   0.960   0.717  13.371  0.0662 -0.3298  0.5033
19148TIP3    H178935   0.905   0.700  13.447  0.4263 -1.3593  0.5597
19148TIP3    H278936   1.031   0.653  13.378  1.5833  1.3042  0.7245
19149TIP3   OH278937   2.359   0.691  14.729  0.3924 -0.6231  0.1205
19149TIP3    H178938   2.288   0.711  14.667  0.4703 -2.4426 -0.6283
19149TIP3    H278939   2.438   0.691  14.676  0.5635 -1.4008  0.3595
19150TIP3   OH278940   0.314   3.882  12.456  0.5990 -0.2297 -0.2828
19150TIP3    H178941   0.358   3.798  12.449  0.8005 -0.0702 -0.9579
19150TIP3    H278942   0.346   3.919  12.539 -0.2598 -1.2462  0.5156
19151TIP3   OH278943   2.110   4.859  14.174 -0.2833  0.1428  0.7179
19151TIP3    H178944   2.027   4.904  14.163 -0.0757  0.4032  0.1735
19151TIP3    H278945   2.160   4.881  14.095  1.8817  3.2723  2.7255
19152TIP3   OH278946   4.614   1.716   0.617 -0.2634  0.4906 -0.0494
19152TIP3    H178947   4.675   1.656   0.575  1.1722  0.9409  1.3001
19152TIP3    H278948   4.658   1.744   0.697 -1.4953  2.2269  0.0952
19153TIP3   OH278949   5.558   0.988  13.864  0.4090 -0.4000  0.4228
19153TIP3    H178950   5.559   0.999  13.959  1.8221  0.7883  0.3120
19153TIP3    H278951   5.643   0.947  13.845  0.3059 -0.2434 -0.3683
19154TIP3   OH278952   3.904   3.123   3.134 -0.3370 -0.2129 -0.3169
19154TIP3    H178953   3.926   3.036   3.168 -0.6599  0.0757  0.6619
19154TIP3    H278954   3.809   3.122   3.128 -0.3650  0.1882  0.0292
19155TIP3   OH278955   1.713   4.394  16.434 -0.2765 -0.3628 -0.5871
19155TIP3    H178956   1.789   4.354  16.476 -0.2867  1.0816  0.9155
19155TIP3    H278957   1.686   4.330  16.368  1.4622 -1.4690 -0.3090
19156TIP3   OH278958   4.412   6.521   3.544  0.2605  0.1926  0.0094
19156TIP3    H178959   4.365   6.595   3.583  0.1294 -0.4087  1.0358
19156TIP3    H278960   4.438   6.551   3.457  0.5387  1.5694  0.5552
19157TIP3   OH278961   0.672   6.547  12.017  0.4947 -0.0340  0.2437
19157TIP3    H178962   0.598   6.596  11.982  0.8031 -0.0610 -0.4810
19157TIP3    H278963   0.634   6.468  12.054 -0.0570  0.9308  1.8251
19158TIP3   OH278964   2.577   6.019  11.590 -0.2583 -0.0391 -0.0041
19158TIP3    H178965   2.636   5.991  11.519 -1.9212  0.0769 -1.5113
19158TIP3    H278966   2.554   5.937  11.634 -0.0794 -0.2565 -0.3025
19159TIP3   OH278967   0.704   1.657  15.717 -0.0352 -0.2260  0.4283
19159TIP3    H178968   0.785   1.657  15.665 -1.7422  1.9434 -2.5324
19159TIP3    H278969   0.641   1.705  15.663 -3.4492 -2.0864  2.4537
19160TIP3   OH278970   4.821   2.016  13.255 -0.0779  0.0864  0.4757
19160TIP3    H178971   4.782   1.951  13.314 -0.6184 -0.8070 -0.8180
19160TIP3    H278972   4.891   1.968  13.210  2.6789  1.6555  2.7586
19161TIP3   OH278973   0.680   0.358   2.529 -0.6288 -0.5123 -0.2146
19161TIP3    H178974   0.744   0.350   2.600 -0.0746  0.2999 -0.6063
19161TIP3    H278975   0.728   0.401   2.459 -2.3370  2.8351  0.4899
19162TIP3   OH278976   0.366   4.278  12.100 -0.1342  0.2836  0.2701
19162TIP3    H178977   0.392   4.324  12.179 -0.3972 -0.3823  0.7536
19162TIP3    H278978   0.386   4.186  12.118 -0.9736  0.0155 -0.1008
19163TIP3   OH278979   1.158   4.726   6.004 -0.2139  0.2945  0.3186
19163TIP3    H178980   1.150   4.773   6.087  1.0890 -0.0490  0.6754
19163TIP3    H278981   1.118   4.641   6.021 -0.8732  0.5896  0.2658
19164TIP3   OH278982   2.220   6.631  12.178  0.4765 -0.4468  0.3732
19164TIP3    H178983   2.190   6.722  12.173  0.0642 -0.6169 -0.4241
19164TIP3    H278984   2.252   6.621  12.267 -0.2515  0.2423  0.7222
19165TIP3   OH278985   6.267   1.731   0.875 -0.3425  0.0161 -1.0198
19165TIP3    H178986   6.292   1.810   0.923 -0.1322 -1.0272  0.6806
19165TIP3    H278987   6.206   1.762   0.808  0.7104  1.7747 -1.2328
19166TIP3   OH278988   4.507   0.166   5.190  0.6918  0.2385 -0.0156
19166TIP3    H178989   4.495   0.175   5.284  0.3505 -0.8537  0.0616
19166TIP3    H278990   4.552   0.246   5.163  1.4179  0.2491  1.1801
19167TIP3   OH278991   1.130   4.103  16.981 -0.0365  0.6323 -0.4942
19167TIP3    H178992   1.134   4.189  17.022 -0.3058  0.2988  0.2482
19167TIP3    H278993   1.183   4.112  16.902  1.1381  1.0751  0.3042
19168TIP3   OH278994   6.654   4.843  15.352 -0.0328  0.3720 -0.4977
19168TIP3    H178995   6.637   4.800  15.436  1.8452  0.5294  0.0070
19168TIP3    H278996   6.745   4.820  15.331 -0.2116  0.9874 -2.1089
19169TIP3   OH278997   4.746   0.301  16.743 -0.0464 -0.0945  0.1675
19169TIP3    H178998   4.692   0.226  16.717  0.2397  0.3060 -1.7079
19169TIP3    H278999   4.712   0.327  16.829 -1.4667 -1.1118 -0.0601
19170TIP3   OH279000   3.954   1.529   2.899  0.1305  0.1477  0.2818
19170TIP3    H179001   4.020   1.520   2.831  0.5577  1.3241  0.5273
19170TIP3    H279002   3.872   1.502   2.857  0.6821 -0.9649 -0.1324
19171TIP3   OH279003   6.252   0.447   4.939  0.1040  0.1056  0.1284
19171TIP3    H179004   6.252   0.362   4.982 -2.9627 -0.6300 -1.0697
19171TIP3    H279005   6.327   0.493   4.977  0.3425 -2.1517  2.7051
19172TIP3   OH279006   4.367   6.458  16.740  0.1185  0.0790  0.5231
19172TIP3    H179007   4.373   6.461  16.836 -1.9467 -2.6322  0.8744
19172TIP3    H279008   4.392   6.369  16.717  0.2219  0.5668 -1.4394
19173TIP3   OH279009   0.795   5.138   5.129 -0.1259  0.0676  0.5397
19173TIP3    H179010   0.736   5.133   5.053  2.0353  1.3098 -1.3478
19173TIP3    H279011   0.756   5.206   5.184 -1.2165 -0.1529  0.0717
19174TIP3   OH279012   1.600   2.395   0.568  0.0082  0.1131 -0.3569
19174TIP3    H179013   1.538   2.349   0.512 -1.3513  0.4923  0.7763
19174TIP3    H279014   1.614   2.479   0.525  0.2245 -0.2146 -0.9335
19175TIP3   OH279015   6.429   0.595   1.462 -0.2377 -0.3238 -0.1067
19175TIP3    H179016   6.433   0.662   1.393  1.6994 -1.6511 -1.3929
19175TIP3    H279017   6.412   0.645   1.542  0.9797  1.7225 -1.0302
19176TIP3   OH279018   5.275   2.058   2.280  0.1916 -0.4081 -0.2212
19176TIP3    H179019   5.256   2.060   2.187 -0.8677  3.3821 -0.0684
19176TIP3    H279020   5.371   2.052   2.285  0.5851  2.9330 -1.7594
19177TIP3   OH279021   3.425   0.579   6.783 -0.3546 -0.7871  0.1458
19177TIP3    H179022   3.463   0.545   6.702 -1.0423 -0.2825 -0.4001
19177TIP3    H279023   3.413   0.502   6.838 -0.0241 -1.1549 -0.2849
19178TIP3   OH279024   5.126   2.858   1.238 -0.2525 -0.0158  0.0281
19178TIP3    H179025   5.101   2.829   1.150  1.2146 -2.8005  0.4175
19178TIP3    H279026   5.109   2.783   1.294 -0.3060  1.3953  1.9951
19179TIP3   OH279027   2.142   0.433   0.413  0.1313  0.1754 -0.0071
19179TIP3    H179028   2.195   0.361   0.378  0.7374  0.8814 -0.5802
19179TIP3    H279029   2.055   0.395   0.427  0.0797 -0.3630 -1.5354
19180TIP3   OH279030   6.321   2.669   1.108 -0.4400 -0.0920  0.0379
19180TIP3    H179031   6.367   2.712   1.036 -1.5271 -1.1216 -1.3255
19180TIP3    H279032   6.231   2.659   1.076 -0.2260 -3.4795  0.2068
19181TIP3   OH279033   6.817   3.540  11.095 -0.2429  0.6606  0.3764
19181TIP3    H179034   6.730   3.578  11.093 -0.8012 -0.4269  1.9649
19181TIP3    H279035   6.815   3.470  11.030 -1.1717 -0.5123  1.6027
19182TIP3   OH279036   3.710   5.740   2.613 -0.4691  0.1457  0.5607
19182TIP3    H179037   3.711   5.675   2.543 -0.1948  0.7421 -0.0013
19182TIP3    H279038   3.733   5.691   2.692  1.1957 -0.1671 -0.0897
19183TIP3   OH279039   2.830   0.440  16.584 -0.3810  0.2116  0.2344
19183TIP3    H179040   2.844   0.486  16.667 -0.6481  0.6860  0.0219
19183TIP3    H279041   2.914   0.446  16.539 -0.2940  0.1303  0.3873
19184TIP3   OH279042   3.294   5.278   1.323  0.1780 -0.3337 -0.0394
19184TIP3    H179043   3.366   5.265   1.261 -0.0322  0.3148 -0.4269
19184TIP3    H279044   3.332   5.330   1.394  0.1783 -0.2731 -0.0838
19185TIP3   OH279045   1.631   6.204  16.012  0.2227  0.0128 -0.1475
19185TIP3    H179046   1.553   6.202  16.068 -1.0497  2.3271 -1.6850
19185TIP3    H279047   1.690   6.266  16.055  0.6576 -0.7100  0.3120
19186TIP3   OH279048   5.486   3.354   3.072 -0.1168  0.2069 -0.1867
19186TIP3    H179049   5.425   3.328   3.141 -1.7653  3.1962 -0.3100
19186TIP3    H279050   5.469   3.448   3.060  1.8055  0.3129 -3.0170
19187TIP3   OH279051   6.569   2.880  12.683  0.0507  0.0727  0.0601
19187TIP3    H179052   6.607   2.967  12.694 -0.4784  0.0952  2.0062
19187TIP3    H279053   6.641   2.827  12.649  0.8892  0.8784  0.5242
19188TIP3   OH279054   6.424   3.666   4.526  0.4389 -0.3351  0.6279
19188TIP3    H179055   6.381   3.609   4.590 -2.2470  1.4481  0.5894
19188TIP3    H279056   6.475   3.728   4.579 -0.2439 -0.0475  0.9647
19189TIP3   OH279057   3.655   0.593  14.481  0.5782 -1.0445  0.0165
19189TIP3    H179058   3.711   0.517  14.467 -0.1056 -1.0493 -3.9161
19189TIP3    H279059   3.566   0.560  14.467  0.1718  0.1851 -0.4991
19190TIP3   OH279060   1.088   1.832  16.879  0.2511 -0.1905 -0.2476
19190TIP3    H179061   0.999   1.807  16.854  0.4881 -1.8172  0.4106
19190TIP3    H279062   1.077   1.887  16.956 -0.1680 -0.8480  0.1705
19191TIP3   OH279063   3.100   6.762   6.367  0.5933 -0.4180  0.8309
19191TIP3    H179064   3.071   6.724   6.283 -1.1545  0.5869  0.9285
19191TIP3    H279065   3.195   6.760   6.362  0.5430 -0.3435 -1.2165
19192TIP3   OH279066   6.744   0.356  16.442 -0.2105 -0.5018 -0.1369
19192TIP3    H179067   6.652   0.362  16.468  0.1798  0.2876  1.1539
19192TIP3    H279068   6.765   0.263  16.450 -0.1379 -0.3377  2.5056
19193TIP3   OH279069   0.729   1.257   3.836  0.5449  0.6739  0.4508
19193TIP3    H179070   0.678   1.337   3.821 -1.7666 -0.7492  0.2197
19193TIP3    H279071   0.749   1.259   3.930  0.0532  1.2551  0.5515
19194TIP3   OH279072   1.175   5.627  15.233  0.5876 -0.6312 -0.1369
19194TIP3    H179073   1.148   5.551  15.182 -0.3494  0.6493 -1.6223
19194TIP3    H279074   1.235   5.674  15.176  2.4413 -1.0261  1.3764
19195TIP3   OH279075   5.430   5.469   3.724  0.3924  0.5667 -0.2158
19195TIP3    H179076   5.397   5.558   3.722 -2.6119 -0.3670  1.5930
19195TIP3    H279077   5.391   5.427   3.647 -0.4341  0.1767  0.3964
19196TIP3   OH279078   1.054   5.186   1.347 -0.3000  0.2536  0.6902
19196TIP3    H179079   1.037   5.101   1.386 -0.4200 -0.3448 -0.6136
19196TIP3    H279080   0.968   5.227   1.341 -0.2867  0.3288  1.0064
19197TIP3   OH279081   6.494   2.933   0.671 -0.0719  0.1116  0.1235
19197TIP3    H179082   6.404   2.934   0.638  0.1066  0.4900 -0.3775
19197TIP3    H279083   6.548   2.924   0.592  0.3177 -0.6362  0.4597
19198TIP3   OH279084   4.353   4.844  11.724  0.5511 -0.0472  0.0785
19198TIP3    H179085   4.262   4.837  11.755  0.5127  0.1221  0.0069
19198TIP3    H279086   4.346   4.889  11.640  0.7510  0.5073  0.3522
19199TIP3   OH279087   0.877   3.152   6.349  0.3016 -1.0951 -0.4248
19199TIP3    H179088   0.809   3.212   6.381  0.7034 -0.6177 -0.4662
19199TIP3    H279089   0.889   3.089   6.421 -0.7426 -1.6606 -0.7237
19200TIP3   OH279090   4.644   1.153  11.266  0.7455 -0.0601  0.2429
19200TIP3    H179091   4.690   1.093  11.207 -4.0115 -2.9717 -1.1231
19200TIP3    H279092   4.572   1.188  11.214  0.8177  3.7065  2.2845
19201TIP3   OH279093   4.087   0.039   3.295  0.1428 -0.6992  0.2712
19201TIP3    H179094   4.013   0.080   3.249  1.9887  1.1939 -1.2066
19201TIP3    H279095   4.159   0.044   3.233  1.8026 -1.5124  2.0464
19202TIP3   OH279096   1.757   3.616  16.275 -0.3549  0.0440  0.4035
19202TIP3    H179097   1.719   3.703  16.276  0.8316  0.5839  1.3739
19202TIP3    H279098   1.752   3.587  16.367  1.1071 -0.0451  0.4808
19203TIP3   OH279099   4.383   5.266   1.348  0.1117 -0.1075 -0.2820
19203TIP3    H179100   4.406   5.213   1.272  1.0845 -2.0224  1.2290
19203TIP3    H279101   4.447   5.240   1.415  0.0964  2.4233  0.8331
19204TIP3   OH279102   3.258   0.304   2.023  0.5455  0.3762 -0.2771
19204TIP3    H179103   3.335   0.248   2.037 -0.2570 -1.6042 -2.9530
19204TIP3    H279104   3.274   0.381   2.078  2.7493 -1.4968  1.9386
19205TIP3   OH279105   6.603   5.627   1.922 -0.6988 -0.1573 -0.0040
19205TIP3    H179106   6.510   5.619   1.943 -0.9498  1.7029 -0.2445
19205TIP3    H279107   6.643   5.657   2.004 -0.4773  0.0731 -0.1962
19206TIP3   OH279108   1.170   1.137   5.768 -0.2683  0.1119  0.1232
19206TIP3    H179109   1.075   1.145   5.775 -0.4284 -0.6517 -1.0423
19206TIP3    H279110   1.189   1.150   5.675  0.9432  1.8590  0.5496
19207TIP3   OH279111   2.458   5.351  15.389 -0.2003  0.5900 -0.3907
19207TIP3    H179112   2.423   5.375  15.304  0.2359  1.4320 -0.3546
19207TIP3    H279113   2.399   5.284  15.423 -0.2825  0.1352 -1.4161
19208TIP3   OH279114   2.280   4.877   0.980  0.2659 -0.2003  0.7546
19208TIP3    H179115   2.299   4.865   1.073  0.8312 -0.7320  0.5724
19208TIP3    H279116   2.365   4.889   0.939 -0.0060  0.4145  0.3473
19209TIP3   OH279117   2.509   1.507  15.571  0.2903 -0.8135  0.0440
19209TIP3    H179118   2.469   1.583  15.528  2.9424  0.7039  0.0258
19209TIP3    H279119   2.497   1.523  15.664  2.1529  0.5261  0.1145
19210TIP3   OH279120   3.872   1.192   3.392 -0.1229 -0.3816  0.5265
19210TIP3    H179121   3.849   1.116   3.446  0.1549 -1.2620 -0.5586
19210TIP3    H279122   3.967   1.192   3.389 -0.0877  0.5633  1.2678
19211TIP3   OH279123   1.706   1.404  14.284 -0.0112 -0.3762  0.4549
19211TIP3    H179124   1.692   1.389  14.378  1.7036 -1.9995  0.4989
19211TIP3    H279125   1.740   1.321  14.251 -0.9651  0.0373 -1.7138
19212TIP3   OH279126   4.853   1.666  11.433 -0.4265 -0.1155 -0.6219
19212TIP3    H179127   4.776   1.621  11.398 -0.7373  0.4830 -0.7087
19212TIP3    H279128   4.923   1.600  11.427 -1.4425 -1.5476  1.7468
19213TIP3   OH279129   1.228   1.335   6.655  0.0069 -0.0452 -0.7680
19213TIP3    H179130   1.307   1.377   6.623  0.7520 -0.3216  0.6488
19213TIP3    H279131   1.166   1.406   6.668  1.3687  0.7584  1.9655
19214TIP3   OH279132   4.901   0.276  16.247 -0.6065 -0.4789  0.5104
19214TIP3    H179133   4.944   0.337  16.188 -0.5440 -1.6092 -0.6646
19214TIP3    H279134   4.810   0.276  16.220 -0.3128 -2.1299 -0.6770
19215TIP3   OH279135   0.092   4.701  12.072 -0.0485 -0.0610  0.0014
19215TIP3    H179136   0.123   4.712  11.982 -0.2700  0.1573 -0.0481
19215TIP3    H279137   0.026   4.632  12.067 -0.3350  0.2160 -0.0665
19216TIP3   OH279138   5.577   3.409  15.637 -0.4640 -0.0119  0.4391
19216TIP3    H179139   5.568   3.379  15.727  0.5449  0.4425  0.7075
19216TIP3    H279140   5.561   3.331  15.584  0.5510 -0.6731  1.0718
19217TIP3   OH279141   1.947   2.944   5.893  0.3089 -0.2062 -0.0134
19217TIP3    H179142   1.882   3.012   5.913  0.7875  0.5687 -1.0002
19217TIP3    H279143   1.996   2.933   5.974 -0.6595 -0.3767  0.5689
19218TIP3   OH279144   1.438   2.996   1.773 -0.1436  0.6741 -0.0715
19218TIP3    H179145   1.358   2.975   1.821  0.2683 -1.1323 -0.0961
19218TIP3    H279146   1.491   3.048   1.834  0.2978 -1.4318  1.4375
19219TIP3   OH279147   3.480   1.732  16.747  0.2806 -0.6819  0.0009
19219TIP3    H179148   3.530   1.810  16.772 -0.8639 -0.3214  1.3198
19219TIP3    H279149   3.503   1.667  16.814 -2.3044  0.0696  1.7973
19220TIP3   OH279150   3.692   3.914   5.528  0.3702 -0.3605  0.3503
19220TIP3    H179151   3.762   3.865   5.570 -1.2327 -1.5144  1.7974
19220TIP3    H279152   3.734   3.954   5.451  2.5323 -1.1578  1.0333
19221TIP3   OH279153   4.622   0.128  11.855 -0.0687  0.3147 -0.3599
19221TIP3    H179154   4.555   0.060  11.861 -1.5012  1.7386  0.9311
19221TIP3    H279155   4.702   0.087  11.886 -0.6595 -1.0465 -0.5791
19222TIP3   OH279156   2.757   4.564  17.162  0.3087  0.2553 -0.2022
19222TIP3    H179157   2.798   4.648  17.181 -0.5806  0.8841 -1.0286
19222TIP3    H279158   2.739   4.566  17.068 -0.1925 -0.6416 -0.1372
19223TIP3   OH279159   1.348   5.334   1.554 -0.0469  0.0805  0.3986
19223TIP3    H179160   1.280   5.300   1.497 -0.9764  0.6545  1.1374
19223TIP3    H279161   1.391   5.403   1.502 -0.1816 -0.1235  0.0129
19224TIP3   OH279162   5.232   6.040   6.498 -0.0998  0.5902 -0.6171
19224TIP3    H179163   5.215   6.133   6.482 -0.5356  0.8222  1.0032
19224TIP3    H279164   5.266   6.007   6.415 -1.8172  1.7420 -1.8414
19225TIP3   OH279165   4.313   6.502   4.431 -0.0574  0.1146  0.2399
19225TIP3    H179166   4.360   6.437   4.380  0.6910  1.1484 -0.4455
19225TIP3    H279167   4.282   6.566   4.366 -0.8101  0.4305  0.8781
19226TIP3   OH279168   0.822   3.267   5.183  0.0483  0.5384  0.1108
19226TIP3    H179169   0.741   3.230   5.218  0.1082  0.1746 -0.1280
19226TIP3    H279170   0.818   3.249   5.089  1.5299 -1.7164  0.3962
19227TIP3   OH279171   1.979   2.072  15.854 -0.0783 -0.1645 -0.3838
19227TIP3    H179172   2.057   2.041  15.900 -0.7103  0.0097  0.8331
19227TIP3    H279173   1.945   2.142  15.908 -2.5756 -1.9789  0.5886
19228TIP3   OH279174   5.329   1.491   4.077 -0.4063 -0.5407 -0.0879
19228TIP3    H179175   5.385   1.467   4.151  1.2942  0.7022 -0.9076
19228TIP3    H279176   5.241   1.465   4.105 -0.2664  2.0294  3.4030
19229TIP3   OH279177   5.134   3.690   3.554  0.2565  0.0745  0.3430
19229TIP3    H179178   5.051   3.727   3.582 -0.2998 -0.2970 -0.7888
19229TIP3    H279179   5.132   3.600   3.588  0.0160 -0.0607 -0.0238
19230TIP3   OH279180   2.191   5.618  11.721  0.3949  0.0781  0.0436
19230TIP3    H179181   2.214   5.616  11.628 -1.0970  2.2884 -0.4374
19230TIP3    H279182   2.110   5.567  11.727  1.1431 -1.1195  0.3969
19231TIP3   OH279183   4.639   3.437   0.389  0.4555  0.2849  0.0215
19231TIP3    H179184   4.627   3.508   0.327  2.1171  0.0509 -0.6119
19231TIP3    H279185   4.571   3.451   0.455 -0.3591  1.4224 -1.0168
19232TIP3   OH279186   3.367   4.651  17.131  0.2762 -0.2763  0.5088
19232TIP3    H179187   3.461   4.658  17.147  0.7542 -0.1039 -1.9518
19232TIP3    H279188   3.359   4.581  17.066 -1.0724  0.9713 -0.7591
19233TIP3   OH279189   5.702   5.645   1.410  0.4982  0.2055 -0.0911
19233TIP3    H179190   5.631   5.597   1.368 -1.1039  1.9155  0.5107
19233TIP3    H279191   5.665   5.675   1.493  2.6038 -0.5124  1.1686
19234TIP3   OH279192   1.441   0.963   5.630  0.3492  0.2171  0.0938
19234TIP3    H179193   1.355   0.958   5.672 -0.2355  0.6278 -1.0107
19234TIP3    H279194   1.471   0.872   5.625 -0.9363 -0.1659 -1.2899
19235TIP3   OH279195   4.779   5.151  11.433 -0.1303  0.3136 -0.4644
19235TIP3    H179196   4.723   5.205  11.376 -1.0908 -0.0323  0.1315
19235TIP3    H279197   4.718   5.110  11.495  0.8011 -0.0050  0.2621
19236TIP3   OH279198   1.195   2.744   3.551 -0.0881  0.6112  0.0454
19236TIP3    H179199   1.245   2.789   3.619  1.0327 -1.7819  0.9245
19236TIP3    H279200   1.261   2.716   3.487 -0.6157 -0.3051 -0.1250
19237TIP3   OH279201   3.550   5.287  13.670 -0.3959 -0.1226 -0.4268
19237TIP3    H179202   3.524   5.302  13.579  1.3648 -0.1361 -0.9705
19237TIP3    H279203   3.468   5.278  13.717 -1.3542  0.1360 -1.9745
19238TIP3   OH279204   6.128   3.668   0.829 -0.2836  0.1030 -0.7904
19238TIP3    H179205   6.084   3.741   0.784 -2.0556 -0.9176 -0.8049
19238TIP3    H279206   6.061   3.632   0.888  1.1945 -0.2189  0.7901
19239TIP3   OH279207   2.158   6.165  14.330 -0.1284  0.0809 -0.1933
19239TIP3    H179208   2.182   6.150  14.238 -2.3649 -0.5029 -0.7510
19239TIP3    H279209   2.078   6.218  14.325 -0.2857  0.0348  1.4098
19240TIP3   OH279210   4.846   5.986  16.171  0.4102 -0.2804  0.3661
19240TIP3    H179211   4.937   5.997  16.144  0.2315  0.7184  0.1512
19240TIP3    H279212   4.797   6.048  16.118 -0.4829 -1.1822  0.0945
19241TIP3   OH279213   1.830   4.225   0.762  0.3673 -0.0746  0.3987
19241TIP3    H179214   1.761   4.169   0.798  1.3694 -2.1083 -0.6188
19241TIP3    H279215   1.909   4.199   0.809  1.0129 -0.1351 -0.6813
19242TIP3   OH279216   5.085   6.087   3.844  0.5430  0.4257 -0.0807
19242TIP3    H179217   5.088   6.052   3.754  1.8261  0.5127 -0.0905
19242TIP3    H279218   5.137   6.167   3.840 -0.0290  0.8340  0.5819
19243TIP3   OH279219   5.501   3.083   0.522  0.2556 -0.2838  0.5953
19243TIP3    H179220   5.584   3.100   0.566 -0.1899  1.4356  0.8409
19243TIP3    H279221   5.507   3.133   0.440 -0.2791 -0.6720  0.3114
19244TIP3   OH279222   5.406   4.953   3.041 -0.2812 -0.3103  0.5115
19244TIP3    H179223   5.475   5.010   3.075 -0.3816 -0.6706  1.3303
19244TIP3    H279224   5.436   4.931   2.953 -0.0710  0.7219  0.3084
19245TIP3   OH279225   6.257   5.588   1.789 -0.1224  0.8225 -0.3142
19245TIP3    H179226   6.297   5.664   1.831 -1.3586  1.0401  0.5185
19245TIP3    H279227   6.182   5.566   1.844 -1.2803  0.5652 -1.9033
19246TIP3   OH279228   5.792   6.325   4.018  0.2157  0.1319  0.1033
19246TIP3    H179229   5.733   6.250   4.026 -0.6553  0.7613 -0.2314
19246TIP3    H279230   5.848   6.321   4.096 -1.9198  0.9259  1.7584
19247TIP3   OH279231   2.771   0.536  12.353  0.1670  0.2822  0.0467
19247TIP3    H179232   2.826   0.471  12.311 -0.7370  0.3804 -1.3578
19247TIP3    H279233   2.814   0.620  12.333  0.4334  0.2351  0.4243
19248TIP3   OH279234   6.185   5.712  13.919 -0.4314  0.1754 -0.0157
19248TIP3    H179235   6.145   5.635  13.960 -0.7058 -0.1975 -0.9583
19248TIP3    H279236   6.120   5.741  13.855  0.5183 -0.0492 -1.1228
19249TIP3   OH279237   0.269   1.245   0.941 -0.0744 -0.5136 -0.0098
19249TIP3    H179238   0.201   1.309   0.921 -1.6265 -2.8757 -3.0450
19249TIP3    H279239   0.277   1.249   1.037 -3.5220  0.8534  0.3778
19250TIP3   OH279240   3.238   6.777  16.435 -0.4521 -0.5141  0.0422
19250TIP3    H179241   3.222   6.871  16.437  1.5550 -0.1413  2.0597
19250TIP3    H279242   3.180   6.741  16.502 -0.4690 -0.5738 -0.0038
19251TIP3   OH279243   3.378   2.016  13.848 -0.0492  0.0339 -0.3551
19251TIP3    H179244   3.420   1.991  13.765  1.0097  1.8094 -0.4136
19251TIP3    H279245   3.431   1.972  13.915 -1.3624 -2.0301 -0.5760
19252TIP3   OH279246   0.339   1.702   2.494 -0.3032 -0.5868 -0.5708
19252TIP3    H179247   0.286   1.649   2.554 -0.1574 -1.3535 -1.1107
19252TIP3    H279248   0.304   1.791   2.504 -0.8938 -0.8709 -0.0314
19253TIP3   OH279249   4.130   3.836   4.649  0.0011 -0.1722  0.0903
19253TIP3    H179250   4.133   3.879   4.563  0.8717  2.2710  1.2755
19253TIP3    H279251   4.063   3.884   4.698 -1.6498 -2.5659  0.3448
19254TIP3   OH279252   5.680   4.776   1.348 -0.6490  0.1507 -0.2166
19254TIP3    H179253   5.628   4.762   1.427  0.6179  1.1658  0.8313
19254TIP3    H279254   5.657   4.702   1.292 -0.3559 -1.5353  1.7616
19255TIP3   OH279255   2.053   1.312   0.666 -0.1773 -0.0017 -0.4497
19255TIP3    H179256   1.972   1.336   0.710  0.4055  1.8874 -0.3090
19255TIP3    H279257   2.038   1.334   0.574 -0.1723 -0.6058 -0.5970
19256TIP3   OH279258   3.738   5.075   4.689  0.4021  0.5708 -0.1701
19256TIP3    H179259   3.742   5.053   4.782  0.0745  0.6989 -0.1270
19256TIP3    H279260   3.652   5.046   4.660  0.5918  0.3106 -0.4931
19257TIP3   OH279261   1.569   6.373   4.170  0.5061  0.7159 -0.0099
19257TIP3    H179262   1.559   6.448   4.112 -1.3891 -1.3048 -2.5301
19257TIP3    H279263   1.543   6.406   4.256 -1.0808  2.7575 -1.1857
19258TIP3   OH279264   3.357   6.348  15.351  0.0329 -0.4160  0.8369
19258TIP3    H179265   3.285   6.409  15.370 -0.2785 -0.9601  1.4293
19258TIP3    H279266   3.436   6.398  15.370  0.0019  1.1200 -2.3015
19259TIP3   OH279267   6.708   6.499   2.179 -0.3463  0.0049 -0.1173
19259TIP3    H179268   6.641   6.547   2.229 -0.2867  0.0208 -0.0540
19259TIP3    H279269   6.788   6.550   2.191 -0.6255  0.7715 -1.3328
19260TIP3   OH279270   1.834   5.017  11.362 -0.0592  0.0895  0.0298
19260TIP3    H179271   1.740   5.032  11.366 -0.0697 -0.2482  2.1541
19260TIP3    H279272   1.847   4.932  11.403  1.0191 -0.8443 -2.0785
19261TIP3   OH279273   3.231   5.371  12.025  0.1698 -0.3377 -0.1159
19261TIP3    H179274   3.192   5.404  12.106  2.0291  1.4513  0.1245
19261TIP3    H279275   3.301   5.312  12.054  0.0790 -0.6116 -0.4459
19262TIP3   OH279276   6.368   6.681  10.951  0.1233  0.1258  0.2469
19262TIP3    H179277   6.388   6.748  10.886 -0.9447  0.0012 -0.2294
19262TIP3    H279278   6.364   6.599  10.902  2.7230 -0.5628  1.0110
19263TIP3   OH279279   0.726   3.595  11.412 -0.3503  0.5466  0.0010
19263TIP3    H179280   0.764   3.554  11.333 -0.0198  0.5228  0.1689
19263TIP3    H279281   0.632   3.581  11.403 -0.3449  0.8113 -0.5407
19264TIP3   OH279282   0.860   4.989   4.293  0.1409 -0.1913  0.4633
19264TIP3    H179283   0.914   5.019   4.220 -3.3278  0.9712 -1.8635
19264TIP3    H279284   0.883   4.897   4.304  3.7865  0.6253  0.9023
19265TIP3   OH279285   1.251   3.447  15.729  0.0539  0.0268  1.1611
19265TIP3    H179286   1.345   3.437  15.746  0.2954  1.2354  0.6440
19265TIP3    H279287   1.212   3.462  15.815  0.4602  0.4244  1.2780
19266TIP3   OH279288   2.404   5.037  11.347 -0.6251 -0.7523 -0.6430
19266TIP3    H179289   2.420   4.988  11.266 -2.6618 -0.9469 -0.9921
19266TIP3    H279290   2.325   4.997  11.383  0.0954 -0.4966  1.3356
19267TIP3   OH279291   3.152   1.549  14.995 -0.5343 -0.2034  0.3134
19267TIP3    H179292   3.207   1.623  14.968 -1.0111 -0.2705 -0.8920
19267TIP3    H279293   3.132   1.566  15.087  1.6711 -0.2861  0.8638
19268TIP3   OH279294   2.075   2.227  14.288  0.8839 -0.5156  0.2186
19268TIP3    H179295   2.164   2.248  14.259  0.5102  0.8042 -0.0422
19268TIP3    H279296   2.086   2.156  14.351  2.2099  0.2090  0.8470
19269TIP3   OH279297   6.762   3.779  10.801  0.3789  0.6792  0.3589
19269TIP3    H179298   6.788   3.713  10.737 -1.5021 -1.7860  1.9306
19269TIP3    H279299   6.844   3.813  10.836  1.4065  0.1216 -1.4019
19270TIP3   OH279300   2.689   2.487   6.189  0.3449  0.9872  0.2559
19270TIP3    H179301   2.736   2.570   6.191  2.4830 -0.0796 -1.2279
19270TIP3    H279302   2.703   2.454   6.100 -0.5225 -0.9059  0.7659
19271TIP3   OH279303   5.864   5.808  13.169 -0.2662  0.0845  0.4121
19271TIP3    H179304   5.779   5.846  13.189  1.1228  3.2127  0.9157
19271TIP3    H279305   5.856   5.778  13.078 -1.4222  1.8668 -0.1183
19272TIP3   OH279306   6.294   5.750   2.537 -0.0472  0.0410 -0.1978
19272TIP3    H179307   6.225   5.686   2.553 -0.0026 -0.7502 -2.6783
19272TIP3    H279308   6.293   5.807   2.614 -3.7876  0.3828 -0.3253
19273TIP3   OH279309   3.274   5.034  12.387 -0.4825 -0.2549 -0.4006
19273TIP3    H179310   3.330   5.112  12.388  2.4061 -2.1161 -1.7157
19273TIP3    H279311   3.318   4.972  12.446 -1.4934 -1.6061 -1.0022
19274TIP3   OH279312   0.171   3.380   4.783  0.0313 -0.0726 -0.4172
19274TIP3    H179313   0.167   3.455   4.843 -2.0495  0.5534 -1.2403
19274TIP3    H279314   0.204   3.416   4.701  0.5071 -0.4079 -0.3792
19275TIP3   OH279315   2.964   6.809  16.147  0.4931  0.3850  0.5782
19275TIP3    H179316   2.948   6.855  16.229  1.7601 -0.8778  1.5814
19275TIP3    H279317   2.900   6.738  16.146  0.1927  0.6553  0.2508
19276TIP3   OH279318   2.195   0.522  14.313  0.1036 -0.4611 -0.2081
19276TIP3    H179319   2.186   0.548  14.222  0.0816 -1.4087 -0.4810
19276TIP3    H279320   2.240   0.438  14.311  2.1073  0.5125  0.7656
19277TIP3   OH279321   2.777   0.386  11.167 -0.3430 -0.5501 -0.8523
19277TIP3    H179322   2.857   0.396  11.115  0.1285  0.9261  0.0960
19277TIP3    H279323   2.737   0.473  11.165 -2.6226 -1.5314 -2.3242
19278TIP3   OH279324   4.160   4.055  14.700  0.5730 -0.1696 -0.3671
19278TIP3    H179325   4.224   3.984  14.709  1.0180  0.0179 -1.7756
19278TIP3    H279326   4.191   4.123  14.761  1.2511 -0.4159 -0.4327
19279TIP3   OH279327   0.112   6.805   2.747 -0.3892 -0.4136  0.1196
19279TIP3    H179328   0.090   6.797   2.654 -2.3435 -1.8585  0.6342
19279TIP3    H279329   0.078   6.891   2.772 -0.8671 -0.4819 -0.2702
19280TIP3   OH279330   1.135   1.481  14.531  0.1294 -0.8142  0.1433
19280TIP3    H179331   1.126   1.500  14.438  0.0822  2.0505  0.6519
19280TIP3    H279332   1.203   1.414  14.535  0.3797 -0.7440 -1.9279
19281TIP3   OH279333   3.409   5.699  13.389  0.2991  0.9985 -0.1376
19281TIP3    H179334   3.382   5.630  13.328  0.7703 -0.0576  0.8163
19281TIP3    H279335   3.503   5.686  13.400  0.5191  2.2395 -0.4730
19282TIP3   OH279336   6.662   3.995   0.797 -0.3291 -0.3286  0.3320
19282TIP3    H179337   6.567   4.006   0.804 -0.3538 -1.3962  2.6883
19282TIP3    H279338   6.698   4.078   0.827 -0.5263 -0.1065 -0.0497
19283TIP3   OH279339   6.228   3.213  15.335 -0.0298  0.4600 -0.2087
19283TIP3    H179340   6.200   3.167  15.256 -1.7231  0.7259  0.1986
19283TIP3    H279341   6.193   3.302  15.324  0.6456  0.8021  0.3562
19284TIP3   OH279342   4.766   6.522  15.249  0.1719  0.2603 -0.3108
19284TIP3    H179343   4.777   6.511  15.155  1.2666  0.5285 -0.2221
19284TIP3    H279344   4.844   6.569  15.278 -0.4517  0.7684  0.6314
19285TIP3   OH279345   6.795   5.096  16.255 -0.1702  0.5099 -0.2407
19285TIP3    H179346   6.774   5.002  16.258 -0.2626  0.4752 -1.5565
19285TIP3    H279347   6.710   5.139  16.249 -0.1095  0.6608 -0.0122
19286TIP3   OH279348   0.114   6.724   4.417 -0.2046 -0.2466 -0.1279
19286TIP3    H179349   0.031   6.693   4.380  0.1532 -0.6604 -0.6102
19286TIP3    H279350   0.171   6.736   4.341  0.4397 -0.7840  0.2523
19287TIP3   OH279351   3.975   5.511   0.253  0.2056 -0.4838  0.1834
19287TIP3    H179352   3.921   5.432   0.258 -2.7608  1.3335 -0.5787
19287TIP3    H279353   3.972   5.537   0.160  0.0411  1.2005  0.6228
19288TIP3   OH279354   4.212   0.887  16.567 -0.7515 -0.1614  0.4206
19288TIP3    H179355   4.241   0.949  16.500 -2.1902 -0.0108 -0.0819
19288TIP3    H279356   4.242   0.927  16.650 -0.4364  0.4922  0.0029
19289TIP3   OH279357   2.626   6.018   3.698  0.3073  0.8967 -0.1674
19289TIP3    H179358   2.597   6.052   3.783  1.9116  0.6877  0.5112
19289TIP3    H279359   2.580   6.071   3.634 -1.2763  0.7748  0.8187
19290TIP3   OH279360   0.849   5.187   3.712 -0.1104 -0.0153  0.0884
19290TIP3    H179361   0.846   5.100   3.752  1.1891 -0.4884 -0.7623
19290TIP3    H279362   0.941   5.213   3.718 -0.4779  1.3091  0.3204
19291TIP3   OH279363   6.526   3.562  11.966  0.0698  0.0875 -0.7026
19291TIP3    H179364   6.449   3.514  11.995 -0.1163  0.4738 -0.5529
19291TIP3    H279365   6.516   3.568  11.870 -1.3695  2.2624 -0.5013
19292TIP3   OH279366   6.110   2.499   5.925 -0.3031  0.3800  0.1583
19292TIP3    H179367   6.156   2.487   6.008  0.5883  0.6117 -0.2979
19292TIP3    H279368   6.125   2.417   5.878  0.3989  0.7982 -0.3544
19293TIP3   OH279369   0.729   6.099  16.621  0.1584  0.0841  0.2318
19293TIP3    H179370   0.679   6.119  16.542  0.6365  1.2160  0.1929
19293TIP3    H279371   0.726   6.003  16.628  0.5129 -0.0924 -1.4415
19294TIP3   OH279372   6.357   5.031  15.748  0.2205 -0.0963 -0.2838
19294TIP3    H179373   6.432   5.088  15.762  1.7027 -1.6767 -1.4914
19294TIP3    H279374   6.322   5.057  15.663  0.0007 -0.0395 -0.1788
19295TIP3   OH279375   1.665   6.496   3.574 -0.6030  0.1656  0.7938
19295TIP3    H179376   1.728   6.439   3.530 -0.5214 -1.3249  2.7042
19295TIP3    H279377   1.579   6.463   3.546 -0.5501 -0.6461  1.5472
19296TIP3   OH279378   2.862   5.765   1.510 -0.1658  0.0513  0.1391
19296TIP3    H179379   2.941   5.807   1.544  1.8867 -2.3660 -1.2678
19296TIP3    H279380   2.889   5.675   1.490 -3.4184 -1.0284 -0.0467
19297TIP3   OH279381   3.238   4.044   1.131  0.3366  0.2120  0.6480
19297TIP3    H179382   3.263   3.984   1.201 -3.6963 -2.6841 -0.0757
19297TIP3    H279383   3.158   4.085   1.162  0.4296  1.6372 -0.8530
19298TIP3   OH279384   4.403   4.266   1.456 -0.9209 -0.3175  0.0565
19298TIP3    H179385   4.308   4.264   1.463 -0.8913  1.7063  2.3047
19298TIP3    H279386   4.421   4.332   1.389 -1.0607 -1.3537 -1.0345
19299TIP3   OH279387   3.386   0.428  13.134 -0.2679 -0.8897  0.9618
19299TIP3    H179388   3.447   0.372  13.180 -0.0972  0.4229  2.4014
19299TIP3    H279389   3.336   0.369  13.078  1.1453 -2.1983  1.0520
19300TIP3   OH279390   4.475   0.094   1.652 -0.0619  0.5338  0.4946
19300TIP3    H179391   4.517   0.099   1.566  0.7105  0.2177  0.8507
19300TIP3    H279392   4.386   0.125   1.636  0.6563  2.4534 -0.0104
19301TIP3   OH279393   0.390   5.716  16.421 -0.2427 -0.4195 -0.8316
19301TIP3    H179394   0.441   5.719  16.341  1.1466 -1.1869 -0.0172
19301TIP3    H279395   0.335   5.638  16.413  1.2905 -1.6256 -0.2902
19302TIP3   OH279396   3.847   2.941   5.012  0.1147  0.5407  0.2054
19302TIP3    H179397   3.754   2.954   4.991  0.3660  1.6007 -0.3338
19302TIP3    H279398   3.892   2.948   4.928  0.5383 -1.8106  0.1930
19303TIP3   OH279399   0.654   0.544  16.277  0.0062 -0.2303 -0.4453
19303TIP3    H179400   0.740   0.580  16.256 -0.1280 -0.0178 -0.6344
19303TIP3    H279401   0.603   0.553  16.196 -0.0564 -0.7749 -0.4754
19304TIP3   OH279402   1.356   0.166  11.995 -0.0830 -0.7419 -0.6504
19304TIP3    H179403   1.325   0.190  12.083 -2.2969 -1.3117 -1.2023
19304TIP3    H279404   1.409   0.088  12.009  2.0638  0.8200  0.4639
19305TIP3   OH279405   4.909   0.515   4.574 -0.0649 -0.1618  0.4800
19305TIP3    H179406   4.977   0.529   4.508 -0.9837  0.4657 -0.3580
19305TIP3    H279407   4.827   0.533   4.528 -0.8353 -1.2814  1.3667
19306TIP3   OH279408   4.933   4.656  16.156 -0.1501 -0.3345 -0.4483
19306TIP3    H179409   4.962   4.673  16.066 -0.1783  0.3060 -0.3425
19306TIP3    H279410   4.903   4.566  16.155  1.0726 -0.7530 -0.7646
19307TIP3   OH279411   2.362   2.485  10.383  0.6729 -0.1545  0.0566
19307TIP3    H179412   2.344   2.578  10.377 -0.7448 -0.3433  1.0221
19307TIP3    H279413   2.305   2.444  10.318  3.4876 -0.2025 -2.6671
19308TIP3   OH279414   0.330   5.754  16.682 -0.0920  0.1029 -0.1288
19308TIP3    H179415   0.349   5.740  16.590  0.8304 -0.3519  0.1160
19308TIP3    H279416   0.290   5.841  16.686  1.9419  1.1255 -0.7096
19309TIP3   OH279417   3.792   2.344  12.815 -0.2058  0.0624  0.0490
19309TIP3    H179418   3.867   2.388  12.775  1.1636 -1.5750  0.6941
19309TIP3    H279419   3.717   2.376  12.766  0.8450  2.0410 -0.3906
19310TIP3   OH279420   4.190   1.492   2.791 -0.3218  0.1415 -0.1331
19310TIP3    H179421   4.269   1.543   2.807  0.1232 -0.4784 -0.2931
19310TIP3    H279422   4.222   1.403   2.776 -0.8959  0.1974 -1.8994
19311TIP3   OH279423   1.020   1.786   4.457 -0.7416  0.0888 -0.5002
19311TIP3    H179424   1.103   1.800   4.412 -1.0040 -0.2889 -1.1088
19311TIP3    H279425   1.024   1.845   4.532  1.3396 -2.0569  1.2299
19312TIP3   OH279426   5.415   0.108   1.452  0.1690 -1.0963  0.2705
19312TIP3    H179427   5.411   0.021   1.411 -0.1066 -1.0945  0.2904
19312TIP3    H279428   5.451   0.165   1.384  0.2417 -1.2027  0.2188
19313TIP3   OH279429   4.921   3.527   3.079 -0.0917 -0.1549 -0.3548
19313TIP3    H179430   4.898   3.533   3.172 -0.5476 -2.4698 -0.2568
19313TIP3    H279431   4.963   3.441   3.070  1.9727  0.9183 -1.9183
19314TIP3   OH279432   3.895   4.921  11.443 -0.1863 -0.4089 -0.3035
19314TIP3    H179433   3.864   5.011  11.459 -1.8422 -0.7760 -1.1752
19314TIP3    H279434   3.958   4.930  11.372 -0.2391  0.0767 -0.2984
19315TIP3   OH279435   1.277   3.228   0.012  0.6424 -0.6763 -0.4917
19315TIP3    H179436   1.344   3.296   0.008  2.1961 -2.0875  0.3376
19315TIP3    H279437   1.230   3.235  -0.071  0.9758  1.1540 -0.5651
19316TIP3   OH279438   1.723   5.553  13.378 -0.4715 -0.0423 -0.7148
19316TIP3    H179439   1.705   5.619  13.445 -1.6863 -0.7802 -0.2778
19316TIP3    H279440   1.640   5.504  13.369  0.8551 -2.6936  0.3128
19317TIP3   OH279441   6.248   0.009   2.184 -1.3286 -0.2072 -0.1093
19317TIP3    H179442   6.282   0.009   2.274 -3.0581 -1.1438  0.5892
19317TIP3    H279443   6.326   0.012   2.129 -0.2335  0.4579  1.4200
19318TIP3   OH279444   0.041   3.814  14.051 -0.0474 -0.7356 -0.5244
19318TIP3    H179445  -0.041   3.768  14.030 -2.1491  1.4901  1.9591
19318TIP3    H279446   0.042   3.817  14.147  1.4761  1.7813 -0.5398
19319TIP3   OH279447   5.737   0.012  16.299  0.2309 -0.3532  0.2101
19319TIP3    H179448   5.656  -0.010  16.252 -0.5119  1.5849  0.4907
19319TIP3    H279449   5.734  -0.042  16.378 -1.0470  0.0174  0.4412
19320TIP3   OH279450   4.499   3.747  11.567  0.2303 -0.2798 -0.5562
19320TIP3    H179451   4.494   3.660  11.528 -2.1755 -0.3839 -0.1802
19320TIP3    H279452   4.558   3.796  11.510 -1.1561 -1.1413 -2.8428
19321TIP3   OH279453   2.185   1.726  10.784 -0.1253 -0.4852 -0.0655
19321TIP3    H179454   2.143   1.655  10.735  0.8791 -0.9634 -0.2463
19321TIP3    H279455   2.161   1.806  10.736 -1.6008 -0.6312  0.3688
19322TIP3   OH279456   5.654   1.586   3.968  0.2597 -0.0255  0.2695
19322TIP3    H179457   5.566   1.558   3.943 -0.0791  1.2652 -0.0323
19322TIP3    H279458   5.711   1.546   3.901  0.1841 -2.4709  1.5400
19323TIP3   OH279459   5.840   6.284  12.363  0.3768  0.5133 -0.3274
19323TIP3    H179460   5.789   6.362  12.338 -0.3456 -0.0443 -0.6109
19323TIP3    H279461   5.845   6.232  12.283 -0.2544 -0.3469  0.1796
19324TIP3   OH279462   6.690   4.078  10.543 -0.4213 -0.2705 -0.1470
19324TIP3    H179463   6.629   4.126  10.599  0.9836  0.9049  0.4340
19324TIP3    H279464   6.682   4.121  10.457 -0.2119  0.0580 -0.0021
19325TIP3   OH279465   5.861   5.991  10.076 -0.1960  0.1803 -0.0217
19325TIP3    H179466   5.779   5.944  10.062  0.3614 -0.3321 -1.7719
19325TIP3    H279467   5.861   6.011  10.170 -1.2039 -1.9391  0.4987
19326TIP3   OH279468   3.782   1.836  14.960  0.2124  0.1569  0.4295
19326TIP3    H179469   3.707   1.894  14.947 -1.4549 -2.0079 -0.2759
19326TIP3    H279470   3.854   1.894  14.984 -1.9327  2.2804  2.2570
19327TIP3   OH279471   2.550   0.711  14.548 -0.3252  0.3855  0.6040
19327TIP3    H179472   2.530   0.804  14.550  1.2301  0.7832 -0.5613
19327TIP3    H279473   2.547   0.686  14.456  1.2957 -0.1988  0.6594
19328TIP3   OH279474   3.092   2.736  13.394 -0.0390  0.1807 -0.2308
19328TIP3    H179475   3.177   2.780  13.389 -0.9170  1.9389 -0.6346
19328TIP3    H279476   3.112   2.649  13.430  1.9603  0.3898 -0.7073
19329TIP3   OH279477   6.654   0.848  13.956 -0.5681 -0.1075  0.0064
19329TIP3    H179478   6.612   0.914  13.900 -3.1619 -2.7875 -1.5103
19329TIP3    H279479   6.604   0.851  14.038  0.4403  0.9149  0.6057
19330TIP3   OH279480   5.400   4.514  15.021  0.3682 -0.1973  0.2692
19330TIP3    H179481   5.469   4.453  15.046  0.4677 -0.5438 -0.8130
19330TIP3    H279482   5.434   4.558  14.943 -0.5526 -0.2412 -0.1667
19331TIP3   OH279483   2.786   0.997  11.041 -0.3661 -0.3149  0.8128
19331TIP3    H179484   2.844   0.924  11.017 -0.0589 -0.7049  2.5670
19331TIP3    H279485   2.835   1.076  11.017  0.4235 -0.6675  1.2130
19332TIP3   OH279486   0.865   6.210  17.017  0.7016  0.2375 -0.7413
19332TIP3    H179487   0.787   6.263  17.030  0.9043  0.0183  1.9727
19332TIP3    H279488   0.937   6.274  17.011  0.6923  0.3682  0.3355
19333TIP3   OH279489   0.092   5.768   1.589 -0.0338 -0.7206 -0.1887
19333TIP3    H179490   0.175   5.765   1.638 -0.4642  0.2441  0.6546
19333TIP3    H279491   0.056   5.680   1.598  0.0109 -0.6357  1.0677
19334TIP3   OH279492   4.659   3.442   0.748  0.0327  0.2904  0.7031
19334TIP3    H179493   4.603   3.439   0.825 -0.0822 -0.3625  0.6032
19334TIP3    H279494   4.600   3.431   0.674  0.4399 -2.6099  0.6809
19335TIP3   OH279495   0.579   6.102  11.681  0.0314 -0.1500  0.0140
19335TIP3    H179496   0.493   6.097  11.641  0.6846 -0.4503 -1.3951
19335TIP3    H279497   0.636   6.139  11.613  0.6576  1.8282  1.5091
19336TIP3   OH279498   3.736   3.071  16.686 -0.0154 -0.5242 -0.2919
19336TIP3    H179499   3.647   3.108  16.686  0.5194  0.8739 -1.5840
19336TIP3    H279500   3.759   3.065  16.593  0.9540 -1.6524 -0.0089
19337TIP3   OH279501   6.205   6.510  16.373  0.7830 -0.1952  0.5034
19337TIP3    H179502   6.137   6.472  16.318 -0.0157  3.0474 -0.9867
19337TIP3    H279503   6.280   6.519  16.314  2.1664 -2.4172  1.7607
19338TIP3   OH279504   2.391   2.625   5.809 -0.2732  0.0320 -0.2703
19338TIP3    H179505   2.349   2.708   5.785 -2.7582 -0.5254  1.7220
19338TIP3    H279506   2.432   2.594   5.728 -1.1187  2.1439 -1.5788
19339TIP3   OH279507   0.505   0.075   0.990  0.3298  0.1307  0.3046
19339TIP3    H179508   0.570   0.143   1.004  0.9426 -0.6550  1.5461
19339TIP3    H279509   0.472   0.056   1.078  1.3724 -2.2921  0.2662
19340TIP3   OH279510   5.487   5.116  11.909  0.2919  0.5625  0.2652
19340TIP3    H179511   5.438   5.098  11.989 -1.1325  0.3535 -0.6153
19340TIP3    H279512   5.534   5.035  11.891 -0.4721  0.1361  0.1584
19341TIP3   OH279513   1.290   1.552  13.791  0.0813 -0.1267  0.1406
19341TIP3    H179514   1.253   1.493  13.726 -0.0331 -3.8794  3.2367
19341TIP3    H279515   1.363   1.595  13.746 -0.8205 -1.4121 -2.7803
19342TIP3   OH279516   4.506   0.313   2.772  0.7599  0.3662  0.0236
19342TIP3    H179517   4.537   0.395   2.810 -1.2287  0.6942  1.0909
19342TIP3    H279518   4.521   0.323   2.678  1.7873  1.3776  0.2698
19343TIP3   OH279519   0.241   1.814  14.422 -0.1029  0.0594  0.0590
19343TIP3    H179520   0.172   1.843  14.363 -1.1596  1.2882  1.7935
19343TIP3    H279521   0.205   1.737  14.465  1.1880 -1.6514 -1.7682
19344TIP3   OH279522   2.377   2.045  12.181  0.5859  0.2054  0.0432
19344TIP3    H179523   2.407   1.960  12.215  1.7107 -0.3385 -2.1126
19344TIP3    H279524   2.423   2.110  12.235  1.5806 -0.6069  0.2063
19345TIP3   OH279525   1.728   6.657   1.787 -0.3146  0.0963 -0.2724
19345TIP3    H179526   1.694   6.622   1.869  1.1916  0.3508  0.4869
19345TIP3    H279527   1.675   6.736   1.772 -1.8677 -0.9603 -0.5700
19346TIP3   OH279528   6.527   5.522   3.256  0.2028 -0.2052 -0.0365
19346TIP3    H179529   6.525   5.508   3.351 -1.0092  1.8784  0.3056
19346TIP3    H279530   6.620   5.533   3.236  0.5433 -1.4140  0.7605
19347TIP3   OH279531   2.869   0.722  12.060 -0.2393  0.1145 -0.1705
19347TIP3    H179532   2.836   0.685  11.978 -1.4501  2.3515 -0.7930
19347TIP3    H279533   2.958   0.688  12.068  0.4468  0.8742 -3.1783
19348TIP3   OH279534   5.885   0.185  16.134  0.1096  0.0494  0.4326
19348TIP3    H179535   5.954   0.124  16.107  1.2717  0.1533  2.9295
19348TIP3    H279536   5.830   0.134  16.194 -1.4355  0.2759 -0.7388
19349TIP3   OH279537   3.902   6.095  16.769 -0.1725 -0.7565 -0.0692
19349TIP3    H179538   3.849   6.162  16.811 -0.2565  0.2771 -1.7507
19349TIP3    H279539   3.974   6.142  16.727 -1.0593 -1.4497 -2.5829
19350TIP3   OH279540   2.061   3.947  16.870  0.2641  0.1618 -0.3791
19350TIP3    H179541   2.103   4.021  16.913 -0.0070 -0.1241  0.4081
19350TIP3    H279542   2.132   3.899  16.828  0.5392  0.4372 -0.2262
19351TIP3   OH279543   6.224   0.896  16.373  0.1804  0.2797 -0.4539
19351TIP3    H179544   6.235   0.969  16.433 -1.1813  0.1394  0.0107
19351TIP3    H279545   6.194   0.936  16.292  1.4616  0.4137 -0.8824
19352TIP3   OH279546   0.098   4.300   5.564 -0.3761  0.3784 -0.2229
19352TIP3    H179547   0.090   4.284   5.658 -1.3699  0.6268 -0.2500
19352TIP3    H279548   0.036   4.238   5.524  2.7411 -2.5033 -1.0252
19353TIP3   OH279549   1.399   5.083  14.384  0.0353  0.0650 -0.5578
19353TIP3    H179550   1.353   5.034  14.316 -1.4013  0.4162  0.1085
19353TIP3    H279551   1.369   5.173  14.373  1.8330  0.6425 -1.0998
19354TIP3   OH279552   5.231   6.418  11.311  0.4735 -0.1864  0.3733
19354TIP3    H179553   5.166   6.427  11.241 -1.0950  1.1014  1.9072
19354TIP3    H279554   5.265   6.329  11.300 -1.2707 -0.7783 -0.7551
19355TIP3   OH279555   4.211   5.508   0.018 -0.0568 -0.5493  0.2056
19355TIP3    H179556   4.206   5.509  -0.078  2.1802  0.4408  0.0384
19355TIP3    H279557   4.176   5.592   0.045  0.7051 -0.1897  0.1176
19356TIP3   OH279558   5.653   3.682  14.437 -0.1941  0.6304  0.7605
19356TIP3    H179559   5.710   3.757  14.456  0.8951 -0.0247  0.1595
19356TIP3    H279560   5.694   3.608  14.481 -1.4286  0.4121  1.6108
19357TIP3   OH279561   4.258   0.422   5.665 -0.0127  0.3723 -0.4502
19357TIP3    H179562   4.237   0.331   5.645 -1.2805  0.6797 -0.6484
19357TIP3    H279563   4.271   0.463   5.579  0.0432  0.4834 -0.3884
19358TIP3   OH279564   3.002   0.647   1.152  0.0307 -0.1798 -0.6923
19358TIP3    H179565   3.078   0.632   1.207 -1.3194  3.7373  2.8243
19358TIP3    H279566   3.029   0.717   1.092 -0.1864 -0.2850 -0.9146
19359TIP3   OH279567   4.313   1.186  13.385  0.1324 -0.0303 -0.4053
19359TIP3    H179568   4.334   1.238  13.307 -0.1400 -1.8297 -1.7307
19359TIP3    H279569   4.218   1.196  13.394  0.2777  0.9168  0.2875
19360TIP3   OH279570   1.160   5.333  16.389  0.5901 -0.1411  0.2658
19360TIP3    H179571   1.208   5.290  16.318  2.4005  0.0425  1.3199
19360TIP3    H279572   1.074   5.353  16.351  1.3009 -0.5527 -1.6850
19361TIP3   OH279573   1.768   1.599   2.518  0.0231 -0.0553  0.2834
19361TIP3    H179574   1.831   1.648   2.571 -0.6562  0.8604  0.2583
19361TIP3    H279575   1.744   1.659   2.447 -0.0050 -0.8235 -0.3813
19362TIP3   OH279576   1.680   3.799  10.722 -0.5817 -0.4611 -0.2439
19362TIP3    H179577   1.755   3.825  10.668 -0.3925  0.0669  0.2622
19362TIP3    H279578   1.666   3.873  10.781 -2.4952  0.1533 -1.3609
19363TIP3   OH279579   1.631   4.451  12.573 -0.1359 -0.3864  0.0314
19363TIP3    H179580   1.659   4.493  12.654 -0.1702 -3.1548  1.5912
19363TIP3    H279581   1.695   4.382  12.558 -0.3474 -0.1965 -2.1304
19364TIP3   OH279582   3.323   0.524   2.183  0.5843 -0.1104 -0.3471
19364TIP3    H179583   3.387   0.586   2.149  1.3079 -0.0431  1.0650
19364TIP3    H279584   3.324   0.538   2.277 -0.6518 -0.9442 -0.1889
19365TIP3   OH279585   4.268   6.512   2.064  0.1455  0.6515 -0.4072
19365TIP3    H179586   4.326   6.493   1.989 -0.3134  1.0887 -0.8830
19365TIP3    H279587   4.251   6.426   2.103  0.4320  0.4222 -0.7769
19366TIP3   OH279588   3.823   4.737  14.174 -0.1385  0.7913 -0.6947
19366TIP3    H179589   3.796   4.784  14.096 -1.5999  2.7139  0.8641
19366TIP3    H279590   3.838   4.805  14.240  0.6537 -0.7623  0.8345
19367TIP3   OH279591   1.095   1.069   3.962  0.2914  0.4246  0.1193
19367TIP3    H179592   1.163   1.132   3.985  1.0293 -1.0933  2.4868
19367TIP3    H279593   1.143   0.987   3.948 -0.8754 -0.2077 -0.2913
19368TIP3   OH279594   5.054   5.075  12.121 -0.3115 -0.4662  0.1449
19368TIP3    H179595   5.050   4.979  12.121 -1.3681 -0.4345  0.0286
19368TIP3    H279596   4.967   5.103  12.093 -0.2039  0.5359  0.7381
19369TIP3   OH279597   0.257   3.604   1.237  0.1164  0.0475 -0.3744
19369TIP3    H179598   0.227   3.538   1.175 -0.1757  0.6272 -0.8594
19369TIP3    H279599   0.189   3.607   1.305 -1.1410  1.5786 -1.6277
19370TIP3   OH279600   4.669   3.163   1.645  0.0431 -0.9777 -0.6248
19370TIP3    H179601   4.661   3.224   1.718  1.1114  1.7176 -2.6176
19370TIP3    H279602   4.579   3.142   1.621 -0.3566 -0.0186 -0.0141
19371TIP3   OH279603   0.812   1.905   1.847 -0.4702 -0.9546 -0.0782
19371TIP3    H179604   0.822   1.868   1.759 -0.6000 -0.1481 -0.4360
19371TIP3    H279605   0.872   1.979   1.849  2.2748 -3.0158  1.7356
19372TIP3   OH279606   2.893   4.697  12.786 -0.4884 -0.1023  0.1028
19372TIP3    H179607   2.904   4.704  12.691 -2.1996  1.3717 -0.0480
19372TIP3    H279608   2.923   4.608  12.807  3.0860  0.5769 -1.2686
19373TIP3   OH279609   3.012   4.700   2.669 -0.4591 -0.2778 -0.2859
19373TIP3    H179610   3.049   4.651   2.743  0.2294  1.6530  0.7198
19373TIP3    H279611   2.919   4.676   2.669 -0.2430 -1.1951  0.4750
19374TIP3   OH279612   5.359   4.932   1.502 -0.3935  0.1531 -0.2151
19374TIP3    H179613   5.419   5.001   1.472  0.1609 -0.7592 -1.3032
19374TIP3    H279614   5.292   4.978   1.553 -1.8453  1.9951 -3.4721
19375TIP3   OH279615   3.232   2.801   1.836  0.0190  0.5371  0.1341
19375TIP3    H179616   3.307   2.782   1.891  0.4831  0.2965 -0.5661
19375TIP3    H279617   3.252   2.759   1.752 -1.7702 -1.2377  0.5183
19376TIP3   OH279618   6.159   4.512   5.521 -0.3514 -0.1576 -0.0630
19376TIP3    H179619   6.076   4.557   5.534 -0.4060 -0.3165  0.1566
19376TIP3    H279620   6.192   4.498   5.610 -0.5550 -0.9517 -0.1090
19377TIP3   OH279621   0.020   1.784   2.286 -0.1887  0.4352  0.0708
19377TIP3    H179622  -0.023   1.841   2.350 -1.2400 -0.8555  0.5700
19377TIP3    H279623  -0.032   1.704   2.287 -0.5199  0.5012 -2.7152
19378TIP3   OH279624   0.876   6.605  12.187  0.0128 -0.1522 -0.6920
19378TIP3    H179625   0.826   6.573  12.112 -0.8127 -1.4673  0.3778
19378TIP3    H279626   0.829   6.572  12.264  1.8445 -0.4124  0.3866
19379TIP3   OH279627   6.536   2.969  16.391  0.4611 -0.4187 -0.9475
19379TIP3    H179628   6.621   2.974  16.349  1.1705  0.2561  0.5005
19379TIP3    H279629   6.548   2.910  16.465 -0.4564 -0.7181 -1.0242
19380TIP3   OH279630   1.161   6.525   5.997 -0.1890 -0.5779  0.7816
19380TIP3    H179631   1.199   6.597   6.047 -1.1727  0.1050  0.5688
19380TIP3    H279632   1.070   6.552   5.981 -0.3615 -1.5353  0.0649
19381TIP3   OH279633   3.786   1.479  14.248 -0.1737 -0.1033 -0.3948
19381TIP3    H179634   3.861   1.514  14.297 -0.4784  1.3967 -0.9698
19381TIP3    H279635   3.806   1.386  14.239  1.1874  0.0940  0.2489
19382TIP3   OH279636   3.272   2.049  15.033  0.0552 -0.0788 -0.2162
19382TIP3    H179637   3.206   2.058  15.102 -1.4741 -2.0768 -1.3331
19382TIP3    H279638   3.222   2.043  14.952  1.6458 -0.9196 -1.1930
19383TIP3   OH279639   5.850   2.363   0.523 -0.6073 -0.5222  0.3935
19383TIP3    H179640   5.811   2.423   0.459 -1.2351 -0.8097  0.4981
19383TIP3    H279641   5.791   2.288   0.523  0.4544 -1.3730 -0.1235
19384TIP3   OH279642   4.975   5.179   3.389  0.4532 -0.5052  0.2047
19384TIP3    H179643   4.919   5.248   3.355 -0.7030 -1.6392 -0.2589
19384TIP3    H279644   5.040   5.165   3.320 -0.7173 -1.4612 -0.7334
19385TIP3   OH279645   6.687   4.842  16.264 -0.3884 -0.3778  0.5634
19385TIP3    H179646   6.596   4.861  16.240  0.6096  2.0351 -1.9215
19385TIP3    H279647   6.692   4.747  16.265 -2.7877 -0.5780  0.1724
19386TIP3   OH279648   1.488   2.897  17.062  0.2545  0.4846  0.2227
19386TIP3    H179649   1.432   2.820  17.075 -1.3200  1.5818  0.1388
19386TIP3    H279650   1.463   2.930  16.975  1.2927  0.8006  0.0347
19387TIP3   OH279651   5.890   5.619   3.079 -0.3978 -0.9494  0.0597
19387TIP3    H179652   5.974   5.663   3.091 -0.2606 -0.9677 -0.7471
19387TIP3    H279653   5.883   5.559   3.154 -0.3343  0.0332  0.8708
19388TIP3   OH279654   2.713   6.182   2.496  0.1889 -0.1950 -0.1087
19388TIP3    H179655   2.630   6.179   2.544  0.7095 -0.0462  0.8180
19388TIP3    H279656   2.694   6.237   2.420  0.0638  1.9787  1.3882
19389TIP3   OH279657   6.253   0.486  16.837  0.2041 -0.5985 -0.6910
19389TIP3    H179658   6.342   0.452  16.844  0.9616  0.9638 -2.1751
19389TIP3    H279659   6.206   0.420  16.785  1.1294 -0.3361 -1.8993
19390TIP3   OH279660   5.549   0.677  16.122  0.2671 -0.0461 -0.5953
19390TIP3    H179661   5.578   0.762  16.089 -2.2583  0.3102 -2.1956
19390TIP3    H279662   5.603   0.613  16.076  1.4661  0.6405 -0.1764
19391TIP3   OH279663   6.504   3.972  13.376 -0.8185  0.3079 -0.4296
19391TIP3    H179664   6.467   3.885  13.389  0.1449 -0.2246 -1.1292
19391TIP3    H279665   6.598   3.957  13.367 -0.7100  1.3440 -1.2502
19392TIP3   OH279666   4.039   3.257  12.957 -0.0950  0.0849  0.1900
19392TIP3    H179667   4.103   3.205  12.909 -0.4640  0.0659 -0.2946
19392TIP3    H279668   4.048   3.229  13.048 -0.7517 -1.3468 -0.1497
19393TIP3   OH279669   6.732   6.606  13.467 -0.6090  0.4808 -0.0228
19393TIP3    H179670   6.697   6.638  13.384 -0.1187  0.8752 -0.0812
19393TIP3    H279671   6.808   6.553  13.442  0.1989  1.4880  0.2204
19394TIP3   OH279672   0.171   2.591   3.255  0.3458  0.0606  0.0119
19394TIP3    H179673   0.172   2.558   3.165 -0.1544 -1.7657  0.6261
19394TIP3    H279674   0.100   2.655   3.256 -0.0777 -0.3770 -0.7493
19395TIP3   OH279675   5.383   2.587  16.420  0.2264  0.0218 -0.7557
19395TIP3    H179676   5.389   2.675  16.382  2.2702  0.2588 -0.0090
19395TIP3    H279677   5.470   2.571  16.457 -0.8702 -1.2381  1.4783
19396TIP3   OH279678   0.803   4.671   2.065 -0.0654  0.5545 -0.6782
19396TIP3    H179679   0.745   4.597   2.080 -1.1792  1.4026 -0.6529
19396TIP3    H279680   0.779   4.704   1.978  0.9309  0.4356 -1.0067
19397TIP3   OH279681   0.747   4.653   4.319  0.4557  0.2503 -0.0574
19397TIP3    H179682   0.680   4.714   4.285  1.8337  1.4901 -0.6646
19397TIP3    H279683   0.735   4.656   4.414 -0.8721 -0.1796 -0.1937
19398TIP3   OH279684   3.363   3.619  11.260  0.4751 -0.1976 -0.0857
19398TIP3    H179685   3.458   3.613  11.273  0.7512  2.4547 -0.2459
19398TIP3    H279686   3.352   3.620  11.165  0.2518 -0.6907 -0.0685
19399TIP3   OH279687   3.298   3.899  10.991 -0.2847  0.0679  0.3126
19399TIP3    H179688   3.217   3.948  11.001  0.8409  2.3575 -0.9538
19399TIP3    H279689   3.272   3.807  10.998 -2.9098  0.7297  0.2264
19400TIP3   OH279690   6.609   0.043  14.963 -0.2523 -0.0451  0.1053
19400TIP3    H179691   6.514   0.054  14.964 -0.1574  0.9043  0.6919
19400TIP3    H279692   6.626  -0.026  15.028 -0.5540 -0.3849 -0.1729
19401TIP3   OH279693   2.999   6.368   1.707  1.0205  0.0968 -0.3504
19401TIP3    H179694   2.920   6.413   1.677  0.4412  0.8447  2.0745
19401TIP3    H279695   3.069   6.404   1.653  0.0857  1.4601 -0.7157
19402TIP3   OH279696   4.964   5.872   2.508  0.4506 -0.7626 -0.0749
19402TIP3    H179697   5.034   5.891   2.570 -0.5710 -1.2951  1.2890
19402TIP3    H279698   4.888   5.853   2.563 -1.5619  2.5065 -1.4393
19403TIP3   OH279699   2.774   1.425   0.789  0.3725 -0.0207 -0.0218
19403TIP3    H179700   2.797   1.476   0.866  0.8360 -1.0009  0.5096
19403TIP3    H279701   2.691   1.462   0.759  0.7004  1.0349  0.3302
19404TIP3   OH279702   5.096   0.071   2.383  0.1627  0.0851  0.0421
19404TIP3    H179703   5.107  -0.009   2.331  0.1722  0.4993 -0.6053
19404TIP3    H279704   5.138   0.051   2.466  2.6099  0.3519 -1.0596
19405TIP3   OH279705   1.755   1.073  15.850 -0.0888 -0.3548 -0.1055
19405TIP3    H179706   1.688   1.139  15.866 -0.4564 -0.4997 -0.9815
19405TIP3    H279707   1.834   1.124  15.833 -0.2379 -0.1557 -0.2086
19406TIP3   OH279708   0.253   0.638   4.507 -0.5770  0.1795  0.0895
19406TIP3    H179709   0.195   0.605   4.575 -0.8485  0.6025  0.0699
19406TIP3    H279710   0.326   0.677   4.554  1.1199 -2.7993  0.0896
19407TIP3   OH279711   5.653   0.200   6.154 -0.8998 -0.3323 -0.0958
19407TIP3    H179712   5.722   0.136   6.137  0.0474  0.4539  0.5948
19407TIP3    H279713   5.629   0.185   6.246 -1.9124 -0.8313 -0.4358
19408TIP3   OH279714   1.806   4.966  16.180 -0.2214  0.6967  0.2977
19408TIP3    H179715   1.714   4.972  16.204 -0.4415  0.2324 -0.4263
19408TIP3    H279716   1.852   4.953  16.263 -1.0022 -1.2309  0.4658
19409TIP3   OH279717   5.472   4.891  14.275 -0.2925  1.1414  0.1342
19409TIP3    H179718   5.417   4.911  14.199  0.4646 -0.4943 -0.8887
19409TIP3    H279719   5.542   4.956  14.272  0.5972  0.1672 -1.5096
19410TIP3   OH279720   6.785   5.689   5.062 -0.1180  0.1264 -0.1315
19410TIP3    H179721   6.805   5.664   5.152 -0.1737 -1.8630 -0.6244
19410TIP3    H279722   6.860   5.657   5.011 -1.0152 -0.6022 -1.0321
19411TIP3   OH279723   3.231   6.819   0.477 -0.0915  0.7988 -0.1995
19411TIP3    H179724   3.271   6.897   0.439  0.2372  0.4164 -0.6495
19411TIP3    H279725   3.301   6.778   0.527 -0.5144  1.2843  0.8171
19412TIP3   OH279726   3.218   1.210   2.641 -0.2497  0.1273 -0.0308
19412TIP3    H179727   3.127   1.186   2.656 -0.8975  2.4402  0.1332
19412TIP3    H279728   3.267   1.164   2.709 -1.2230 -1.3794 -0.2972
19413TIP3   OH279729   3.202   5.437  15.274  0.4212 -0.6264 -0.4744
19413TIP3    H179730   3.269   5.458  15.339 -0.8241  0.0306  0.6325
19413TIP3    H279731   3.143   5.512  15.276 -0.8168 -1.5740 -0.8220
19414TIP3   OH279732   6.192   4.730   3.702  0.7334 -0.3973  0.1170
19414TIP3    H179733   6.286   4.720   3.715  0.8372 -1.7756 -1.3515
19414TIP3    H279734   6.167   4.656   3.647 -1.1726  0.0868  0.2422
19415TIP3   OH279735   5.927   1.343   6.452  0.3140 -0.0730 -0.1107
19415TIP3    H179736   5.911   1.256   6.487  1.1575 -0.7547 -1.3652
19415TIP3    H279737   5.846   1.391   6.469 -0.6828 -1.5037 -0.6263
19416TIP3   OH279738   2.987   5.771   3.695 -0.4315  0.3861  0.1612
19416TIP3    H179739   2.962   5.858   3.726 -0.4751  1.0508 -1.6521
19416TIP3    H279740   3.079   5.762   3.719 -0.3273  1.0810  0.0309
19417TIP3   OH279741   1.751   0.128   2.003  0.1134  0.5028  0.1432
19417TIP3    H179742   1.814   0.056   2.007 -1.1510 -0.8314 -1.9610
19417TIP3    H279743   1.697   0.109   1.927 -1.0508  3.0982  0.1945
19418TIP3   OH279744   1.902   4.022  14.667 -0.1079  0.6709 -0.3842
19418TIP3    H179745   1.860   3.998  14.750 -2.3072 -0.6879 -1.7621
19418TIP3    H279746   1.959   4.096  14.689  1.5462 -1.3309  2.8254
19419TIP3   OH279747   3.973   6.399   3.191 -0.3518 -0.8388 -0.5423
19419TIP3    H179748   3.967   6.489   3.159 -1.3400 -0.8066 -0.2857
19419TIP3    H279749   3.940   6.345   3.119  0.2034 -1.0006 -0.6810
19420TIP3   OH279750   5.320   2.130  12.605  0.1605  0.1380 -0.0041
19420TIP3    H179751   5.350   2.060  12.663 -2.1374 -1.0566 -0.1248
19420TIP3    H279752   5.398   2.157  12.557  1.5245 -0.8838  1.5351
19421TIP3   OH279753   4.133   5.964   1.724  0.4373 -0.2821  0.1134
19421TIP3    H179754   4.119   5.930   1.813 -0.0342  0.7005  0.4339
19421TIP3    H279755   4.217   6.010   1.730 -0.2531  0.9886  0.4524
19422TIP3   OH279756   3.426   3.996  16.641 -0.2188 -0.3205 -0.2054
19422TIP3    H179757   3.508   3.999  16.591  0.3475 -2.8620  0.4361
19422TIP3    H279758   3.451   4.027  16.728  0.4896 -2.4691  0.4159
19423TIP3   OH279759   6.345   4.124  14.009 -0.0493 -0.5205 -0.0132
19423TIP3    H179760   6.398   4.049  14.037  2.2647  1.0109  0.0043
19423TIP3    H279761   6.271   4.126  14.069  0.5404 -2.0096  0.8062
19424TIP3   OH279762   6.276   4.109  14.438 -0.4754 -0.3930 -0.3255
19424TIP3    H179763   6.256   4.176  14.373  0.3433 -0.4700 -0.6721
19424TIP3    H279764   6.371   4.114  14.449 -0.6369 -0.1653  1.1071
19425TIP3   OH279765   4.204   1.983   5.715 -0.4344 -0.1507 -0.0943
19425TIP3    H179766   4.115   2.014   5.701  0.0052  0.8635 -0.8034
19425TIP3    H279767   4.250   2.006   5.635 -0.1271 -3.0550 -0.8300
19426TIP3   OH279768   3.043   0.331   2.672 -0.1400  0.3910  0.7425
19426TIP3    H179769   3.058   0.253   2.618  2.1234  0.5405  1.0443
19426TIP3    H279770   2.984   0.301   2.741 -1.5764 -0.2865 -0.7217
19427TIP3   OH279771   4.125   4.455  11.580 -0.3140 -0.5481 -0.4790
19427TIP3    H179772   4.126   4.457  11.676 -1.4584 -0.2062 -0.4607
19427TIP3    H279773   4.192   4.390  11.557  2.0857  1.4232  0.4380
19428TIP3   OH279774   0.683   0.544  12.504  0.2259 -0.4366 -0.2628
19428TIP3    H179775   0.687   0.448  12.514  1.8464 -0.3664  0.0492
19428TIP3    H279776   0.743   0.563  12.432  1.3373  0.4665  0.8555
19429TIP3   OH279777   4.308   1.434  15.509  0.5001  0.0102  0.7355
19429TIP3    H179778   4.235   1.392  15.553 -0.9326  2.6324  1.0576
19429TIP3    H279779   4.360   1.362  15.474 -1.4850 -1.9826  1.6812
19430TIP3   OH279780   0.435   4.145  10.801  0.0558  0.3885 -0.4421
19430TIP3    H179781   0.434   4.108  10.713 -0.0212  0.3837 -0.4390
19430TIP3    H279782   0.343   4.150  10.827  0.1812 -2.2763  0.7813
19431TIP3   OH279783   5.047   4.824  15.078 -0.0846 -0.1694  0.0192
19431TIP3    H179784   4.980   4.778  15.027 -0.9461  0.5742  0.4391
19431TIP3    H279785   5.075   4.895  15.021 -0.9381  0.5702  0.4949
19432TIP3   OH279786   5.996   4.133  13.589 -0.0648  0.3477  0.2219
19432TIP3    H179787   6.038   4.111  13.507 -0.9609  0.7337 -0.3632
19432TIP3    H279788   6.067   4.140  13.652  0.8981  2.2033 -0.9878
19433TIP3   OH279789   2.599   1.865  14.001 -0.0623  0.6517  0.4636
19433TIP3    H179790   2.640   1.855  13.916 -1.6058 -0.3138 -0.2115
19433TIP3    H279791   2.640   1.797  14.056  0.2951  0.6800  0.2313
19434TIP3   OH279792   0.810   5.605  12.455  0.3895  0.3505  0.3239
19434TIP3    H179793   0.782   5.687  12.412 -0.4099 -0.1454 -0.1324
19434TIP3    H279794   0.795   5.538  12.389  1.8931 -0.0593  0.3880
19435TIP3   OH279795   3.821   5.557  11.471 -0.6308  0.5327  0.2846
19435TIP3    H179796   3.737   5.563  11.426 -0.5896 -3.2656 -0.6601
19435TIP3    H279797   3.802   5.506  11.550  0.4635  1.4033  1.1415
19436TIP3   OH279798   0.164   4.414   3.428 -0.4961  0.0736 -0.2371
19436TIP3    H179799   0.111   4.350   3.474  1.6094 -1.0482  0.7537
19436TIP3    H279800   0.177   4.485   3.492 -0.1163 -0.0479 -0.1772
19437TIP3   OH279801   4.030   1.615   4.659 -0.0832  0.1540 -0.7323
19437TIP3    H179802   3.990   1.676   4.598 -1.6406 -0.5652 -0.4919
19437TIP3    H279803   3.979   1.626   4.740  0.7369 -0.2253 -0.1562
19438TIP3   OH279804   2.311   1.770  11.639  0.5550 -0.5217  0.5675
19438TIP3    H179805   2.359   1.773  11.722  0.4667 -0.5064  0.6186
19438TIP3    H279806   2.261   1.852  11.638 -1.1706 -1.4822  1.5379
19439TIP3   OH279807   5.661   5.960  13.213 -0.7741 -0.5048 -0.3972
19439TIP3    H179808   5.657   6.049  13.178 -0.5354 -0.8163 -1.2357
19439TIP3    H279809   5.671   5.972  13.307 -1.6842  0.3492 -0.3960
19440TIP3   OH279810   0.164   2.891   4.490 -0.1932  0.0057  0.1563
19440TIP3    H179811   0.202   2.866   4.574 -0.5091  2.7549  1.2311
19440TIP3    H279812   0.190   2.821   4.430  2.3724 -0.7066  1.9183
19441TIP3   OH279813   0.112   3.388  14.575 -0.0081  0.0761  0.2632
19441TIP3    H179814   0.092   3.298  14.551 -1.3329 -0.1004  1.8021
19441TIP3    H279815   0.175   3.418  14.509  0.7946 -2.0891 -0.0317
19442TIP3   OH279816   1.792   6.332  12.387 -0.0621 -0.0172  0.2380
19442TIP3    H179817   1.755   6.312  12.301  0.1051 -1.3921  0.4542
19442TIP3    H279818   1.782   6.250  12.437 -0.0591  0.7223  1.4929
19443TIP3   OH279819   4.621   1.956  13.471  0.7075  0.4585  0.1766
19443TIP3    H179820   4.546   2.010  13.446  1.5444  1.0354 -1.2031
19443TIP3    H279821   4.689   2.019  13.494  1.0129 -0.0487  0.6858
19444TIP3   OH279822   5.519   3.320  12.867  0.0286 -0.2797 -0.6908
19444TIP3    H179823   5.454   3.294  12.932  2.4646 -1.6516  1.3612
19444TIP3    H279824   5.532   3.414  12.882  1.2995 -0.7624  1.6411
19445TIP3   OH279825   4.367   2.073  16.409 -0.5217  0.3885 -0.0088
19445TIP3    H179826   4.370   1.989  16.454 -0.6657  0.6030  0.4128
19445TIP3    H279827   4.299   2.123  16.455 -0.8067  0.5464 -0.5890
19446TIP3   OH279828   4.020   3.590  13.087  0.2407  0.4288 -0.3667
19446TIP3    H179829   3.947   3.641  13.124  0.0623 -0.3729  0.4361
19446TIP3    H279830   4.023   3.616  12.995 -1.0506  0.5038 -0.4148
19447TIP3   OH279831   0.985   2.616   3.221 -0.5549 -0.2259  0.5917
19447TIP3    H179832   0.955   2.585   3.136 -0.8143  0.6189  0.3627
19447TIP3    H279833   1.080   2.621   3.213 -0.7071  1.8938 -0.3907
19448TIP3   OH279834   0.588   0.121   6.220 -0.4369  0.2800 -0.2061
19448TIP3    H179835   0.611   0.066   6.145 -2.1542  0.5978 -0.9890
19448TIP3    H279836   0.530   0.067   6.273  0.5397  0.1583  0.7987
19449TIP3   OH279837   6.218   4.981   0.509 -0.8510  0.2176 -0.0643
19449TIP3    H179838   6.272   5.005   0.584 -0.8452 -1.5786  0.5532
19449TIP3    H279839   6.129   5.005   0.534 -0.6521  1.0126 -0.1120
19450TIP3   OH279840   0.635   2.804   3.243 -0.3861  0.3373 -0.0994
19450TIP3    H179841   0.542   2.820   3.258 -0.6253 -0.1873 -0.9242
19450TIP3    H279842   0.663   2.877   3.187 -0.1212  0.8813  0.7268
19451TIP3   OH279843   4.720   2.000   5.431 -0.2730 -0.2648  0.1022
19451TIP3    H179844   4.791   2.056   5.400 -0.5984 -1.1903 -2.5520
19451TIP3    H279845   4.759   1.950   5.503  0.8881  1.1909  0.5476
19452TIP3   OH279846   2.354   3.650  14.952  0.1492 -0.0359  0.0869
19452TIP3    H179847   2.260   3.639  14.966  0.1770 -0.2935  0.0791
19452TIP3    H279848   2.361   3.728  14.897  0.0442  0.9820  1.4704
19453TIP3   OH279849   1.153   1.698   3.087 -0.3150 -0.2763  0.4374
19453TIP3    H179850   1.078   1.677   3.142 -0.6516  0.6361  0.3305
19453TIP3    H279851   1.134   1.784   3.050 -0.4746 -1.1933 -1.7620
19454TIP3   OH279852   2.570   2.445  13.245 -0.3270  0.5009 -0.1282
19454TIP3    H179853   2.565   2.536  13.218  0.0623  0.3112 -0.8632
19454TIP3    H279854   2.572   2.395  13.163  2.6607  0.0009  0.1270
19455TIP3   OH279855   5.098   6.557  13.674  0.1453  0.2700  0.7247
19455TIP3    H179856   5.081   6.470  13.710 -0.7467  0.3230  0.4460
19455TIP3    H279857   5.068   6.617  13.742  0.4402  0.3679  0.7706
19456TIP3   OH279858   1.247   2.466   5.144  0.3655 -0.1104 -0.3641
19456TIP3    H179859   1.184   2.527   5.184  1.5336  0.0968  1.2656
19456TIP3    H279860   1.258   2.397   5.209 -0.1114 -1.5430 -1.7394
19457TIP3   OH279861   5.559   6.395   5.345  0.0608 -0.1509  0.4331
19457TIP3    H179862   5.652   6.415   5.351 -0.0640  0.3354  0.8049
19457TIP3    H279863   5.516   6.481   5.344 -0.3156 -0.3194 -0.9891
19458TIP3   OH279864   2.268   3.264  13.907  0.2608  0.8169 -0.5492
19458TIP3    H179865   2.198   3.200  13.921  1.0671 -0.1166 -0.6724
19458TIP3    H279866   2.228   3.331  13.852 -0.3534 -0.0368 -1.1724
19459TIP3   OH279867   2.684   4.074  16.815  0.1961 -0.4043 -0.2772
19459TIP3    H179868   2.780   4.077  16.810  0.4868 -3.0977  1.3467
19459TIP3    H279869   2.660   4.157  16.856  1.9894 -0.2104  0.5133
19460TIP3   OH279870   5.314   4.799   3.518  0.6471  0.4829  0.2695
19460TIP3    H179871   5.239   4.780   3.574 -1.3313 -0.2897 -2.4538
19460TIP3    H279872   5.313   4.894   3.508 -0.2682  0.4384 -0.1072
19461TIP3   OH279873   1.094   3.654   2.724  0.2396  0.6125  0.7647
19461TIP3    H179874   1.162   3.690   2.667  1.2271 -1.7846  0.3025
19461TIP3    H279875   1.143   3.617   2.798 -0.7350  0.5808  1.4012
19462TIP3   OH279876   5.075   3.129  11.500 -0.4692 -0.3768 -0.7546
19462TIP3    H179877   5.046   3.179  11.424 -0.8230 -0.0192 -0.3854
19462TIP3    H279878   5.058   3.038  11.476 -0.1932 -0.2964 -1.2685
19463TIP3   OH279879   6.281   4.940  13.124  0.0670  0.2252 -0.0330
19463TIP3    H179880   6.246   4.903  13.043 -3.3751 -1.0880  1.8411
19463TIP3    H279881   6.234   5.023  13.135 -1.5954 -0.8708  1.8221
19464TIP3   OH279882   5.123   0.956   0.983  0.2315 -0.2774 -0.3457
19464TIP3    H179883   5.144   0.968   0.890  3.8759  0.2011  0.3608
19464TIP3    H279884   5.199   0.993   1.029 -1.5198 -0.3235  2.8556
19465TIP3   OH279885   4.144   1.727  14.612 -0.2501  0.4632 -0.3208
19465TIP3    H179886   4.229   1.714  14.571 -1.1851 -1.2107 -1.8658
19465TIP3    H279887   4.136   1.822  14.622  2.0267  0.6343  0.4620
19466TIP3   OH279888   3.372   5.918   4.917  0.5548  0.1856 -0.0353
19466TIP3    H179889   3.379   5.827   4.886  0.7196  0.1581  0.0831
19466TIP3    H279890   3.307   5.958   4.859 -0.1294 -0.2329  0.4230
19467TIP3   OH279891   1.563   3.189  15.893  0.3197 -0.0508  0.5290
19467TIP3    H179892   1.548   3.253  15.824 -0.4597  0.2087  0.9386
19467TIP3    H279893   1.482   3.187  15.944  0.2149 -1.5630  0.3629
19468TIP3   OH279894   5.107   4.533   3.997 -0.3890 -0.2756 -0.2024
19468TIP3    H179895   5.023   4.487   4.001 -0.9419  0.5267 -1.6839
19468TIP3    H279896   5.084   4.625   4.008  0.5742 -0.2262  1.5869
19469TIP3   OH279897   1.928   6.540   0.642 -0.1497 -0.2260  0.4901
19469TIP3    H179898   1.952   6.631   0.625  2.5631 -0.8694  0.4752
19469TIP3    H279899   1.863   6.545   0.712 -1.0562  1.7490 -0.4222
19470TIP3   OH279900   5.623   2.985   5.481  0.3568 -0.0680  0.0020
19470TIP3    H179901   5.652   3.027   5.400  0.8548  1.4460  0.9199
19470TIP3    H279902   5.553   2.926   5.453  0.1908  0.7693 -1.4801
19471TIP3   OH279903   3.992   4.956   3.033  0.2062  0.0878  0.1575
19471TIP3    H179904   3.949   4.918   2.956 -0.2636  1.4926 -0.3121
19471TIP3    H279905   4.079   4.917   3.033  0.2923  0.2250 -1.2310
19472TIP3   OH279906   3.154   6.099   3.279  0.1085 -0.2979  0.1605
19472TIP3    H179907   3.128   6.188   3.258 -0.1175  0.2317  2.4067
19472TIP3    H279908   3.148   6.052   3.196 -0.3018  1.6297 -0.9638
19473TIP3   OH279909   6.534   1.669   3.906  0.5284  0.0355 -0.5631
19473TIP3    H179910   6.463   1.604   3.901  0.9105 -0.5968  1.5173
19473TIP3    H279911   6.612   1.621   3.876  0.5955 -0.1091 -0.1556
19474TIP3   OH279912   2.554   3.863  14.173  0.0218  0.3788 -0.1496
19474TIP3    H179913   2.472   3.868  14.123  1.1152  0.4348 -2.0248
19474TIP3    H279914   2.621   3.894  14.113  1.9582 -2.9359  0.0587
19475TIP3   OH279915   5.265   5.836   5.722  0.0391 -0.1191  0.0314
19475TIP3    H179916   5.356   5.835   5.753  0.9283  0.8956 -2.2810
19475TIP3    H279917   5.214   5.864   5.798  1.5339 -1.3606  1.5787
19476TIP3   OH279918   1.021   0.047   5.067  0.5811 -0.2933  0.1217
19476TIP3    H179919   1.080   0.122   5.056  0.5466 -0.0779  1.3382
19476TIP3    H279920   1.068  -0.026   5.025  1.2061  0.1140  0.0995
19477TIP3   OH279921   1.923   6.412  16.707 -0.4494 -0.3013  0.3491
19477TIP3    H179922   1.902   6.321  16.730  0.6654 -0.5190  0.5450
19477TIP3    H279923   1.838   6.450  16.682 -0.8077 -1.6178 -0.5538
19478TIP3   OH279924   0.662   1.035   1.651  0.1232 -0.2680  0.5625
19478TIP3    H179925   0.747   1.013   1.612 -0.3817 -0.6671 -0.3428
19478TIP3    H279926   0.621   0.951   1.670  0.0334 -0.0746  1.2398
19479TIP3   OH279927   3.992   4.035   1.959  0.1993 -0.7157  0.4632
19479TIP3    H179928   3.943   3.958   1.932  1.6128 -0.8766 -1.9568
19479TIP3    H279929   4.075   4.001   1.994  0.5123 -0.3201  0.1199
19480TIP3   OH279930   6.732   5.449  14.462 -0.5517  0.0664 -0.1561
19480TIP3    H179931   6.693   5.375  14.508 -0.2733 -0.3602 -0.5961
19480TIP3    H279932   6.663   5.480  14.404 -0.3649 -0.4552 -0.6655
19481TIP3   OH279933   1.808   2.142   1.568  0.8488  0.3240  0.0052
19481TIP3    H179934   1.834   2.165   1.657 -0.1196 -0.9550  0.6443
19481TIP3    H279935   1.721   2.181   1.558  0.4058 -0.6291  0.0917
19482TIP3   OH279936   4.804   1.339   2.639 -0.0179 -0.3306  0.1509
19482TIP3    H179937   4.784   1.425   2.675 -0.5692 -0.1043 -0.6648
19482TIP3    H279938   4.884   1.312   2.684  0.6604  0.9966 -0.2070
19483TIP3   OH279939   0.009   6.709   1.314  0.7208  0.0124 -0.1806
19483TIP3    H179940  -0.043   6.692   1.235 -1.4127  0.9262  0.9205
19483TIP3    H279941   0.041   6.623   1.340  0.4646 -0.4771 -1.3789
19484TIP3   OH279942   2.614   6.817   5.635 -0.5200 -0.0157  0.3097
19484TIP3    H179943   2.604   6.752   5.705 -1.9976 -0.9430 -0.7112
19484TIP3    H279944   2.562   6.891   5.663 -1.2008 -0.4301  0.1628
19485TIP3   OH279945   0.540   5.977  13.582  0.3681 -0.2450  0.0269
19485TIP3    H179946   0.500   5.919  13.646 -1.3987  0.8868  0.0352
19485TIP3    H279947   0.504   5.948  13.498  2.8045 -1.8376 -0.5824
19486TIP3   OH279948   2.343   0.229   0.905 -0.0380 -0.0567 -0.4567
19486TIP3    H179949   2.353   0.324   0.911 -3.0216  0.3291 -0.2752
19486TIP3    H279950   2.350   0.210   0.812  1.1979  0.1998 -0.4398
19487TIP3   OH279951   5.875   1.599  11.277 -0.5960  0.3285  0.0956
19487TIP3    H179952   5.834   1.655  11.344  0.8226  1.6702 -0.0974
19487TIP3    H279953   5.850   1.639  11.194  0.9350  1.1042 -0.0277
19488TIP3   OH279954   1.068   2.144  14.458  0.2451 -0.2505  0.5156
19488TIP3    H179955   1.113   2.226  14.481  0.5596 -0.0792 -0.6195
19488TIP3    H279956   0.978   2.170  14.439 -0.0616 -0.4192  1.6713
19489TIP3   OH279957   5.363   0.702   0.372  0.8841  0.1734 -0.0340
19489TIP3    H179958   5.268   0.696   0.382  0.7111  0.2484 -1.4272
19489TIP3    H279959   5.395   0.724   0.459 -0.2466 -1.2384  0.7690
19490TIP3   OH279960   0.994   1.474  10.962 -0.2309 -0.5136  0.1852
19490TIP3    H179961   0.985   1.386  10.997 -2.0238  0.5848  2.8586
19490TIP3    H279962   0.919   1.484  10.903  0.6638 -1.1382 -1.0857
19491TIP3   OH279963   6.105   2.538   5.440  0.6651 -0.4117  0.4971
19491TIP3    H179964   6.116   2.631   5.418  1.1324 -0.7479 -0.7661
19491TIP3    H279965   6.030   2.537   5.499 -0.6037  0.5894 -0.9988
19492TIP3   OH279966   5.905   1.908  12.460  0.2549  0.6031  0.0326
19492TIP3    H179967   5.866   1.988  12.495  0.0288  0.0227  1.1695
19492TIP3    H279968   5.987   1.899  12.508 -0.3204 -0.5012  0.8848
19493TIP3   OH279969   0.803   4.851  12.639 -0.3230  0.4894  0.0709
19493TIP3    H179970   0.872   4.893  12.692  1.1776 -3.1347  1.3419
19493TIP3    H279971   0.851   4.805  12.570 -1.8361  0.7237 -1.1794
19494TIP3   OH279972   4.164   3.503   4.714 -0.3760  0.2966 -0.5350
19494TIP3    H179973   4.191   3.554   4.790  0.3203  0.2991 -0.7745
19494TIP3    H279974   4.082   3.542   4.686  0.0770  1.2051 -0.6299
19495TIP3   OH279975   2.168   2.086  16.993 -0.0401 -0.6844 -0.6619
19495TIP3    H179976   2.166   2.082  17.088  0.5563  2.4639 -0.4037
19495TIP3    H279977   2.126   2.005  16.964 -1.1513 -1.2603  2.2718
19496TIP3   OH279978   3.772   4.127   5.324 -0.4158  0.0226  0.1730
19496TIP3    H179979   3.739   4.082   5.246 -2.9264  0.7762  0.7069
19496TIP3    H279980   3.865   4.139   5.308 -0.6756 -0.7850 -2.2378
19497TIP3   OH279981   1.164   1.345   1.701 -0.3675 -0.0023  0.1577
19497TIP3    H179982   1.255   1.316   1.709  0.7049  2.8189 -0.3526
19497TIP3    H279983   1.131   1.346   1.791 -0.4990 -2.5970  0.1963
19498TIP3   OH279984   0.664   2.201   1.931  0.1074 -0.0070 -0.5121
19498TIP3    H179985   0.711   2.165   1.857 -1.6290 -0.6410 -1.3639
19498TIP3    H279986   0.716   2.175   2.007  1.6364  0.2031 -1.4478
19499TIP3   OH279987   3.012   4.857   1.223  0.6851 -0.2002  0.2755
19499TIP3    H179988   3.000   4.947   1.195 -0.2837 -0.3411  0.1807
19499TIP3    H279989   2.934   4.838   1.276  0.8796 -0.9747  0.2967
19500TIP3   OH279990   1.947   2.791  12.692 -0.2323 -0.5793  0.4072
19500TIP3    H179991   1.947   2.819  12.600 -0.0514 -0.7113  0.3660
19500TIP3    H279992   1.854   2.782  12.715 -0.2634 -1.8763 -0.1654
19501TIP3   OH279993   2.254   4.686   5.457 -0.0698 -0.2032 -0.1036
19501TIP3    H179994   2.302   4.633   5.521  1.9642  0.7235 -0.7893
19501TIP3    H279995   2.275   4.645   5.372 -0.1198  0.4795 -0.4506
19502TIP3   OH279996   6.256   5.167  11.856  0.0810  0.3895 -0.3917
19502TIP3    H179997   6.282   5.228  11.926  0.6225 -0.3823  0.0967
19502TIP3    H279998   6.338   5.148  11.810  0.0574 -0.5120 -0.0875
19503TIP3   OH279999   5.227   2.478  15.201  0.4461 -0.2372  0.4496
19503TIP3    H180000   5.206   2.540  15.131 -1.5249 -0.8521  0.4368
19503TIP3    H280001   5.306   2.514  15.242  0.0741  1.5956 -0.3352
19504TIP3   OH280002   2.926   4.884  15.529 -0.1163  0.0254 -0.6828
19504TIP3    H180003   2.860   4.853  15.591  1.5952 -0.1107  1.1424
19504TIP3    H280004   2.895   4.971  15.503 -1.1983 -0.1953 -0.1905
19505TIP3   OH280005   0.196   0.803  13.425 -0.0011  0.2636 -0.0631
19505TIP3    H180006   0.124   0.807  13.362  0.2640  1.9237 -0.2985
19505TIP3    H280007   0.274   0.789  13.372  0.0920  0.5486 -0.0015
19506TIP3   OH280008   5.901   1.933   1.845 -0.5028  0.1715 -0.0578
19506TIP3    H180009   5.938   1.892   1.768 -0.4276  0.4639 -0.1776
19506TIP3    H280010   5.856   1.862   1.891  2.6578 -0.8864  1.6536
19507TIP3   OH280011   2.288   2.992   3.434  0.2741  0.1905 -0.7254
19507TIP3    H180012   2.338   2.926   3.386 -2.0413 -0.5594 -2.3139
19507TIP3    H280013   2.221   3.021   3.372 -2.2132  0.0138  1.6818
19508TIP3   OH280014   5.052   4.003  11.927 -0.0362  0.0832  0.0077
19508TIP3    H180015   5.071   3.919  11.967  0.3978  0.1412 -0.0732
19508TIP3    H280016   4.957   4.015  11.938 -0.2926 -0.9108 -0.9152
19509TIP3   OH280017   4.413   4.640   5.239 -0.1525 -0.1369 -0.0224
19509TIP3    H180018   4.472   4.644   5.314 -0.9112  2.8777  0.5484
19509TIP3    H280019   4.375   4.728   5.234 -0.9357 -0.5425 -3.3195
19510TIP3   OH280020   6.643   0.083   3.994 -0.2021  0.3538  0.3727
19510TIP3    H180021   6.674   0.088   3.904 -1.3449 -0.0152 -0.0522
19510TIP3    H280022   6.552   0.112   3.991 -0.7963 -1.2826  1.0979
19511TIP3   OH280023   3.231   6.202  16.245 -0.3523 -0.1203  0.6479
19511TIP3    H180024   3.152   6.193  16.191 -1.0333 -0.1401  1.6166
19511TIP3    H280025   3.215   6.144  16.320 -0.0946  1.0569  1.6340
19512TIP3   OH280026   5.753   0.153  13.724  0.2222  0.5463 -0.0561
19512TIP3    H180027   5.843   0.128  13.704 -0.1192  0.7481 -2.0496
19512TIP3    H280028   5.709   0.071  13.744  0.7669  0.4110  0.6163
19513TIP3   OH280029   2.355   3.167   1.822  0.2871 -0.1486 -0.6454
19513TIP3    H180030   2.341   3.123   1.906  1.8412  2.1104  0.9033
19513TIP3    H280031   2.269   3.167   1.781 -0.6366 -0.9021  1.1725
19514TIP3   OH280032   6.372   0.214   5.378 -0.3539  0.3833  0.1143
19514TIP3    H180033   6.291   0.165   5.365  0.1615 -0.0937 -1.4328
19514TIP3    H280034   6.353   0.302   5.347 -0.4795  0.4544  0.3918
19515TIP3   OH280035   5.995   3.894   0.744 -0.5716  0.0283 -1.1724
19515TIP3    H180036   5.925   3.887   0.809 -1.1203 -0.5643 -1.8053
19515TIP3    H280037   6.006   3.988   0.731  1.8479  0.3763  2.1622
19516TIP3   OH280038   0.661   0.607  15.132  0.7440 -0.1346 -0.2236
19516TIP3    H180039   0.719   0.548  15.180 -0.2187 -2.2963 -1.5727
19516TIP3    H280040   0.705   0.623  15.049 -0.7327 -2.2725 -1.5058
19517TIP3   OH280041   6.730   3.307   1.146 -0.1882  0.4951  0.1433
19517TIP3    H180042   6.693   3.325   1.233  0.4868  0.0319  0.5332
19517TIP3    H280043   6.653   3.296   1.090 -0.6512  0.0489  0.8424
19518TIP3   OH280044   1.039   5.304  14.315  0.1495  0.5472  0.1055
19518TIP3    H180045   1.133   5.296  14.299  0.0686  1.2142 -0.7929
19518TIP3    H280046   1.033   5.355  14.395  0.5634  1.1011 -0.2038
19519TIP3   OH280047   2.914   1.828  13.609 -0.2056  0.0592 -0.0138
19519TIP3    H180048   2.965   1.831  13.690 -1.1797 -1.1467  0.6801
19519TIP3    H280049   2.973   1.789  13.544  0.7388  1.4690 -0.0358
19520TIP3   OH280050   0.888   2.876  13.621  0.3016  0.0766  0.2633
19520TIP3    H180051   0.794   2.869  13.638  0.4668  1.4676  2.1262
19520TIP3    H280052   0.904   2.970  13.613  1.5083 -0.1531 -0.1882
19521TIP3   OH280053   2.539   5.196  11.898 -0.8860 -0.3400 -0.2255
19521TIP3    H180054   2.511   5.194  11.989 -1.9485 -1.7263 -0.5453
19521TIP3    H280055   2.611   5.133  11.893 -1.4613 -0.9955 -0.5078
19522TIP3   OH280056   6.473   4.781   3.350 -0.5651  0.0051 -0.4038
19522TIP3    H180057   6.457   4.700   3.400 -1.2836 -0.6387 -1.6374
19522TIP3    H280058   6.535   4.754   3.282 -1.5659  0.2397 -1.4305
19523TIP3   OH280059   4.962   5.790   3.990  0.7504 -0.2107  0.2495
19523TIP3    H180060   4.961   5.834   4.075  2.3122 -0.3455  0.3778
19523TIP3    H280061   5.053   5.801   3.960  0.8928 -2.3878 -0.2252
19524TIP3   OH280062   0.354   0.957   1.443  0.2699  0.9204 -1.1983
19524TIP3    H180063   0.388   0.901   1.513 -1.6658 -0.1568 -1.0240
19524TIP3    H280064   0.387   1.044   1.462 -0.0144  0.5993  0.9431
19525TIP3   OH280065   6.170   5.248   1.665 -0.1549  0.0375  0.3767
19525TIP3    H180066   6.109   5.309   1.707  0.5772  2.0920 -1.3368
19525TIP3    H280067   6.116   5.175   1.638 -1.8459  1.6039 -0.7115
19526TIP3   OH280068   2.432   4.573  10.950 -0.8398  0.1650  0.4113
19526TIP3    H180069   2.419   4.514  11.025 -0.3995 -0.2456  0.1756
19526TIP3    H280070   2.349   4.568  10.902 -0.2397 -1.6436 -0.5424
19527TIP3   OH280071   6.776   6.540  11.910  0.2910 -0.5345 -0.0924
19527TIP3    H180072   6.757   6.456  11.868 -2.2943  1.5421 -3.7568
19527TIP3    H280073   6.692   6.568  11.946  1.3400  0.0799  2.0172
19528TIP3   OH280074   4.848   3.754  12.620  0.1103 -0.5416 -0.2928
19528TIP3    H180075   4.880   3.789  12.537  1.7563  0.7068  0.8121
19528TIP3    H280076   4.921   3.764  12.680 -1.0567 -1.3838  1.3439
19529TIP3   OH280077   5.740   1.796   0.411  0.2128  0.2666 -0.7997
19529TIP3    H180078   5.693   1.723   0.373 -0.2881 -0.1429  0.5331
19529TIP3    H280079   5.671   1.858   0.436  0.2413 -0.5606  1.6408
19530TIP3   OH280080   5.653   0.578   5.133  0.0949 -0.4266 -0.3968
19530TIP3    H180081   5.725   0.635   5.159 -0.0134 -0.2819 -0.4146
19530TIP3    H280082   5.618   0.545   5.216 -0.1137 -0.1318 -0.3632
19531TIP3   OH280083   0.494   1.095  15.971 -0.2402 -0.1372 -0.1487
19531TIP3    H180084   0.493   1.124  15.880  0.4130 -1.9446 -0.7713
19531TIP3    H280085   0.566   1.144  16.011 -0.1764  0.2721 -0.7566
19532TIP3   OH280086   5.147   4.055  11.297  0.3868  0.3767 -0.3950
19532TIP3    H180087   5.145   4.033  11.391 -0.4851 -2.3860 -0.9641
19532TIP3    H280088   5.238   4.041  11.271  0.0611 -2.0333 -0.5228
19533TIP3   OH280089   1.675   1.335   5.325 -0.4109 -0.1326  0.1716
19533TIP3    H180090   1.721   1.267   5.373 -0.3028  0.8370  1.5000
19533TIP3    H280091   1.630   1.386   5.392 -0.0981  1.3770 -0.7135
19534TIP3   OH280092   2.163   2.205   1.511 -0.2169 -0.2040  0.1391
19534TIP3    H180093   2.174   2.242   1.598 -2.6926  0.3797  0.2704
19534TIP3    H280094   2.158   2.280   1.453 -1.9928 -0.3815 -0.0099
19535TIP3   OH280095   1.137   2.517   4.457  0.5292 -0.3545 -0.5362
19535TIP3    H180096   1.173   2.505   4.545  0.1568 -0.6784 -0.4243
19535TIP3    H280097   1.047   2.544   4.471  1.2003  2.3538 -0.7836
19536TIP3   OH280098   6.065   1.152  13.262  0.0822  0.4708 -0.4971
19536TIP3    H180099   6.094   1.216  13.326  0.0006  0.3622 -0.3501
19536TIP3    H280100   6.048   1.073  13.313 -0.7020  0.6005 -0.5454
19537TIP3   OH280101   6.373   3.502  12.714  0.6759  0.4476 -0.1225
19537TIP3    H180102   6.383   3.549  12.632 -0.2574 -0.0352 -0.5328
19537TIP3    H280103   6.343   3.569  12.776 -1.1077  0.3523 -0.8139
19538TIP3   OH280104   0.241   2.638  16.395 -0.2268 -0.0480 -0.1761
19538TIP3    H180105   0.204   2.710  16.446 -0.0191  1.2443 -1.7748
19538TIP3    H280106   0.172   2.573  16.391 -1.2839  1.0763 -0.6663
19539TIP3   OH280107   0.422   2.325  13.161 -0.0429 -0.0012 -0.2417
19539TIP3    H180108   0.355   2.275  13.115  0.0582  0.4734 -0.9212
19539TIP3    H280109   0.405   2.416  13.137  1.1871  0.0828 -0.8906
19540TIP3   OH280110   4.054   0.890  13.815  0.3819  0.1204  0.1148
19540TIP3    H180111   4.110   0.901  13.737 -0.8192  1.4002 -0.6235
19540TIP3    H280112   3.995   0.819  13.792  0.2087  0.3105 -0.0269
19541TIP3   OH280113   1.854   0.153  13.054 -0.4516  0.5070  0.1160
19541TIP3    H180114   1.882   0.149  13.145 -0.1832 -0.7371 -0.0057
19541TIP3    H280115   1.827   0.063  13.033  1.6483  0.2366 -1.6923
19542TIP3   OH280116   5.352   0.946   1.488 -0.1055 -0.3364 -0.7095
19542TIP3    H180117   5.297   0.999   1.431  0.1078  0.6423 -0.0428
19542TIP3    H280118   5.424   1.005   1.513  0.5023 -1.1547 -0.4807
19543TIP3   OH280119   2.293   6.654   2.260 -0.3512  0.7960  0.6820
19543TIP3    H180120   2.289   6.732   2.205  0.6230 -0.1540 -0.8251
19543TIP3    H280121   2.309   6.582   2.198  0.4967 -0.3732  2.1844
19544TIP3   OH280122   4.957   5.291  15.671 -0.2993 -0.1384 -0.0030
19544TIP3    H180123   5.045   5.324  15.692 -0.0393 -0.4604 -0.5542
19544TIP3    H280124   4.902   5.369  15.671  0.1496  0.1869 -0.4568
19545TIP3   OH280125   4.915   0.859  13.194 -0.3238  0.2272  0.1172
19545TIP3    H180126   4.996   0.891  13.154 -0.9927  1.0500 -0.6174
19545TIP3    H280127   4.890   0.927  13.257  0.6201 -0.9670  1.8884
19546TIP3   OH280128   2.936   4.968  16.137 -0.2120 -0.1673  0.4508
19546TIP3    H180129   2.850   4.928  16.146 -0.8366  1.0749  0.2575
19546TIP3    H280130   2.939   5.034  16.206  1.2991 -1.3534  1.5878
19547TIP3   OH280131   0.775   4.887   3.109 -0.1196  0.2380 -1.0452
19547TIP3    H180132   0.758   4.950   3.039  1.2535  0.2399 -1.4072
19547TIP3    H280133   0.756   4.935   3.189 -0.1350  0.7660 -1.3585
19548TIP3   OH280134   1.857   3.308   2.342 -0.6829  1.0515 -0.5044
19548TIP3    H180135   1.871   3.224   2.385 -0.3078  1.5565  0.3789
19548TIP3    H280136   1.816   3.363   2.409  0.3447  1.9924 -0.6276
19549TIP3   OH280137   0.326   0.801   5.219 -0.2780 -0.3186  0.6546
19549TIP3    H180138   0.418   0.783   5.237  0.0477 -0.5690 -1.0468
19549TIP3    H280139   0.306   0.881   5.268  0.8918 -0.1513  0.8751
19550TIP3   OH280140   1.643   3.797  15.640 -0.9022 -0.4091 -0.2502
19550TIP3    H180141   1.664   3.704  15.647  0.8795 -0.0322 -0.2461
19550TIP3    H280142   1.560   3.799  15.591 -1.1139 -1.9914 -0.0065
19551TIP3   OH280143   0.970   2.948   4.956  0.0389  0.4805  0.3970
19551TIP3    H180144   0.883   2.981   4.979 -0.7934 -0.2619 -1.4393
19551TIP3    H280145   0.956   2.854   4.943  1.8013 -0.2392  3.0401
19552TIP3   OH280146   4.871   4.241  13.389 -0.0982 -0.0726 -0.0484
19552TIP3    H180147   4.854   4.187  13.466 -1.9973 -1.1075 -1.0913
19552TIP3    H280148   4.936   4.192  13.339  2.6977  1.5877  1.7577
19553TIP3   OH280149   3.099   5.070   1.419  0.1691  0.5736  0.2940
19553TIP3    H180150   3.144   5.145   1.379  0.1342  0.9193  0.8856
19553TIP3    H280151   3.008   5.078   1.390  0.0324  1.1198  0.8447
19554TIP3   OH280152   0.256   3.318  13.035 -0.2391  0.4033 -0.1659
19554TIP3    H180153   0.336   3.281  12.998  0.0267 -2.3170  2.7590
19554TIP3    H280154   0.282   3.351  13.121 -1.8643  1.5363 -0.0600
19555TIP3   OH280155   0.642   6.097  14.323  0.0469 -0.2033  0.1022
19555TIP3    H180156   0.658   6.187  14.351  1.0391 -0.4155  0.2532
19555TIP3    H280157   0.665   6.044  14.399  0.0267 -0.6190 -0.1828
19556TIP3   OH280158   4.068   5.567  14.775  0.3480 -0.5577  0.2580
19556TIP3    H180159   4.042   5.484  14.815  1.1119 -1.1090 -0.3566
19556TIP3    H280160   4.023   5.633  14.827 -0.7922 -1.3760  0.3578
19557TIP3   OH280161   4.801   1.073  13.860 -0.3757 -0.4349 -0.2055
19557TIP3    H180162   4.850   1.143  13.904 -0.4172 -0.4061 -0.2059
19557TIP3    H280163   4.868   1.025  13.811 -0.3923 -0.2110 -0.4488
19558TIP3   OH280164   4.065   5.851  11.367  0.4408  0.2035 -0.1849
19558TIP3    H180165   4.136   5.899  11.324  0.0808  0.8609 -0.0613
19558TIP3    H280166   3.992   5.858  11.307  0.3342 -0.0463 -0.0858
19559TIP3   OH280167   0.832   1.764   0.109  0.2367  0.0267  0.5420
19559TIP3    H180168   0.927   1.757   0.120  0.1970 -1.0768  0.3688
19559TIP3    H280169   0.808   1.684   0.060 -0.2113  2.2209 -3.2071
19560TIP3   OH280170   3.601   2.912  17.119  0.7903 -0.0565 -0.3752
19560TIP3    H180171   3.514   2.895  17.082 -0.2688  1.6340  1.1967
19560TIP3    H280172   3.620   2.836  17.173  0.6995 -0.8329 -1.4108
19561TIP3   OH280173   4.548   2.737  15.641  0.5390 -0.1596 -0.2509
19561TIP3    H180174   4.607   2.807  15.668  0.7840 -0.2064 -0.6479
19561TIP3    H280175   4.562   2.729  15.546 -1.7802  1.3799 -0.7843
19562TIP3   OH280176   0.116   0.292  13.755 -0.2424 -0.0364 -0.2046
19562TIP3    H180177   0.172   0.261  13.826 -2.1103 -1.4060  0.7482
19562TIP3    H280178   0.178   0.319  13.686  1.5783 -0.5786  1.1397
19563TIP3   OH280179   4.788   0.811  14.886 -0.0205  0.0446 -0.3194
19563TIP3    H180180   4.832   0.813  14.971 -0.2890  3.5588 -0.1196
19563TIP3    H280181   4.708   0.760  14.901 -0.1027  0.6649  1.5944
19564TIP3   OH280182   2.838   0.995   2.921 -0.1715 -0.1979  0.2088
19564TIP3    H180183   2.835   0.900   2.928  0.0134 -0.1993  0.2743
19564TIP3    H280184   2.885   1.024   2.999  1.9051 -0.2179 -0.9515
19565TIP3   OH280185   1.400   0.931   5.341  0.4808  0.3610 -0.0503
19565TIP3    H180186   1.403   0.967   5.430  2.3328  1.1391 -0.3743
19565TIP3    H280187   1.483   0.957   5.302  0.9570 -2.3352 -1.1030
19566TIP3   OH280188   1.297   6.691   3.903 -0.1591  0.5536 -0.1945
19566TIP3    H180189   1.201   6.682   3.900 -0.1049 -0.2228  0.0523
19566TIP3    H280190   1.317   6.707   3.995 -0.0496  0.6787 -0.2401
19567TIP3   OH280191   4.919   4.491  14.706  0.5145  0.0604 -0.2288
19567TIP3    H180192   5.015   4.496  14.698  0.4548  0.0862 -0.9851
19567TIP3    H280193   4.887   4.520  14.621 -0.1213 -2.0043 -0.7419
19568TIP3   OH280194   1.126   1.385  10.484 -0.6844  0.1924  0.5798
19568TIP3    H180195   1.084   1.323  10.425  0.0371  0.2803 -0.0453
19568TIP3    H280196   1.072   1.464  10.480 -0.5697  0.2422 -0.0702
19569TIP3   OH280197   3.440   4.002  13.390  0.0557  0.7193 -0.3458
19569TIP3    H180198   3.349   3.982  13.410  0.6309 -0.4435  1.3548
19569TIP3    H280199   3.441   4.097  13.374 -1.0521  1.2642  2.3450
19570TIP3   OH280200   0.744   1.117  14.573 -0.1086  0.1884  0.0379
19570TIP3    H180201   0.713   1.180  14.507 -1.1349 -0.5611 -0.2194
19570TIP3    H280202   0.823   1.158  14.610 -1.2221  2.0298  0.4989
19571TIP3   OH280203   6.102   5.935   3.693 -0.0802  0.0986  0.0771
19571TIP3    H180204   6.007   5.943   3.700 -0.0261  1.8532 -0.4958
19571TIP3    H280205   6.136   6.015   3.733  1.1030 -0.0254 -0.6199
19572TIP3   OH280206   0.416   0.813  13.718  0.0022 -0.5735  0.8919
19572TIP3    H180207   0.480   0.761  13.766 -0.1296 -0.8369  0.7829
19572TIP3    H280208   0.391   0.758  13.644 -1.3198 -1.0232  1.6443
19573TIP3   OH280209   3.666   5.085   4.125  0.1109  0.1978 -0.3441
19573TIP3    H180210   3.579   5.110   4.155 -1.1983 -3.1625 -1.0035
19573TIP3    H280211   3.708   5.045   4.201 -0.5008 -1.8221 -1.0223
19574TIP3   OH280212   4.160   6.700   0.630  0.1624 -0.8206 -0.1015
19574TIP3    H180213   4.211   6.756   0.572 -0.7710  0.9648  0.6955
19574TIP3    H280214   4.140   6.757   0.705 -1.8466 -1.8458  0.2025
19575TIP3   OH280215   0.469   6.634   5.209  0.3831  0.2909  0.2925
19575TIP3    H180216   0.415   6.555   5.209 -0.9269  1.1511 -0.9416
19575TIP3    H280217   0.452   6.674   5.294  1.3134 -0.8853  1.0671
19576TIP3   OH280218   4.913   0.393   2.781 -0.5651 -0.7210 -0.1433
19576TIP3    H180219   4.928   0.330   2.711  0.5655 -0.2480 -0.3639
19576TIP3    H280220   4.923   0.478   2.738 -1.0006 -0.4092  0.3654
19577TIP3   OH280221   4.840   3.818  13.193 -0.2921  0.0705  0.1620
19577TIP3    H180222   4.840   3.864  13.109 -1.9155  0.3894  0.2959
19577TIP3    H280223   4.747   3.804  13.212  0.0656 -0.3672  1.6985
19578TIP3   OH280224   5.014   0.597   0.086 -0.2142  0.8742  0.5175
19578TIP3    H180225   5.018   0.551   0.002 -2.1105 -0.8025  1.2610
19578TIP3    H280226   5.036   0.530   0.151  2.5039  2.4387  1.3792
19579TIP3   OH280227   5.530   5.299  15.527 -0.0472 -0.6101  0.0197
19579TIP3    H180228   5.510   5.385  15.564  0.5900 -1.2553  1.9781
19579TIP3    H280229   5.446   5.266  15.496 -0.1874  0.9962 -1.4849
19580TIP3   OH280230   0.851   3.399  13.240  0.0318  0.1131  0.0942
19580TIP3    H180231   0.865   3.411  13.146  0.8892 -0.3629  0.1467
19580TIP3    H280232   0.817   3.311  13.248 -0.9946  0.5056  0.1584
19581TIP3   OH280233   3.012   1.070   0.362  0.4239  0.1271  0.8069
19581TIP3    H180234   3.081   1.078   0.428 -0.1842 -1.3750  1.6590
19581TIP3    H280235   2.942   1.022   0.405 -0.2262 -0.4099 -0.7624
19582TIP3   OH280236   6.693   1.703  15.713 -0.0836 -0.1414  0.7059
19582TIP3    H180237   6.691   1.755  15.633 -1.6605 -0.9192  0.1836
19582TIP3    H280238   6.785   1.679  15.725  0.1810  0.0047 -0.8706
19583TIP3   OH280239   3.747   6.589   0.475 -0.2717 -0.4713 -0.3144
19583TIP3    H180240   3.664   6.547   0.496 -0.4836  0.4185  0.7314
19583TIP3    H280241   3.774   6.548   0.393 -1.2923 -1.4129 -0.2162
19584TIP3   OH280242   3.359   0.432  15.663 -0.2682  0.6289 -0.4929
19584TIP3    H180243   3.337   0.455  15.753  1.7307  0.1918  0.1664
19584TIP3    H280244   3.277   0.400  15.625 -0.9952  0.1740  1.3816
19585TIP3   OH280245   0.220   3.551   4.008  0.3398  0.7943  0.1574
19585TIP3    H180246   0.211   3.607   3.930  1.4659 -0.0262 -0.5906
19585TIP3    H280247   0.291   3.491   3.986  0.1493  0.0341  1.5316
19586TIP3   OH280248   3.046   2.078   3.838  0.2231  0.0900 -0.3804
19586TIP3    H180249   3.111   2.081   3.769  0.2710  2.9408 -0.3446
19586TIP3    H280250   2.971   2.125   3.802 -0.5134 -0.1322  0.8085
19587TIP3   OH280251   5.753   5.555  17.272  0.0650  0.5806  0.1153
19587TIP3    H180252   5.845   5.547  17.251 -0.0034 -1.8310  0.4411
19587TIP3    H280253   5.712   5.587  17.192  0.9040 -0.4151 -0.7278
19588TIP3   OH280254   6.684   4.211   2.638  0.2512  0.0101  0.1349
19588TIP3    H180255   6.596   4.182   2.615  0.8278 -0.3879 -1.6648
19588TIP3    H280256   6.741   4.137   2.615  1.1800  0.6771  0.2383
19589TIP3   OH280257   1.574   0.840  15.717  0.0423  0.0850  0.1888
19589TIP3    H180258   1.555   0.864  15.627 -0.1250 -1.0593 -0.0993
19589TIP3    H280259   1.610   0.919  15.756  0.3497  0.5301 -0.9519
19590TIP3   OH280260   3.193   3.166   3.074 -0.0940  0.0412  0.3587
19590TIP3    H180261   3.232   3.236   3.021  0.3744  1.2212  2.1541
19590TIP3    H280262   3.256   3.152   3.145 -0.9289 -1.0982  0.9023
19591TIP3   OH280263   0.220   6.588   5.866  0.2608  0.1913  0.3009
19591TIP3    H180264   0.160   6.648   5.820 -2.5937  0.0737  3.4455
19591TIP3    H280265   0.305   6.605   5.827 -1.1227  3.3053 -1.8020
19592TIP3   OH280266   1.450   4.775  14.237  0.6421 -0.4159  0.3629
19592TIP3    H180267   1.543   4.788  14.258  0.2236  0.2782  1.9102
19592TIP3    H280268   1.417   4.863  14.218  0.3414 -0.6886 -0.4129
19593TIP3   OH280269   1.227   4.439   0.108 -0.3686  0.2977  0.0201
19593TIP3    H180270   1.161   4.484   0.055  0.1607 -0.0938 -0.9770
19593TIP3    H280271   1.302   4.498   0.107 -0.5408  0.5447  0.8079
19594TIP3   OH280272   0.241   6.422   2.921 -0.1377  0.0425  0.1543
19594TIP3    H180273   0.252   6.438   3.015 -0.5585 -0.1848  0.2453
19594TIP3    H280274   0.258   6.507   2.880 -0.8121  0.3574  0.5087
19595TIP3   OH280275   6.117   1.560   2.790  0.0801  0.1317  0.4986
19595TIP3    H180276   6.030   1.587   2.818  0.7260  2.5563  0.3234
19595TIP3    H280277   6.177   1.594   2.856  0.9524 -1.3601  0.5339
19596TIP3   OH280278   2.714   5.498   4.153  0.1519 -0.1216  0.5504
19596TIP3    H180279   2.763   5.442   4.212 -0.7143 -0.9996  0.4636
19596TIP3    H280280   2.668   5.559   4.210 -0.7186 -0.9948  0.8000
19597TIP3   OH280281   2.546   6.720   5.383 -0.2580 -0.0957 -0.4437
19597TIP3    H180282   2.564   6.770   5.462  0.3277 -1.2316  0.1680
19597TIP3    H280283   2.497   6.780   5.327  1.2275  1.4613 -0.1451
19598TIP3   OH280284   1.413   4.589   3.791  0.1835 -0.1056  0.0069
19598TIP3    H180285   1.332   4.562   3.834 -1.2090  1.1043 -1.7324
19598TIP3    H280286   1.419   4.683   3.806  0.0289  0.2201 -1.7813
19599TIP3   OH280287   0.129   1.800  12.727  0.4323  0.4695 -0.3053
19599TIP3    H180288   0.182   1.821  12.650 -0.1329 -3.6028 -2.0695
19599TIP3    H280289   0.178   1.730  12.772 -1.4526 -0.5352  0.3073
19600TIP3   OH280290   5.326   0.313   4.698  0.2731  0.0995 -0.2510
19600TIP3    H180291   5.341   0.382   4.763 -0.4235 -1.1614  1.3450
19600TIP3    H280292   5.237   0.283   4.715  0.5919 -1.2530 -0.8263
19601TIP3   OH280293   5.842   1.383   1.149 -0.1446 -0.1822 -0.2036
19601TIP3    H180294   5.893   1.327   1.207  0.0715  0.7918  0.5680
19601TIP3    H280295   5.905   1.445   1.114 -0.2010 -0.9622 -1.7825
19602TIP3   OH280296   3.551   0.798  14.000 -0.0288 -0.0375  0.0387
19602TIP3    H180297   3.629   0.770  14.048 -0.8516 -2.0011  0.3139
19602TIP3    H280298   3.513   0.867  14.055  1.5154  1.0148 -0.1468
19603TIP3   OH280299   5.206   5.993   2.293  0.0952 -0.3275 -0.0623
19603TIP3    H180300   5.118   6.024   2.317  0.6783 -0.0078  1.8589
19603TIP3    H280301   5.262   6.070   2.303  0.7643 -0.7789 -0.2587
19604TIP3   OH280302   0.662   2.205  11.962 -0.1529  0.1365 -0.2690
19604TIP3    H180303   0.689   2.148  11.890  0.5119  0.2543 -0.1240
19604TIP3    H280304   0.713   2.286  11.948  0.3495 -0.0153  0.5974
19605TIP3   OH280305   5.711   5.238  17.275 -0.0985 -0.5014 -0.3962
19605TIP3    H180306   5.756   5.267  17.354 -1.6824  0.6183  0.1656
19605TIP3    H280307   5.774   5.183  17.230  1.3130 -0.1078  0.9952
19606TIP3   OH280308   4.280   3.198  16.539 -0.1045 -0.1268  0.1545
19606TIP3    H180309   4.282   3.227  16.630 -0.1062  2.4631 -0.5854
19606TIP3    H280310   4.187   3.194  16.517 -0.0952 -0.0237  0.0916
19607TIP3   OH280311   5.927   5.897   1.852 -0.7052  0.0751 -0.3165
19607TIP3    H180312   5.989   5.901   1.780 -1.2421  2.3964 -0.7139
19607TIP3    H280313   5.982   5.882   1.930  0.0472 -0.6040 -0.9626
19608TIP3   OH280314   3.476   2.653  11.697 -0.0644 -0.1446  0.4031
19608TIP3    H180315   3.482   2.747  11.711 -1.4496  0.0305 -0.0649
19608TIP3    H280316   3.559   2.618  11.731  0.2798  1.1826  0.9714
19609TIP3   OH280317   3.683   5.861   5.464  0.7311 -0.1011  0.6339
19609TIP3    H180318   3.720   5.798   5.402 -1.7200  1.7560 -3.0179
19609TIP3    H280319   3.729   5.842   5.546  3.4052 -3.5013 -1.3531
19610TIP3   OH280320   0.240   5.292  16.575  0.2023  0.3661 -0.2068
19610TIP3    H180321   0.229   5.259  16.664  1.2220  4.2501  1.5660
19610TIP3    H280322   0.312   5.240  16.539  0.7062 -0.4010  1.7722
19611TIP3   OH280323   5.076   0.934  12.390 -0.4065 -0.7596 -0.2733
19611TIP3    H180324   5.105   1.001  12.452 -0.7974 -0.9617  0.1304
19611TIP3    H280325   4.981   0.941  12.389 -0.5154 -1.9059  0.4524
19612TIP3   OH280326   3.468   3.938  15.365  0.2018 -0.1252  0.1625
19612TIP3    H180327   3.548   3.950  15.416  0.8400 -0.3263 -0.7586
19612TIP3    H280328   3.470   3.845  15.341  1.2717  0.4761 -2.3725
19613TIP3   OH280329   3.223   3.635   3.235 -0.0170  0.1073  0.0755
19613TIP3    H180330   3.234   3.715   3.184 -0.6942 -0.9631 -1.8280
19613TIP3    H280331   3.312   3.609   3.259  0.4502 -0.1253 -1.8085
19614TIP3   OH280332   1.954   0.476   1.663  0.1215  0.2440 -0.6790
19614TIP3    H180333   2.039   0.508   1.695  0.8502 -1.8457 -0.3568
19614TIP3    H280334   1.975   0.429   1.582 -0.8178  0.1671 -0.8858
19615TIP3   OH280335   0.226   4.797   2.146 -0.2844 -0.1454 -0.1868
19615TIP3    H180336   0.243   4.890   2.132  0.2264 -0.3579 -1.0927
19615TIP3    H280337   0.303   4.766   2.194 -1.0110  0.1327  1.1868
19616TIP3   OH280338   4.882   2.284  16.294 -0.2752 -0.0606 -0.3851
19616TIP3    H180339   4.908   2.250  16.208  0.1584 -0.5755 -0.0601
19616TIP3    H280340   4.790   2.307  16.283  0.0535  0.8995 -1.2942
19617TIP3   OH280341   2.416   4.539   5.257 -0.3357 -0.0320 -0.2454
19617TIP3    H180342   2.437   4.446   5.262  0.1269  0.0751 -0.1611
19617TIP3    H280343   2.498   4.583   5.279 -0.5218  0.3957 -0.4053
19618TIP3   OH280344   5.668   5.707  13.710 -0.0873  0.7008  0.1217
19618TIP3    H180345   5.748   5.727  13.757 -0.8691  1.2797  1.2450
19618TIP3    H280346   5.598   5.741  13.766 -1.2044 -1.0804 -0.1392
19619TIP3   OH280347   3.524   4.338  11.122 -0.2862 -0.2475  0.0450
19619TIP3    H180348   3.505   4.245  11.112 -1.8659 -0.3163  2.7378
19619TIP3    H280349   3.467   4.381  11.059 -0.6667 -1.0423 -0.1624
19620TIP3   OH280350   0.434   1.446   1.384  0.0880  0.1631 -0.0255
19620TIP3    H180351   0.453   1.534   1.351 -1.1206  0.1626 -0.8359
19620TIP3    H280352   0.362   1.460   1.446  0.1728 -0.2017  0.1506
19621TIP3   OH280353   2.491   3.757  14.648  0.1140  0.1585  0.0918
19621TIP3    H180354   2.449   3.671  14.646 -2.6661  1.3933  1.1368
19621TIP3    H280355   2.462   3.800  14.568  0.1593  0.7090  0.3646
19622TIP3   OH280356   6.747   4.777  15.985 -0.0222  0.2982 -0.1484
19622TIP3    H180357   6.727   4.764  16.077  2.1610  1.3165  0.5272
19622TIP3    H280358   6.773   4.869  15.979 -2.2904  0.9268 -2.2472
19623TIP3   OH280359   6.060   6.196  11.331  0.0521 -0.4912 -0.1793
19623TIP3    H180360   6.141   6.221  11.287 -0.3660 -0.2089 -0.8043
19623TIP3    H280361   5.994   6.254  11.295 -0.5436 -1.1047 -0.1061
19624TIP3   OH280362   3.550   3.812  11.478  0.1943 -0.3065 -0.3329
19624TIP3    H180363   3.570   3.733  11.428 -1.7120 -2.0432  1.4786
19624TIP3    H280364   3.615   3.813  11.549 -1.2180 -1.6745  1.0542
19625TIP3   OH280365   2.775   1.508   4.747 -0.0865 -0.2614 -0.4415
19625TIP3    H180366   2.853   1.463   4.780 -0.2651 -0.1645  0.1179
19625TIP3    H280367   2.735   1.445   4.687 -0.5515 -1.0240  0.6364
19626TIP3   OH280368   3.581   5.801   1.402 -0.4090 -0.6144 -0.2423
19626TIP3    H180369   3.654   5.848   1.441  0.3059 -2.1232  0.3403
19626TIP3    H280370   3.530   5.868   1.358  1.3623  0.4837 -0.7353
19627TIP3   OH280371   5.587   1.950   4.729 -0.6301  0.3593 -0.6167
19627TIP3    H180372   5.667   1.969   4.679 -0.3849 -0.2764 -0.4856
19627TIP3    H280373   5.536   2.030   4.724  0.6348  1.2830  0.4896
19628TIP3   OH280374   6.497   3.552  16.896  0.3308 -0.4602 -0.1043
19628TIP3    H180375   6.547   3.628  16.924 -0.4436 -0.0909  0.3057
19628TIP3    H280376   6.563   3.485  16.878  0.8694 -0.9531  3.2064
19629TIP3   OH280377   4.948   2.716  12.457 -0.1658 -0.3129 -0.4294
19629TIP3    H180378   4.881   2.770  12.417  0.7481 -0.0995 -1.7270
19629TIP3    H280379   4.950   2.636  12.404  0.0523 -0.6604  0.0903
19630TIP3   OH280380   4.595   1.025   5.410  0.3707 -0.2468 -0.5401
19630TIP3    H180381   4.687   1.002   5.395  0.6970  0.7400 -0.1868
19630TIP3    H280382   4.582   1.012   5.504 -0.5171 -2.5434 -0.9281
19631TIP3   OH280383   4.411   3.770   1.582  0.9778  0.4852  0.7600
19631TIP3    H180384   4.461   3.734   1.509  1.9507 -2.0939  2.5336
19631TIP3    H280385   4.450   3.856   1.598  2.0578  0.2646 -0.4969
19632TIP3   OH280386   4.496   6.347  13.557  0.1607 -0.0370  0.0333
19632TIP3    H180387   4.561   6.400  13.604  1.1470 -1.5569  0.4663
19632TIP3    H280388   4.416   6.356  13.610  0.7161 -0.1361  0.9170
19633TIP3   OH280389   1.687   4.871   0.388  0.2051 -0.2000 -0.2803
19633TIP3    H180390   1.690   4.966   0.376  1.9002  0.4838  3.7461
19633TIP3    H280391   1.773   4.849   0.424 -1.1081 -2.6947  1.6603
19634TIP3   OH280392   4.437   2.336   4.559  0.0725 -0.0742 -0.2438
19634TIP3    H180393   4.400   2.340   4.647  3.0920 -0.4447  1.1779
19634TIP3    H280394   4.403   2.254   4.522 -1.1544  0.0420  0.5809
19635TIP3   OH280395   1.683   3.045  13.064 -0.3175  0.1739 -0.2802
19635TIP3    H180396   1.624   3.073  13.134 -1.5075 -0.9058 -0.8198
19635TIP3    H280397   1.629   2.992  13.006  0.3964  1.7825 -2.5573
19636TIP3   OH280398   2.526   0.897  13.377 -0.0661 -0.2923  0.4996
19636TIP3    H180399   2.562   0.812  13.350 -2.8578 -1.5715  0.3917
19636TIP3    H280400   2.476   0.877  13.457 -3.6074  0.3825 -1.3332
19637TIP3   OH280401   5.078   4.670  13.630 -0.1097  0.3953  0.3420
19637TIP3    H180402   5.153   4.674  13.571  0.6188  0.0344  1.2200
19637TIP3    H280403   5.112   4.699  13.715 -1.1674  1.0290  0.5700
19638TIP3   OH280404   1.444   0.312   3.669  0.1266 -0.0437  0.2884
19638TIP3    H180405   1.517   0.256   3.643 -0.3907 -1.7861  2.3037
19638TIP3    H280406   1.468   0.344   3.756 -1.5871 -0.8627  1.0989
19639TIP3   OH280407   1.810   3.869   2.051 -0.9079 -0.2926 -0.1763
19639TIP3    H180408   1.888   3.850   1.999  0.7675  0.2830  1.9859
19639TIP3    H280409   1.777   3.783   2.077  1.3974 -0.5679  2.1689
19640TIP3   OH280410   1.793   4.041  13.565 -0.2067  0.0039  0.1854
19640TIP3    H180411   1.860   4.104  13.539 -1.0279  0.6349 -0.4614
19640TIP3    H280412   1.740   4.029  13.487 -2.6639  1.8257  1.4246
19641TIP3   OH280413   4.290   1.310  16.669  0.1043  0.4807  0.6621
19641TIP3    H180414   4.309   1.218  16.654  1.6565  0.9778 -0.6755
19641TIP3    H280415   4.326   1.328  16.756 -1.4295 -0.4500  1.5385
19642TIP3   OH280416   6.750   0.493   6.796 -0.1255 -0.2634  0.3065
19642TIP3    H180417   6.750   0.404   6.762  1.3169 -0.2730  0.2445
19642TIP3    H280418   6.677   0.496   6.857 -0.1324 -1.5234  0.3764
19643TIP3   OH280419   5.932   4.589   0.501  0.3204 -0.1254  0.4254
19643TIP3    H180420   5.912   4.676   0.536 -1.0843  0.2467 -1.1520
19643TIP3    H280421   6.027   4.586   0.493  0.3189  1.9114 -0.9715
19644TIP3   OH280422   4.736   1.136  12.285  1.2025 -0.4625 -0.1998
19644TIP3    H180423   4.665   1.099  12.233  0.1380 -0.6517  1.3268
19644TIP3    H280424   4.803   1.159  12.220 -0.3522  0.0255 -1.7310
19645TIP3   OH280425   0.478   1.526  17.170  0.1125 -0.7170  0.1217
19645TIP3    H180426   0.485   1.436  17.137 -0.8827 -1.8124  2.6758
19645TIP3    H280427   0.394   1.558  17.137 -1.3842 -2.1849  2.2741
19646TIP3   OH280428   5.881   5.125   4.363  0.0135  0.6987  0.4886
19646TIP3    H180429   5.804   5.174   4.333  1.3689  2.6371 -0.0042
19646TIP3    H280430   5.918   5.087   4.284 -0.8233 -0.8848  0.8231
19647TIP3   OH280431   2.073   3.549   1.644  0.1247 -0.0480  0.5632
19647TIP3    H180432   2.090   3.606   1.569 -0.5090  2.2314  2.0531
19647TIP3    H280433   1.996   3.497   1.619  1.2996 -1.0602 -1.1992
19648TIP3   OH280434   5.933   4.635  17.104  0.5133 -0.4979 -0.2237
19648TIP3    H180435   6.011   4.690  17.111 -0.6738  1.2141  0.2354
19648TIP3    H280436   5.902   4.648  17.014  0.5517 -0.8852 -0.2942
19649TIP3   OH280437   2.655   3.609  13.954  0.3553 -1.3586 -0.1941
19649TIP3    H180438   2.727   3.671  13.944 -0.9323  0.0542 -1.3104
19649TIP3    H280439   2.636   3.608  14.048  0.7414 -0.4699 -0.1008
19650TIP3   OH280440   6.180   1.592   1.456 -0.6134  0.1868  0.2819
19650TIP3    H180441   6.187   1.688   1.455  0.0155  0.1518  0.5480
19650TIP3    H280442   6.110   1.573   1.518 -0.1000  0.4480  0.9469
19651TIP3   OH280443   3.087   3.767   4.538  0.4006 -0.2191  0.0374
19651TIP3    H180444   3.109   3.858   4.562  0.8284  0.1477 -1.6455
19651TIP3    H280445   3.023   3.740   4.604 -0.1218  1.4814  0.2752
19652TIP3   OH280446   5.709   1.728  12.982 -0.0962 -0.0673 -0.1324
19652TIP3    H180447   5.785   1.730  13.040  0.5518  1.5357 -0.9743
19652TIP3    H280448   5.739   1.771  12.902 -1.6284 -0.2009 -0.8094
19653TIP3   OH280449   2.821   4.904   3.924  0.5440  0.3404 -0.1904
19653TIP3    H180450   2.780   4.972   3.979  1.5303  0.9231 -0.1568
19653TIP3    H280451   2.798   4.822   3.967 -1.2714  0.5705 -0.6165
19654TIP3   OH280452   3.648   4.449   4.896 -0.0502  0.3967  0.5720
19654TIP3    H180453   3.735   4.450   4.936  0.2079  1.2247  0.0174
19654TIP3    H280454   3.594   4.501   4.955 -0.4747 -1.0442  1.5190
19655TIP3   OH280455   1.194   5.417  13.261 -0.3432  0.0422  0.4788
19655TIP3    H180456   1.144   5.337  13.245  1.1477 -1.1139  1.2597
19655TIP3    H280457   1.187   5.467  13.180  1.1380 -2.3040 -1.2357
19656TIP3   OH280458   2.353   1.506  13.831  0.2532 -0.3686 -0.2210
19656TIP3    H180459   2.438   1.485  13.870  0.4207  1.6177  0.6330
19656TIP3    H280460   2.375   1.548  13.748  0.3016  2.0128  0.8971
19657TIP3   OH280461   2.242   5.281   0.751  0.2748  0.1190 -0.4067
19657TIP3    H180462   2.221   5.214   0.817  0.5899 -1.4430 -1.8316
19657TIP3    H280463   2.259   5.360   0.803  1.4079 -1.2524  1.4823
19658TIP3   OH280464   4.514   4.648   0.828 -0.3458 -0.2540  0.1292
19658TIP3    H180465   4.519   4.553   0.822 -1.9597 -0.4366  1.0658
19658TIP3    H280466   4.603   4.676   0.852  0.2701 -1.4575 -0.6914
19659TIP3   OH280467   1.630   5.308  16.304 -0.2973 -0.1304 -0.0692
19659TIP3    H180468   1.709   5.320  16.252 -0.4050 -0.1828 -0.2464
19659TIP3    H280469   1.661   5.300  16.394 -0.1126 -0.0077 -0.1217
19660TIP3   OH280470   2.775   2.794  11.722 -0.3072  0.3566  0.1406
19660TIP3    H180471   2.782   2.726  11.789  2.1152  1.5417  1.2471
19660TIP3    H280472   2.730   2.866  11.766 -3.5857 -0.6634 -1.2647
19661TIP3   OH280473   2.940   6.065  12.805  0.1108 -0.3110 -0.4954
19661TIP3    H180474   2.867   6.012  12.774 -0.2357 -0.4037  0.4485
19661TIP3    H280475   2.925   6.075  12.899  0.0100  1.6680 -0.6650
19662TIP3   OH280476   4.731   6.278  17.125 -0.2947 -0.1009  0.3954
19662TIP3    H180477   4.787   6.256  17.199 -0.1790 -1.5637 -0.1114
19662TIP3    H280478   4.642   6.274  17.160 -0.1531  2.4760  1.2690
19663TIP3   OH280479   0.869   3.542   2.632  0.3128 -0.4580 -0.2699
19663TIP3    H180480   0.826   3.614   2.588 -1.1904 -1.7418 -0.9799
19663TIP3    H280481   0.957   3.575   2.653  0.1992  1.0133 -1.9702
19664TIP3   OH280482   3.040   5.738   1.261 -0.4076  0.1542  0.2733
19664TIP3    H180483   2.991   5.662   1.292 -0.0936 -0.2392 -0.1736
19664TIP3    H280484   3.129   5.705   1.248 -0.2872  0.5795  0.0081
19665TIP3   OH280485   5.196   5.961   2.638  0.4001 -0.0610  0.2299
19665TIP3    H180486   5.224   6.003   2.557  0.1416 -2.4263 -1.2001
19665TIP3    H280487   5.268   5.975   2.699  2.0809 -0.9101 -1.4605
19666TIP3   OH280488   1.060   5.449  15.569  0.9021 -0.9159 -0.0663
19666TIP3    H180489   1.131   5.424  15.510  0.5142  0.0471 -0.9565
19666TIP3    H280490   1.017   5.522  15.526 -1.0427 -1.8751  0.1375
19667TIP3   OH280491   3.136   4.790  14.016  0.2350  0.1116 -0.0530
19667TIP3    H180492   3.146   4.867  13.960 -0.7391  0.4532  0.2223
19667TIP3    H280493   3.051   4.802  14.058 -0.3498 -1.5463 -0.6687
19668TIP3   OH280494   5.918   0.428  13.049  0.0029  0.6539 -0.4061
19668TIP3    H180495   5.959   0.377  13.119 -1.5334  2.3986  1.9475
19668TIP3    H280496   5.867   0.363  13.000  1.2640 -0.6634 -0.0626
19669TIP3   OH280497   5.375   5.871   5.107 -0.1375 -0.2535 -0.3468
19669TIP3    H180498   5.371   5.967   5.098 -1.2902  0.1499  2.9270
19669TIP3    H280499   5.465   5.848   5.085  0.6851  1.8655  0.5448
19670TIP3   OH280500   6.569   4.416  15.042  0.3840  0.6352 -0.2464
19670TIP3    H180501   6.520   4.462  14.975 -0.4963 -1.0657 -0.8275
19670TIP3    H280502   6.508   4.408  15.115 -0.3554 -1.6143 -1.0245
19671TIP3   OH280503   0.096   1.276  13.988  0.0832  0.3726 -0.3451
19671TIP3    H180504   0.060   1.206  14.042 -0.2879  1.5255  0.9447
19671TIP3    H280505   0.035   1.349  14.000  0.3762  0.8835 -1.7853
19672TIP3   OH280506   1.811   3.447  12.862 -0.0365  0.2225  0.3740
19672TIP3    H180507   1.844   3.428  12.774 -1.3095  0.3439 -0.1555
19672TIP3    H280508   1.860   3.388  12.920  0.8113  0.1372 -0.4133
19673TIP3   OH280509   2.548   4.665   3.548 -0.2747 -1.1570  0.0082
19673TIP3    H180510   2.566   4.746   3.596  0.5213 -1.2655 -0.0859
19673TIP3    H280511   2.456   4.647   3.564 -1.4171  1.5245 -2.6055
19674TIP3   OH280512   6.183   4.262   4.023 -0.1414 -0.8151 -0.4269
19674TIP3    H180513   6.092   4.247   3.998  0.3297  0.3287 -3.2504
19674TIP3    H280514   6.228   4.277   3.940  2.8881 -2.5098  0.7625
19675TIP3   OH280515   6.320   4.523  11.244 -0.1354  0.2715  0.3104
19675TIP3    H180516   6.380   4.460  11.205 -0.7804 -1.0879  1.3909
19675TIP3    H280517   6.235   4.504  11.203 -0.2905  0.5725  0.4857
19676TIP3   OH280518   0.601   0.074   2.996  0.0938 -0.3321  0.2046
19676TIP3    H180519   0.673   0.068   3.059  1.2399  0.6433 -0.9558
19676TIP3    H280520   0.636   0.127   2.925 -0.9479 -1.8622 -1.5435
19677TIP3   OH280521   2.491   0.914  13.792 -0.2352 -0.1446  0.0571
19677TIP3    H180522   2.440   0.964  13.727 -0.6574  0.5108  0.8638
19677TIP3    H280523   2.551   0.978  13.829  1.1840 -0.9080 -0.8534
19678TIP3   OH280524   2.866   4.250   0.619 -0.0717 -0.5673  0.3848
19678TIP3    H180525   2.926   4.324   0.633 -1.0369  0.3223 -0.0605
19678TIP3    H280526   2.825   4.237   0.704  0.0111 -0.5202  0.4326
19679TIP3   OH280527   4.818   5.724  10.893 -0.1310 -0.8396  0.6391
19679TIP3    H180528   4.796   5.739  10.801  1.9893 -0.7735  0.1074
19679TIP3    H280529   4.745   5.672  10.926 -0.6781 -1.3395 -1.2175
19680TIP3   OH280530   2.530   3.342  11.461  0.6821 -0.5160  0.1822
19680TIP3    H180531   2.510   3.259  11.415 -1.8975  0.0804  0.0341
19680TIP3    H280532   2.482   3.335  11.544  1.7892  0.1781  0.8956
19681TIP3   OH280533   6.566   4.264  14.180 -0.3962  0.2207 -0.2412
19681TIP3    H180534   6.507   4.190  14.194 -1.8176  1.3213 -0.1464
19681TIP3    H280535   6.514   4.341  14.203  0.5292  1.3718 -1.7536
19682TIP3   OH280536   6.736   3.061   4.766  0.4754  0.1082 -0.4471
19682TIP3    H180537   6.702   2.987   4.715 -0.9787 -0.0717  0.7016
19682TIP3    H280538   6.658   3.099   4.807  1.5126  0.6159  1.1431
19683TIP3   OH280539   1.549   1.969   6.571 -0.6057  0.3191 -0.3821
19683TIP3    H180540   1.543   1.953   6.477 -1.7622 -1.2729 -0.0740
19683TIP3    H280541   1.577   2.060   6.578  0.0335  0.3092 -2.2590
19684TIP3   OH280542   5.529   6.552  11.420 -0.3168 -0.3025  0.3854
19684TIP3    H180543   5.557   6.602  11.496 -0.9185 -0.9706  1.0601
19684TIP3    H280544   5.591   6.479  11.415  1.0663  0.8943 -1.0809
19685TIP3   OH280545   6.197   1.614  14.978  0.0451 -0.3566  0.1028
19685TIP3    H180546   6.116   1.580  14.940 -1.0158  1.2916  0.7991
19685TIP3    H280547   6.176   1.628  15.070  1.1547  0.0358  0.3076
19686TIP3   OH280548   0.645   6.066  15.931 -0.0699 -0.1906  0.5241
19686TIP3    H180549   0.578   6.015  15.976 -0.3880 -0.5805 -0.3650
19686TIP3    H280550   0.682   6.005  15.867  0.7950  0.1692  0.6621
19687TIP3   OH280551   1.582   1.629  16.280  0.6924 -0.0666  0.5828
19687TIP3    H180552   1.486   1.622  16.276  0.8181 -1.3007 -0.4993
19687TIP3    H280553   1.601   1.715  16.243  0.0629 -0.2559 -0.1948
19688TIP3   OH280554   2.122   4.001   3.812 -0.4922  0.7135 -0.7844
19688TIP3    H180555   2.158   3.934   3.755 -0.1395  1.1844 -1.1234
19688TIP3    H280556   2.145   3.973   3.900 -3.0677 -1.2819 -0.6069
19689TIP3   OH280557   2.880   6.285  12.665  0.0357 -0.2300  0.1997
19689TIP3    H180558   2.902   6.225  12.737 -0.8855  1.8699  2.3554
19689TIP3    H280559   2.785   6.279  12.658  0.1594 -0.8290 -1.2979
19690TIP3   OH280560   0.667   0.480   6.823  0.2820 -0.1526 -0.5818
19690TIP3    H180561   0.639   0.484   6.915  1.2577  0.6902 -0.3003
19690TIP3    H280562   0.586   0.470   6.774 -0.2645 -0.5637  0.3649
19691TIP3   OH280563   0.106   0.332   5.610  0.1989 -0.5181  0.0972
19691TIP3    H180564   0.186   0.342   5.558  0.4685  0.6460  0.7029
19691TIP3    H280565   0.041   0.302   5.547  0.7147  0.0928 -0.7550
19692TIP3   OH280566   2.163   0.696  14.535  0.6547 -0.5728  0.4455
19692TIP3    H180567   2.103   0.759  14.495  1.1199  0.3795  1.2111
19692TIP3    H280568   2.190   0.639  14.463  1.7728  1.3387 -0.7384
19693TIP3   OH280569   0.627   4.508   2.347  0.3877  0.1921 -0.5717
19693TIP3    H180570   0.689   4.547   2.409  2.4698 -1.5766 -1.3649
19693TIP3    H280571   0.578   4.445   2.400 -0.6636  1.4741  0.0298
19694TIP3   OH280572   3.380   4.316   6.376 -0.4339 -0.1463 -0.3331
19694TIP3    H180573   3.459   4.312   6.431  0.8789  1.1442 -1.9976
19694TIP3    H280574   3.330   4.390   6.412 -0.4251 -0.3791  0.1636
19695TIP3   OH280575   2.724   2.513  11.402  1.0157 -0.4735 -0.4522
19695TIP3    H180576   2.735   2.472  11.488  2.4237  1.1511  0.1801
19695TIP3    H280577   2.810   2.509  11.362  0.8795  0.7284 -0.8915
19696TIP3   OH280578   2.540   4.833   2.654  0.0397  0.4839  0.6586
19696TIP3    H180579   2.584   4.836   2.739  3.0595 -0.8225 -0.6992
19696TIP3    H280580   2.502   4.920   2.644  1.2874  1.3357  2.5153
19697TIP3   OH280581   2.476   2.129   1.392  0.1125  0.7874 -0.7178
19697TIP3    H180582   2.403   2.186   1.368 -0.5631 -0.2355 -1.1685
19697TIP3    H280583   2.539   2.138   1.321  0.1853  1.2549 -0.5981
19698TIP3   OH280584   4.790   1.814   4.229 -0.1249 -0.1649 -0.3903
19698TIP3    H180585   4.768   1.724   4.203 -0.5778 -0.0656 -0.3666
19698TIP3    H280586   4.833   1.804   4.314  0.1761 -0.3896 -0.5675
19699TIP3   OH280587   0.035   4.011  13.067 -0.1838  0.5555 -0.2947
19699TIP3    H180588   0.004   4.038  12.981 -0.3497  0.5924 -0.2242
19699TIP3    H280589   0.124   3.977  13.052 -0.5427 -0.2761 -0.6240
19700TIP3   OH280590   3.570   6.598   4.164 -0.1532  0.1026 -0.6213
19700TIP3    H180591   3.631   6.623   4.095  0.3494 -0.2746 -0.3254
19700TIP3    H280592   3.622   6.544   4.223 -0.3445  1.1529  0.5343
19701TIP3   OH280593   3.244   0.962   0.179  0.3586  0.0809  0.0652
19701TIP3    H180594   3.150   0.951   0.194  0.4244 -0.1221  0.3443
19701TIP3    H280595   3.252   0.981   0.086  0.0986 -0.5941 -0.1018
19702TIP3   OH280596   4.763   1.891  15.375  0.6299  0.2744  0.2298
19702TIP3    H180597   4.715   1.967  15.408  1.6012  1.4160 -0.8535
19702TIP3    H280598   4.744   1.821  15.437  2.8886  2.4173  3.6430
19703TIP3   OH280599   1.232   4.114   4.212 -0.1382 -0.2723 -0.4509
19703TIP3    H180600   1.172   4.142   4.143 -1.0514 -0.9022  0.0581
19703TIP3    H280601   1.219   4.020   4.218 -1.4698 -0.0118  1.8047
19704TIP3   OH280602   3.242   1.867  14.152 -0.3568  0.3257  0.3427
19704TIP3    H180603   3.319   1.817  14.179 -0.1957  1.2560  1.7468
19704TIP3    H280604   3.192   1.807  14.098 -0.3739 -1.5192  2.2898
19705TIP3   OH280605   3.452   1.482  12.164  0.1676 -0.3398 -0.8398
19705TIP3    H180606   3.406   1.477  12.080  0.4060 -2.0900 -0.8866
19705TIP3    H280607   3.544   1.470  12.141  0.1923 -1.2498 -0.2981
19706TIP3   OH280608   3.552   1.555   1.724  0.3768  0.2831 -0.2146
19706TIP3    H180609   3.558   1.642   1.762  0.1930  0.6812 -1.0913
19706TIP3    H280610   3.560   1.496   1.799 -0.7187  1.0667  0.5384
19707TIP3   OH280611   4.079   0.267   0.121 -0.5616  0.2702  0.0220
19707TIP3    H180612   4.042   0.355   0.107  0.7458  0.5737 -1.8856
19707TIP3    H280613   4.051   0.217   0.045 -0.9147 -0.8798  0.8759
19708TIP3   OH280614   5.837   1.863  12.763 -1.2195 -0.1174  0.2107
19708TIP3    H180615   5.798   1.950  12.772  0.2158  0.6055 -0.2304
19708TIP3    H280616   5.845   1.850  12.668 -1.3097 -0.6890  0.2753
19709TIP3   OH280617   2.378   0.489  13.252  0.1857 -0.1199 -0.4410
19709TIP3    H180618   2.317   0.422  13.222  1.3256 -0.7705 -1.3713
19709TIP3    H280619   2.367   0.560  13.188  1.2738 -0.7507 -1.3667
19710TIP3   OH280620   3.191   4.447   2.417 -0.7361 -0.0106  0.5145
19710TIP3    H180621   3.157   4.537   2.411 -1.2671 -0.0589  2.3382
19710TIP3    H280622   3.173   4.410   2.330  0.7173  2.0143 -0.7492
19711TIP3   OH280623   5.706   3.741  15.771 -0.6178  0.0867 -0.0210
19711TIP3    H180624   5.673   3.731  15.681  0.7206 -0.0833 -0.5089
19711TIP3    H280625   5.766   3.667  15.782 -0.6727  0.1822  0.9826
19712TIP3   OH280626   6.538   2.249  15.305 -0.1801 -0.0471 -0.2628
19712TIP3    H180627   6.537   2.153  15.305  2.2104 -0.1488 -1.5512
19712TIP3    H280628   6.548   2.273  15.397 -0.6414 -1.0284  0.0591
19713TIP3   OH280629   5.347   1.718  16.106 -0.1549  0.1130  0.2567
19713TIP3    H180630   5.393   1.688  16.185  1.5058 -1.2638 -1.1412
19713TIP3    H280631   5.279   1.652  16.092 -0.4978  0.3981  0.5716
19714TIP3   OH280632   6.328   2.894  11.151 -0.2516  0.0592 -0.0278
19714TIP3    H180633   6.348   2.820  11.207 -0.3115 -0.2764 -0.4451
19714TIP3    H280634   6.403   2.901  11.092  0.4848  1.2908  0.9956
19715TIP3   OH280635   4.779   0.839   6.071  0.3494 -0.3579 -0.2434
19715TIP3    H180636   4.730   0.839   6.153  0.4997 -2.4573 -0.1002
19715TIP3    H280637   4.860   0.792   6.092  1.3410  0.8989 -1.1012
19716TIP3   OH280638   1.742   0.787   3.562 -0.1840 -0.0043 -0.3237
19716TIP3    H180639   1.682   0.837   3.507  0.9512 -0.1521 -1.7404
19716TIP3    H280640   1.775   0.718   3.505 -0.7269 -1.6185  1.2257
19717TIP3   OH280641   1.569   3.383   1.234 -0.1737  0.0367  0.0994
19717TIP3    H180642   1.570   3.288   1.226  1.2565 -0.1086  1.4632
19717TIP3    H280643   1.652   3.412   1.196  0.7831  0.4226  2.3395
19718TIP3   OH280644   1.683   1.863   5.004  0.0998  0.2426 -0.2127
19718TIP3    H180645   1.705   1.919   4.929  0.4940  0.4456  0.0476
19718TIP3    H280646   1.731   1.782   4.988 -0.5863 -0.0795 -0.6633
19719TIP3   OH280647   1.269   5.774  15.887  0.6963 -0.2807  0.4070
19719TIP3    H180648   1.334   5.751  15.821  1.1246  1.8170  0.0248
19719TIP3    H280649   1.314   5.835  15.945 -0.8554  1.1547  0.1879
19720TIP3   OH280650   6.530   6.518  15.628  0.0153  0.2432 -0.0071
19720TIP3    H180651   6.453   6.564  15.595 -0.8107 -0.5792  0.7119
19720TIP3    H280652   6.494   6.446  15.681  1.2794  0.0544  0.6304
19721TIP3   OH280653   4.606   0.671  13.763 -0.2374  0.2254 -0.1352
19721TIP3    H180654   4.565   0.712  13.839 -0.9127 -3.0641  1.4211
19721TIP3    H280655   4.698   0.660  13.787  0.1751  1.5734 -0.9546
19722TIP3   OH280656   4.281   3.026   5.206 -0.0600 -0.0762 -0.1686
19722TIP3    H180657   4.371   3.044   5.182  0.4821  0.4128  1.9676
19722TIP3    H280658   4.263   2.938   5.172  0.3173  0.7883 -2.8044
19723TIP3   OH280659   4.968   1.603   0.979  0.2829  0.2650  0.0659
19723TIP3    H180660   4.979   1.627   1.071 -1.3008 -0.6232  0.5305
19723TIP3    H280661   4.907   1.668   0.945  2.9963  2.3511 -1.2112
19724TIP3   OH280662   1.542   2.615   3.807 -0.3503  0.2352 -0.3544
19724TIP3    H180663   1.518   2.604   3.899 -0.5512  1.1769 -0.2829
19724TIP3    H280664   1.493   2.692   3.779  0.7025  0.7286 -0.8893
19725TIP3   OH280665   2.748   1.900  14.689  0.6538  0.1532  0.0899
19725TIP3    H180666   2.747   1.823  14.633  0.6541 -0.6886  1.2243
19725TIP3    H280667   2.655   1.920  14.704  0.6294 -0.9179  1.5072
19726TIP3   OH280668   4.076   2.899   1.952 -0.3647  0.1085 -0.5044
19726TIP3    H180669   3.988   2.861   1.945 -0.3974 -0.4148  1.8921
19726TIP3    H280670   4.135   2.824   1.945 -0.0790  0.4355 -1.9060
19727TIP3   OH280671   0.684   5.952  14.535 -0.3699  0.7113  0.4681
19727TIP3    H180672   0.724   5.866  14.529  0.6248  1.0169  2.0615
19727TIP3    H280673   0.733   5.997  14.604  0.7727  3.4297 -1.8674
19728TIP3   OH280674   0.357   6.726  15.488  0.0623 -0.0325 -0.3890
19728TIP3    H180675   0.284   6.735  15.427 -0.7681 -0.4156  0.5210
19728TIP3    H280676   0.365   6.632  15.503  2.4483 -0.2784 -2.4412
19729TIP3   OH280677   4.007   5.690  13.377  0.1456 -0.0425  0.2124
19729TIP3    H180678   4.037   5.645  13.298  1.1212  0.6943  0.1425
19729TIP3    H280679   3.995   5.781  13.350 -0.4406  0.0300  0.6878
19730TIP3   OH280680   4.817   4.027  12.178  0.7361  0.1226 -0.1754
19730TIP3    H180681   4.792   4.041  12.270  1.8597 -0.5660  0.2584
19730TIP3    H280682   4.755   4.080  12.128 -0.4147 -0.1350  0.9378
19731TIP3   OH280683   6.149   0.882   0.243 -0.0222 -0.2603  0.2762
19731TIP3    H180684   6.146   0.800   0.195 -0.4086 -0.2544  0.2912
19731TIP3    H280685   6.107   0.864   0.326 -0.1596 -0.0318  0.2576
19732TIP3   OH280686   0.090   0.546   6.094 -0.4748  1.0686  0.4025
19732TIP3    H180687   0.168   0.577   6.139 -0.0676  0.7917 -0.1041
19732TIP3    H280688   0.033   0.623   6.091  0.1074  1.4987  0.0627
19733TIP3   OH280689   6.520   4.896   2.514  0.4810 -0.0938  0.2534
19733TIP3    H180690   6.486   4.809   2.537 -1.4205  0.7918  1.0317
19733TIP3    H280691   6.443   4.953   2.518  2.0759  2.1278  2.4208
19734TIP3   OH280692   0.966   6.240  14.353  0.4133  0.0085  0.7472
19734TIP3    H180693   0.967   6.149  14.323  0.3042  0.1999  0.1496
19734TIP3    H280694   1.058   6.266  14.355  0.3501  0.5737 -1.2746
19735TIP3   OH280695   1.238   0.857  13.380  0.4659  0.5390 -0.0428
19735TIP3    H180696   1.309   0.861  13.316 -0.5252  0.5307 -1.1932
19735TIP3    H280697   1.200   0.770  13.367 -0.1313  0.7706  0.1225
19736TIP3   OH280698   1.884   1.248   2.876  0.3529 -0.3303 -0.0958
19736TIP3    H180699   1.845   1.250   2.789 -3.2068 -0.6935  1.3351
19736TIP3    H280700   1.969   1.206   2.864 -0.9798 -2.4874 -3.0696
19737TIP3   OH280701   2.728   4.091   2.907 -0.0776 -0.0202 -0.0013
19737TIP3    H180702   2.716   4.072   2.814 -1.8110 -1.4418  0.4511
19737TIP3    H280703   2.664   4.159   2.926  0.3709  0.3677  0.1338
19738TIP3   OH280704   5.730   0.249  10.463  0.5758 -0.3513  0.4731
19738TIP3    H180705   5.717   0.163  10.502  0.8774  0.1512  1.7159
19738TIP3    H280706   5.650   0.264  10.412 -1.5630  0.4193  3.7025
19739TIP3   OH280707   0.216   6.399   6.617 -0.6445  0.1055  0.5863
19739TIP3    H180708   0.285   6.443   6.667 -1.2545 -1.3845  2.9195
19739TIP3    H280709   0.135   6.441   6.646 -1.3125 -2.6789  3.3451
19740TIP3   OH280710   6.623   3.002  12.992 -0.2881  0.8146 -0.4288
19740TIP3    H180711   6.660   3.062  12.928  0.3509  0.6033 -0.2644
19740TIP3    H280712   6.537   2.978  12.956  0.0592  0.7010 -1.1993
19741TIP3   OH280713   4.553   6.281  16.325  0.1849  0.1856 -0.4204
19741TIP3    H180714   4.540   6.357  16.382  1.0134  0.9002 -1.1610
19741TIP3    H280715   4.635   6.299  16.280  1.5621 -2.1860  0.9550
19742TIP3   OH280716   5.847   3.089   5.761  0.4586  0.0862  0.0377
19742TIP3    H180717   5.832   3.067   5.853 -0.4518 -0.4730 -0.2312
19742TIP3    H280718   5.765   3.128   5.732  0.9184  0.7397 -0.4104
19743TIP3   OH280719   1.966   5.083  13.398  0.3082 -0.5406 -0.4741
19743TIP3    H180720   2.046   5.113  13.440  0.2292  0.8949 -1.2914
19743TIP3    H280721   1.940   5.005  13.447  1.3182 -0.0907  0.8044
19744TIP3   OH280722   5.058   2.558   5.919 -0.4766  0.1199  0.0124
19744TIP3    H180723   5.002   2.552   5.997 -1.0573 -0.5592 -0.4507
19744TIP3    H280724   5.015   2.504   5.854 -0.9495  2.0440 -1.3782
19745TIP3   OH280725   4.370   0.417   5.999 -0.3551  0.3386 -0.1724
19745TIP3    H180726   4.455   0.417   6.042  0.2916 -1.2030 -1.3433
19745TIP3    H280727   4.307   0.411   6.070  0.6064 -0.5276  0.6410
19746TIP3   OH280728   3.287   5.614   5.162 -0.2925  0.1044 -0.4893
19746TIP3    H180729   3.310   5.541   5.104  0.7372 -0.2781  0.3660
19746TIP3    H280730   3.361   5.674   5.157  0.0789 -0.2092  0.8420
19747TIP3   OH280731   2.092   1.619  11.626 -0.2530 -0.2995 -0.1929
19747TIP3    H180732   2.172   1.671  11.633 -0.4848 -0.1054  1.4314
19747TIP3    H280733   2.081   1.605  11.532  1.1299  0.5256 -0.5121
19748TIP3   OH280734   2.338   0.063  12.840 -0.2152 -0.5698  0.1674
19748TIP3    H180735   2.389  -0.019  12.838  0.8777  0.0285  1.6319
19748TIP3    H280736   2.284   0.056  12.918  0.5786  0.4696  0.8401
19749TIP3   OH280737   1.810   2.982  11.861  0.0185 -0.3328 -1.0834
19749TIP3    H180738   1.780   2.926  11.790 -1.3293 -0.1808 -0.6610
19749TIP3    H280739   1.757   3.061  11.853 -0.3012 -0.3968  0.2130
19750TIP3   OH280740   1.781   6.655  12.987 -0.1468 -0.1401 -0.1654
19750TIP3    H180741   1.720   6.583  13.002 -0.3205 -0.2353 -1.2899
19750TIP3    H280742   1.812   6.643  12.898  2.2612 -0.6492  0.6487
19751TIP3   OH280743   3.655   4.908  16.220 -0.0247 -0.0951  0.4790
19751TIP3    H180744   3.585   4.844  16.232 -0.3317  0.1839  0.1985
19751TIP3    H280745   3.687   4.926  16.308 -1.3124  0.8867  0.7899
19752TIP3   OH280746   4.475   1.556  10.413  0.5404 -0.6419 -0.1361
19752TIP3    H180747   4.473   1.474  10.364 -1.3504 -0.4744 -0.4286
19752TIP3    H280748   4.382   1.578  10.426  0.9950  1.3559  0.0640
19753TIP3   OH280749   5.256   1.654  11.478 -0.1447  0.2984 -0.4249
19753TIP3    H180750   5.308   1.700  11.412 -1.1938  1.2653 -0.5983
19753TIP3    H280751   5.287   1.689  11.562  0.1265  0.1883 -0.4791
19754TIP3   OH280752   5.081   0.941  16.836  0.2118  0.0096 -0.1573
19754TIP3    H180753   5.147   0.955  16.904  1.5226  1.4731 -1.6582
19754TIP3    H280754   5.101   0.855  16.800  2.2559  0.9772 -1.5089
19755TIP3   OH280755   4.310   0.132   2.387 -0.4793 -0.5043 -0.4607
19755TIP3    H180756   4.252   0.196   2.347  1.1938  1.5239  0.1997
19755TIP3    H280757   4.278   0.047   2.355 -0.9297  0.7836 -3.8791
19756TIP3   OH280758   5.970   5.419  17.213  0.2857  0.3512  0.8777
19756TIP3    H180759   6.013   5.363  17.149 -3.1756 -0.6540 -0.8066
19756TIP3    H280760   5.926   5.358  17.272 -1.8338  1.1956  0.2589
19757TIP3   OH280761   4.056   0.378   0.998 -0.4970 -0.2878  0.3019
19757TIP3    H180762   4.073   0.290   1.032  2.3787  0.6681  1.7257
19757TIP3    H280763   4.028   0.429   1.075  0.7354  0.6567  0.1682
19758TIP3   OH280764   0.431   0.605   6.013 -0.6433 -0.5176  0.4447
19758TIP3    H180765   0.414   0.624   6.105 -1.6503 -0.6558  0.2925
19758TIP3    H280766   0.408   0.512   6.003 -1.8789 -0.1604 -0.2390
19759TIP3   OH280767   3.206   1.082  16.679 -0.4104  0.0327  0.0118
19759TIP3    H180768   3.117   1.114  16.665 -0.5510 -0.3915 -0.0558
19759TIP3    H280769   3.250   1.154  16.725 -0.4079  0.7612 -1.1128
19760TIP3   OH280770   0.063   6.462   5.606 -0.3703 -0.0471  0.1931
19760TIP3    H180771   0.028   6.453   5.694  1.0604  0.9346  0.8988
19760TIP3    H280772   0.083   6.555   5.597  1.3017 -0.4273 -0.4313
19761TIP3   OH280773   2.859   2.773  17.169 -0.1791  0.3662  0.2491
19761TIP3    H180774   2.933   2.715  17.187 -0.7973 -0.6437 -0.4273
19761TIP3    H280775   2.875   2.806  17.081 -0.3905  0.3768  0.2153
19762TIP3   OH280776   2.458   0.395   2.069  0.3715 -0.1425 -0.7769
19762TIP3    H180777   2.551   0.416   2.078  0.4872 -0.1681 -1.7332
19762TIP3    H280778   2.455   0.299   2.069  0.6039 -0.1906 -2.7201
19763TIP3   OH280779   6.292   5.186  10.357  0.5519 -0.7028 -0.0107
19763TIP3    H180780   6.226   5.141  10.305 -0.1527 -0.6672  0.8333
19763TIP3    H280781   6.248   5.206  10.440  0.4451  2.5377 -0.7106
19764TIP3   OH280782   1.473   0.622  13.823 -0.7458 -0.3827  0.6397
19764TIP3    H180783   1.440   0.706  13.793  3.5372  1.7770  1.2118
19764TIP3    H280784   1.477   0.630  13.918  0.3747 -0.9181  0.6560
19765TIP3   OH280785   4.068   1.114   5.453 -0.0759 -0.3491 -0.0146
19765TIP3    H180786   4.117   1.192   5.479  1.4998 -1.7447  1.5469
19765TIP3    H280787   4.111   1.085   5.372  0.6277 -0.6143  0.4344
19766TIP3   OH280788   2.047   5.001  11.158 -0.0815  0.2521 -0.1940
19766TIP3    H180789   1.973   4.987  11.217  1.1902  0.4773  1.5595
19766TIP3    H280790   2.061   4.916  11.116 -0.2066 -0.3006  0.8508
19767TIP3   OH280791   3.283   3.273  15.944  0.1693  0.2784  0.0322
19767TIP3    H180792   3.371   3.246  15.918  0.7331  2.1924 -0.1826
19767TIP3    H280793   3.225   3.215  15.895  1.2796 -1.0284  0.1792
19768TIP3   OH280794   2.403   2.193   4.706 -0.3756  0.4449  0.4575
19768TIP3    H180795   2.402   2.174   4.800 -1.6091 -0.5164  0.2850
19768TIP3    H280796   2.410   2.107   4.665 -0.8673  0.7742 -0.3355
19769TIP3   OH280797   4.805   5.308  10.935 -0.1384  0.6540  0.1543
19769TIP3    H180798   4.797   5.217  10.965 -1.4231  0.6429 -0.1297
19769TIP3    H280799   4.899   5.327  10.937  0.0141 -0.1773  1.6611
19770TIP3   OH280800   3.686   6.435   1.066 -0.0157  0.2730 -0.3738
19770TIP3    H180801   3.778   6.419   1.087 -0.0672  1.0069  0.4731
19770TIP3    H280802   3.688   6.505   1.001  0.0368 -0.1536 -0.8422
19771TIP3   OH280803   3.728   0.295  13.984  0.6830  0.5488  0.1267
19771TIP3    H180804   3.750   0.265  14.073  0.4160 -0.2743 -0.0733
19771TIP3    H280805   3.648   0.347  13.996 -0.1380 -0.6714  0.2269
19772TIP3   OH280806   5.518   5.687  15.112  0.0277 -0.5406  0.4496
19772TIP3    H180807   5.541   5.667  15.203 -1.4693 -0.6755  0.8265
19772TIP3    H280808   5.592   5.655  15.061  0.7768 -0.7009  1.6025
19773TIP3   OH280809   3.959   6.000  15.656  0.7771 -0.4070  0.2582
19773TIP3    H180810   3.967   6.050  15.575 -2.2934  0.7077  0.4861
19773TIP3    H280811   3.924   6.063  15.719  1.1730 -1.7515  1.9078
19774TIP3   OH280812   2.260   6.422   3.002 -0.3122 -0.0998 -0.4640
19774TIP3    H180813   2.216   6.385   2.925 -2.0935 -1.6606  1.1809
19774TIP3    H280814   2.280   6.346   3.056 -2.2681  1.1096  2.1581
19775TIP3   OH280815   5.216   3.957   1.053 -0.1521 -0.1640 -0.5263
19775TIP3    H180816   5.144   4.018   1.037 -0.8767 -0.8687 -0.0164
19775TIP3    H280817   5.207   3.933   1.145  2.4387  1.8952  0.3876
19776TIP3   OH280818   4.103   1.856  10.749 -0.0675 -0.0318  0.2607
19776TIP3    H180819   4.147   1.771  10.743 -0.5357 -0.2087 -0.9266
19776TIP3    H280820   4.162   1.910  10.803  1.9206 -0.0891 -1.7259
19777TIP3   OH280821   5.534   6.342  10.905 -0.5932  0.1436 -0.7155
19777TIP3    H180822   5.502   6.377  10.988  1.1365  0.0722  0.0174
19777TIP3    H280823   5.464   6.284  10.876 -0.7229 -0.8420  1.3608
19778TIP3   OH280824   1.749   0.276   1.101  0.1477  0.7463  0.3505
19778TIP3    H180825   1.844   0.277   1.113  0.1686  0.4280  0.1979
19778TIP3    H280826   1.730   0.193   1.057  0.1336  2.1523 -2.5267
19779TIP3   OH280827   3.698   4.015  15.536 -0.2906 -0.2015 -0.0682
19779TIP3    H180828   3.729   4.029  15.625 -1.2524  1.0200  0.1011
19779TIP3    H280829   3.726   4.092  15.488  0.0636 -0.7671 -0.7902
19780TIP3   OH280830   1.278   3.998   2.417 -0.4486 -0.5633  0.7504
19780TIP3    H180831   1.204   3.993   2.477 -1.3813  1.4344 -0.1561
19780TIP3    H280832   1.351   4.027   2.471 -0.3969 -2.0584  1.5452
19781TIP3   OH280833   2.092   1.297  14.779 -0.0941  0.3978  0.6046
19781TIP3    H180834   2.098   1.388  14.752  0.9461  0.2648  0.3324
19781TIP3    H280835   2.105   1.299  14.874 -1.4321  0.6454  0.8021
19782TIP3   OH280836   0.699   5.196   1.376 -0.1587  0.2912 -0.5903
19782TIP3    H180837   0.683   5.276   1.425  1.2841  0.2453  0.0055
19782TIP3    H280838   0.749   5.224   1.299  2.4422 -0.2275  0.7936
19783TIP3   OH280839   3.219   1.083  12.604  0.0037  0.4634  0.2875
19783TIP3    H180840   3.180   1.169  12.585 -0.3674  0.4352  0.9062
19783TIP3    H280841   3.263   1.059  12.522  1.0498  1.7288  0.4492
19784TIP3   OH280842   2.399   2.391   1.318  0.2384  0.3461 -0.3171
19784TIP3    H180843   2.421   2.467   1.264 -0.1525  1.6388  1.2484
19784TIP3    H280844   2.380   2.428   1.404 -1.5252 -1.3806  0.1013
19785TIP3   OH280845   2.850   3.333   3.188 -0.1632 -0.0482 -0.2555
19785TIP3    H180846   2.840   3.427   3.172 -0.9818 -0.0426  0.2416
19785TIP3    H280847   2.849   3.294   3.100 -0.3843  0.3609 -0.4374
19786TIP3   OH280848   3.427   2.605   4.093  0.1285 -0.2220  0.0477
19786TIP3    H180849   3.361   2.554   4.140  1.7483 -1.9688  0.5380
19786TIP3    H280850   3.393   2.611   4.004 -1.3029  0.0714  0.5833
19787TIP3   OH280851   0.609   6.627   4.175  0.2734  0.5404 -0.2908
19787TIP3    H180852   0.579   6.545   4.135  0.5185  0.3321 -0.0553
19787TIP3    H280853   0.611   6.689   4.102  1.0100  0.0831 -0.6821
19788TIP3   OH280854   5.085   6.164  11.829  0.6737  0.6178 -0.1027
19788TIP3    H180855   5.100   6.253  11.798  1.1876  0.2157 -1.0560
19788TIP3    H280856   5.086   6.110  11.750  0.4379 -0.2452  0.4638
19789TIP3   OH280857   5.606   3.524  12.220 -0.5411  0.1944 -0.5967
19789TIP3    H180858   5.565   3.597  12.175  1.3521  2.4139  1.0169
19789TIP3    H280859   5.641   3.563  12.300 -3.8967 -3.4503  3.1196
19790TIP3   OH280860   0.467   3.346   1.178  0.5416 -0.1463  0.3432
19790TIP3    H180861   0.393   3.392   1.138 -0.1434 -1.2481  0.3009
19790TIP3    H280862   0.529   3.333   1.107 -0.0306 -0.8094 -0.0473
19791TIP3   OH280863   2.616   2.334  12.721  0.0787  0.6120 -0.3171
19791TIP3    H180864   2.660   2.390  12.658 -0.0041 -0.6431 -1.5518
19791TIP3    H280865   2.685   2.301  12.778  0.0973  2.0881  0.5514
19792TIP3   OH280866   2.688   4.440   2.773  0.1489  0.1119  0.2818
19792TIP3    H180867   2.705   4.362   2.719 -0.9865  0.2872 -0.3623
19792TIP3    H280868   2.694   4.513   2.711  1.8716  0.6341  1.0073
19793TIP3   OH280869   4.246   5.498  13.444 -0.4041  0.0796 -0.2497
19793TIP3    H180870   4.235   5.460  13.531 -2.5100 -0.9666 -0.9321
19793TIP3    H280871   4.159   5.499  13.406  0.5694 -0.2521 -2.6855
19794TIP3   OH280872   1.190   5.818   0.619  0.1336 -0.1137 -0.0944
19794TIP3    H180873   1.259   5.757   0.594  1.3043  1.4975 -0.9893
19794TIP3    H280874   1.163   5.789   0.706  1.0619 -1.5380 -0.2512
19795TIP3   OH280875   6.406   0.193   5.012  0.6407 -0.4754 -0.8829
19795TIP3    H180876   6.383   0.203   5.105 -0.2741 -0.8707 -1.0528
19795TIP3    H280877   6.502   0.191   5.011  0.6836  0.3390 -0.0355
19796TIP3   OH280878   3.203   0.743  17.150 -0.5740 -0.2927  0.3322
19796TIP3    H180879   3.293   0.716  17.167 -0.5962 -0.5451  0.0679
19796TIP3    H280880   3.205   0.839  17.155  0.0385 -0.1919 -1.2097
19797TIP3   OH280881   3.836   0.578  16.696  0.2237  0.0034 -0.1599
19797TIP3    H180882   3.842   0.580  16.601 -0.6369 -0.4101 -0.2296
19797TIP3    H280883   3.818   0.487  16.717 -0.0854  0.1806  0.3653
19798TIP3   OH280884   2.737   3.326  14.173 -0.5600  0.5618 -0.2859
19798TIP3    H180885   2.656   3.336  14.124 -1.0792 -0.3188  0.3453
19798TIP3    H280886   2.762   3.415  14.197 -3.4837  0.7522  2.8399
19799TIP3   OH280887   2.149   4.665  13.091  0.0365 -0.2659 -0.4664
19799TIP3    H180888   2.167   4.573  13.109  0.6034 -0.0627  0.0206
19799TIP3    H280889   2.200   4.685  13.012  0.9054 -0.0493  0.1366
19800TIP3   OH280890   6.228   2.720  12.262  0.0435  0.0161 -0.4213
19800TIP3    H180891   6.251   2.807  12.294 -0.2667 -0.6171  1.6567
19800TIP3    H280892   6.135   2.712  12.280 -0.0515 -0.5553 -1.1180
19801TIP3   OH280893   3.552   5.583   1.991 -0.0940 -0.4142 -0.1336
19801TIP3    H180894   3.485   5.603   2.057 -0.9757 -1.7344 -0.5941
19801TIP3    H280895   3.625   5.642   2.013 -0.9732  0.2879  1.0451
19802TIP3   OH280896   2.188   6.764   3.548  0.4412  0.0915  0.6586
19802TIP3    H180897   2.122   6.833   3.559  0.0820 -0.4589  2.2419
19802TIP3    H280898   2.242   6.771   3.627  1.0264 -0.7867  0.3485
19803TIP3   OH280899   1.705   1.692  11.684 -0.8202  0.0078  0.1337
19803TIP3    H180900   1.726   1.675  11.592 -2.0820  1.4104 -0.4538
19803TIP3    H280901   1.775   1.648  11.733  0.3073 -0.1373 -1.5147
19804TIP3   OH280902   3.781   3.768   2.288 -0.3760 -0.3340 -0.1395
19804TIP3    H180903   3.861   3.715   2.291  0.5758  1.0879  0.1059
19804TIP3    H280904   3.810   3.855   2.260 -1.9818 -0.0347 -0.9988
19805TIP3   OH280905   5.684   6.141  15.400  0.1053 -0.2495 -0.3305
19805TIP3    H180906   5.701   6.123  15.493  1.7297 -1.0787 -0.7567
19805TIP3    H280907   5.685   6.054  15.359  0.6406  0.2085 -1.3074
19806TIP3   OH280908   3.014   2.252   2.202 -0.1348  0.1855 -0.3338
19806TIP3    H180909   2.939   2.194   2.198  1.4215 -2.0592  0.7656
19806TIP3    H280910   3.004   2.300   2.284  0.2528 -1.1263  0.5204
19807TIP3   OH280911   3.214   0.534   3.353 -0.5261 -0.1478  0.1896
19807TIP3    H180912   3.296   0.484   3.354 -0.1332  0.4229  2.9195
19807TIP3    H280913   3.206   0.565   3.263  1.8460 -0.8670 -0.3338
19808TIP3   OH280914   5.598   4.383  12.998  0.4776  0.4186 -0.2497
19808TIP3    H180915   5.632   4.427  12.921 -1.5359  1.5312 -0.5852
19808TIP3    H280916   5.547   4.310  12.964  1.6320 -0.6067  0.1776
19809TIP3   OH280917   3.251   5.240   0.627 -0.0098  0.3266 -0.3166
19809TIP3    H180918   3.158   5.263   0.620  0.0554  1.0248  0.7563
19809TIP3    H280919   3.297   5.320   0.602  0.2832  0.3481  0.2788
19810TIP3   OH280920   1.311   1.599  15.885  0.0677 -0.3031 -0.3948
19810TIP3    H180921   1.335   1.521  15.836 -0.4794  0.9483 -2.7894
19810TIP3    H280922   1.216   1.601  15.883  0.0068 -0.4305  1.1399
19811TIP3   OH280923   2.516   1.859  15.662  0.3482 -0.1931  0.2202
19811TIP3    H180924   2.551   1.945  15.639 -1.0654  0.4461  0.3440
19811TIP3    H280925   2.450   1.877  15.729 -0.5485 -1.2542 -0.3371
19812TIP3   OH280926   0.669   5.602  14.097 -0.7411 -0.1094  0.3866
19812TIP3    H180927   0.675   5.690  14.134 -0.4309 -0.2585  0.7028
19812TIP3    H280928   0.708   5.546  14.164  1.1799 -0.2226 -0.7258
19813TIP3   OH280929   2.821   1.185  14.348  0.8447  0.2233  0.1044
19813TIP3    H180930   2.803   1.091  14.356  1.4734 -0.3312 -3.4208
19813TIP3    H280931   2.913   1.194  14.373  1.2476 -0.4188 -1.0951
19814TIP3   OH280932   2.844   4.514   1.135  0.4281 -0.0335 -0.1540
19814TIP3    H180933   2.847   4.557   1.050 -1.9894  1.6533  0.5059
19814TIP3    H280934   2.816   4.424   1.116  1.5826 -0.1821 -1.2335
19815TIP3   OH280935   1.065   5.954  16.047  0.6635 -0.0978  0.1079
19815TIP3    H180936   1.050   5.889  15.979  0.3478  0.7262 -0.6241
19815TIP3    H280937   1.000   5.934  16.114 -0.7570  0.6546 -1.0050
19816TIP3   OH280938   0.634   1.997   6.300  0.5143  0.0671  0.3368
19816TIP3    H180939   0.692   1.923   6.282  0.3355 -0.3127  1.2533
19816TIP3    H280940   0.546   1.959   6.303  0.0351  0.8103 -2.1311
19817TIP3   OH280941   6.132   0.933   1.270  0.2619  0.3306  0.1745
19817TIP3    H180942   6.111   0.857   1.323  0.2150  1.3240  1.6479
19817TIP3    H280943   6.204   0.904   1.213 -0.8813 -1.2710 -0.5169
19818TIP3   OH280944   1.276   3.903   4.667 -0.4501 -0.6907  0.4287
19818TIP3    H180945   1.351   3.947   4.628 -0.1575  0.8912  2.5799
19818TIP3    H280946   1.212   3.898   4.595  1.3672 -1.3811 -1.2354
19819TIP3   OH280947   3.321   6.503  11.867  0.1450 -0.4519 -0.2501
19819TIP3    H180948   3.230   6.531  11.883 -0.4806 -1.9720 -0.9660
19819TIP3    H280949   3.363   6.581  11.831 -0.6849  0.4731  0.6878
19820TIP3   OH280950   4.923   0.785   6.369  0.1549 -0.2164  0.2919
19820TIP3    H180951   4.913   0.736   6.451  0.3736 -0.2827  0.2771
19820TIP3    H280952   4.837   0.825   6.355  0.5486  1.1110  1.4100
19821TIP3   OH280953   5.656   4.024  11.388  0.4519  0.2879 -0.5467
19821TIP3    H180954   5.727   4.086  11.370  0.2788  0.7997  0.4325
19821TIP3    H280955   5.696   3.957  11.443  0.4039  0.0601 -0.7893
19822TIP3   OH280956   1.288   4.648   3.275 -0.2798  0.4708 -0.0448
19822TIP3    H180957   1.224   4.718   3.258 -2.3377 -1.0549  1.0069
19822TIP3    H280958   1.310   4.615   3.188 -1.8375  0.2948 -0.4104
19823TIP3   OH280959   5.848   5.454  15.202  0.2552 -0.5526 -0.4191
19823TIP3    H180960   5.864   5.463  15.108 -1.8418 -0.5364 -0.8134
19823TIP3    H280961   5.801   5.371  15.211  0.1841 -0.4166  0.5905
19824TIP3   OH280962   0.506   3.579   2.561 -0.3161 -0.1398 -0.7787
19824TIP3    H180963   0.587   3.619   2.530 -0.3447 -0.4209 -1.2136
19824TIP3    H280964   0.535   3.517   2.628 -0.3111  0.9717  0.2907
19825TIP3   OH280965   1.255   0.734  15.382  0.6924  0.0709  0.3866
19825TIP3    H180966   1.292   0.704  15.299  0.0617 -1.5011  0.6281
19825TIP3    H280967   1.169   0.769  15.359  0.2025 -1.0565  0.4437
19826TIP3   OH280968   4.440   3.746  16.491  0.0082 -0.1087 -0.3200
19826TIP3    H180969   4.417   3.654  16.503 -1.4326 -0.0091 -1.9427
19826TIP3    H280970   4.481   3.749  16.405  2.0973  0.4721  0.6354
19827TIP3   OH280971   6.345   5.120   0.999 -0.4849 -0.5698  0.4765
19827TIP3    H180972   6.417   5.175   0.966 -2.8345  2.2816 -0.3379
19827TIP3    H280973   6.385   5.070   1.071  2.7406 -0.6857 -1.1997
19828TIP3   OH280974   6.182   4.103   0.022  0.3548 -0.6215 -0.2364
19828TIP3    H180975   6.237   4.063  -0.045  1.0001  0.0634 -0.1365
19828TIP3    H280976   6.116   4.153  -0.028  0.9379  0.0271 -0.3784
19829TIP3   OH280977   4.493   5.434   4.022 -0.1659 -0.3259  0.0676
19829TIP3    H180978   4.558   5.492   4.061 -1.3102  2.4223 -1.8259
19829TIP3    H280979   4.410   5.481   4.029 -1.1119 -1.5211 -1.9417
19830TIP3   OH280980   5.129   4.404   3.561 -0.4753  0.0737  0.0566
19830TIP3    H180981   5.128   4.375   3.653 -0.8559 -0.1931 -0.0268
19830TIP3    H280982   5.039   4.434   3.545 -0.8939 -1.4805 -0.7190
19831TIP3   OH280983   0.723   3.207   0.641  0.2647  0.4042 -0.0174
19831TIP3    H180984   0.723   3.231   0.548 -0.9304  1.1979  0.1557
19831TIP3    H280985   0.701   3.289   0.686  0.8807  0.0398  0.9799
19832TIP3   OH280986   3.687   3.039   2.508 -0.2489  0.1421 -0.1811
19832TIP3    H180987   3.732   3.099   2.449  1.4124 -0.9270 -0.0674
19832TIP3    H280988   3.608   3.086   2.535  0.5762  1.9204 -0.7199
19833TIP3   OH280989   3.614   0.127   0.520  0.1200  0.8315  0.1726
19833TIP3    H180990   3.675   0.179   0.468 -0.4955 -0.1328 -1.5887
19833TIP3    H280991   3.533   0.128   0.470  0.4771 -3.0297 -0.7891
19834TIP3   OH280992   3.974   4.902   0.313  0.2242  0.0827  0.0372
19834TIP3    H180993   4.065   4.882   0.336  0.6293  0.6210 -1.0482
19834TIP3    H280994   3.977   4.924   0.220 -1.4047 -2.3572 -0.6850
19835TIP3   OH280995   2.036   2.946   1.864 -0.2335 -0.4537  0.3204
19835TIP3    H180996   1.987   2.906   1.792 -1.0709  1.6034 -0.3154
19835TIP3    H280997   2.037   3.039   1.844  1.2632 -0.0579  1.9665
19836TIP3   OH280998   0.672   1.482  13.819 -0.8658 -0.0133 -0.0839
19836TIP3    H180999   0.637   1.546  13.758 -1.4633 -1.3468 -1.1938
19836TIP3    H281000   0.744   1.440  13.772 -0.4614 -0.1301  0.6306
19837TIP3   OH281001   0.010   4.934   4.321  0.3547 -0.0288  0.3087
19837TIP3    H181002   0.095   4.978   4.322  0.4627 -0.2173 -0.1613
19837TIP3    H281003   0.029   4.846   4.354  0.4432 -0.2403 -0.2979
19838TIP3   OH281004   1.494   3.142  16.541 -0.8910  0.5191  0.4207
19838TIP3    H181005   1.415   3.175  16.499 -0.4286  0.2703 -0.6790
19838TIP3    H281006   1.550   3.114  16.469 -0.6130 -1.1994  1.2488
19839TIP3   OH281007   4.850   6.435   2.785  0.7633  0.0800 -0.7377
19839TIP3    H181008   4.856   6.531   2.786  0.6940  0.2157 -3.6673
19839TIP3    H281009   4.756   6.417   2.783  0.7538 -0.1226  0.7302
19840TIP3   OH281010   3.719   3.857  16.636  0.1091  0.0702 -0.2366
19840TIP3    H181011   3.729   3.893  16.724 -0.3453 -0.1230 -0.1045
19840TIP3    H281012   3.790   3.897  16.585 -0.4548  1.2457 -0.1295
19841TIP3   OH281013   3.259   6.520   0.463  0.0735  0.3523  0.0845
19841TIP3    H181014   3.213   6.573   0.399  1.4595  0.4914 -0.8373
19841TIP3    H281015   3.238   6.561   0.547 -0.9409  0.7838 -0.3609
19842TIP3   OH281016   5.072   1.332  12.971 -0.5621 -0.1316 -0.7727
19842TIP3    H181017   4.989   1.314  12.927 -0.3231 -0.4011 -1.1144
19842TIP3    H281018   5.087   1.255  13.026 -0.9811  0.3098 -0.0251
19843TIP3   OH281019   4.071   6.373   3.558  0.5175 -0.0557  0.1003
19843TIP3    H181020   3.978   6.367   3.535 -0.0700 -0.8201  2.4235
19843TIP3    H281021   4.101   6.454   3.517 -1.2180  0.3069 -0.5257
19844TIP3   OH281022   4.625   6.560   5.398  0.3995  0.5234  0.4628
19844TIP3    H181023   4.578   6.614   5.461 -1.9372 -0.8056 -0.0426
19844TIP3    H281024   4.642   6.478   5.444 -2.8666 -1.1424 -0.9706
19845TIP3   OH281025   3.210   5.180  16.095 -0.5058 -0.2429 -0.2454
19845TIP3    H181026   3.240   5.098  16.057 -0.1246 -0.3534  0.2860
19845TIP3    H281027   3.256   5.248  16.045 -0.6503 -0.3575 -0.5353
19846TIP3   OH281028   5.549   3.587  12.950  0.3051 -0.0513 -0.0571
19846TIP3    H181029   5.534   3.590  13.045 -1.4669  2.7868 -0.2962
19846TIP3    H281030   5.644   3.592  12.940  0.6662 -2.1847  1.5109
19847TIP3   OH281031   6.654   3.657  12.178 -0.2535 -0.2002  0.2304
19847TIP3    H181032   6.649   3.595  12.251  0.7858  0.9828  1.3613
19847TIP3    H281033   6.612   3.612  12.105  0.0624 -2.0455  1.1369
19848TIP3   OH281034   5.800   1.173  11.240 -0.1492  0.0579  0.6286
19848TIP3    H181035   5.711   1.167  11.207 -0.0929  0.0012  0.4889
19848TIP3    H281036   5.856   1.168  11.162 -0.1053  3.1428  0.3092
19849TIP3   OH281037   3.694   5.492   4.275  0.5535  0.2496  0.2808
19849TIP3    H181038   3.774   5.457   4.235  0.9201 -0.5573  1.6433
19849TIP3    H281039   3.722   5.574   4.315  0.5578  0.2765  0.2229
19850TIP3   OH281040   5.726   6.657  13.453  1.1207  0.0059 -0.2908
19850TIP3    H181041   5.772   6.677  13.535  1.1079 -1.0491 -0.0147
19850TIP3    H281042   5.795   6.655  13.387  1.1344  0.8421 -0.3128
19851TIP3   OH281043   1.605   2.217  12.729  1.1665  0.7204  0.2817
19851TIP3    H181044   1.636   2.299  12.691  0.6549  0.1955 -1.3546
19851TIP3    H281045   1.680   2.183  12.778  1.8706  1.4269 -0.2767
19852TIP3   OH281046   1.031   3.929   4.488  0.0718 -0.6891 -0.4485
19852TIP3    H181047   1.072   4.011   4.459 -1.2595  0.7825  1.5882
19852TIP3    H281048   0.940   3.937   4.462 -0.0549 -1.5847 -0.3124
19853TIP3   OH281049   5.998   2.773  12.403  0.3640  0.1252 -0.4558
19853TIP3    H181050   5.925   2.824  12.438  0.6467 -0.3167  0.8604
19853TIP3    H281051   5.957   2.709  12.346 -0.4700 -0.9667  1.2632
19854TIP3   OH281052   5.444   1.830  12.972  0.0299  0.5558 -0.4242
19854TIP3    H181053   5.435   1.921  13.000  0.1672 -0.3756  3.0671
19854TIP3    H281054   5.535   1.809  12.990 -0.3369 -0.6391  0.0936
19855TIP3   OH281055   1.675   1.843   6.088  0.3178 -0.2021  0.1646
19855TIP3    H181056   1.763   1.819   6.115  1.9379 -1.0874 -4.9153
19855TIP3    H281057   1.681   1.936   6.066  0.6894 -0.6763 -2.0075
19856TIP3   OH281058   1.917   2.318  15.473 -0.4574 -0.2615  0.3164
19856TIP3    H181059   1.899   2.318  15.379 -1.5256 -0.4425  0.5085
19856TIP3    H281060   2.010   2.342  15.480 -0.6042  0.7090 -0.7419
19857TIP3   OH281061   0.126   1.864   5.178  0.4320  0.9511 -0.2316
19857TIP3    H181062   0.066   1.938   5.192 -0.7095  0.4714 -2.2123
19857TIP3    H281063   0.204   1.905   5.140  0.9685  1.4440  1.3254
19858TIP3   OH281064   5.269   2.573   2.743 -0.2558  0.2601 -0.1480
19858TIP3    H181065   5.179   2.558   2.771 -0.1157 -0.7730 -0.2358
19858TIP3    H281066   5.268   2.559   2.648  0.5214 -2.5541  0.1685
19859TIP3   OH281067   5.325   3.891  14.976  0.2880 -0.2257  0.1361
19859TIP3    H181068   5.246   3.844  14.952 -0.6803 -0.2044  2.9569
19859TIP3    H281069   5.394   3.825  14.974  0.0700 -0.4593 -1.3562
19860TIP3   OH281070   5.074   1.528   0.149  0.0183  0.4090 -0.0449
19860TIP3    H181071   5.161   1.562   0.169  0.0007 -0.8068  2.5709
19860TIP3    H281072   5.031   1.598   0.100  2.6231  0.7890 -1.9835
19861TIP3   OH281073   1.703   5.339   1.090 -0.4438  0.2217 -0.0418
19861TIP3    H181074   1.651   5.284   1.032  0.9098  0.1489 -1.2758
19861TIP3    H281075   1.757   5.278   1.140 -0.9818  0.3234  0.6747
19862TIP3   OH281076   2.792   4.560  14.271 -0.1615  0.0639 -0.0068
19862TIP3    H181077   2.788   4.479  14.220  0.3311  0.1500 -0.1839
19862TIP3    H281078   2.861   4.544  14.335 -0.0996  0.3264 -0.0107
19863TIP3   OH281079   1.178   6.769   0.710 -0.2916  0.0136  0.1177
19863TIP3    H181080   1.149   6.700   0.650 -0.1007  0.2013 -0.1918
19863TIP3    H281081   1.234   6.722   0.773  0.0581 -0.0757 -0.2513
19864TIP3   OH281082   0.331   0.795  11.448 -0.2580 -0.3407  0.0861
19864TIP3    H181083   0.365   0.862  11.508 -0.3713 -0.6829  0.5402
19864TIP3    H281084   0.371   0.713  11.479 -2.7344 -1.0526  1.7098
19865TIP3   OH281085   0.584   1.968   5.174  0.4294  0.9566 -0.4026
19865TIP3    H181086   0.492   1.949   5.154  0.8953 -0.9081 -0.9946
19865TIP3    H281087   0.612   2.026   5.103  0.1236  0.1880 -1.1815
19866TIP3   OH281088   2.778   6.224  10.787 -0.0803  0.1733  0.1305
19866TIP3    H181089   2.872   6.239  10.785 -0.1203  0.5049  0.5681
19866TIP3    H281090   2.769   6.129  10.799  0.2078  0.2003  0.6255
19867TIP3   OH281091   0.687   3.409  12.195  0.7032 -0.1798 -0.3523
19867TIP3    H181092   0.764   3.395  12.139  0.0382 -0.2417 -1.2701
19867TIP3    H281093   0.625   3.342  12.167 -0.4360  1.1068 -1.0266
19868TIP3   OH281094   2.197   5.753   5.888  0.6220 -0.1603  0.0200
19868TIP3    H181095   2.275   5.768   5.835  2.0029  0.6672  2.1428
19868TIP3    H281096   2.186   5.658   5.888  2.3702 -0.4048  0.6013
19869TIP3   OH281097   5.992   2.995   0.491  0.1778 -0.4137  0.3290
19869TIP3    H181098   5.989   3.012   0.396 -3.7577  0.5621  0.4469
19869TIP3    H281099   6.082   3.016   0.516  0.9943  0.6485 -2.9495
19870TIP3   OH281100   6.475   2.145   1.548 -0.2489 -0.0111 -0.4023
19870TIP3    H181101   6.550   2.193   1.515  0.0828 -0.3270 -0.1225
19870TIP3    H281102   6.424   2.210   1.597  0.3439  0.0007  0.2155
19871TIP3   OH281103   4.990   5.704   1.477  0.5528  0.1954  0.1009
19871TIP3    H181104   5.035   5.677   1.397  1.5062  0.2108  0.6094
19871TIP3    H281105   5.038   5.659   1.547 -0.9488 -0.7070  0.5968
19872TIP3   OH281106   5.608   4.957   1.826 -0.1367  0.3433 -0.5955
19872TIP3    H181107   5.691   4.925   1.863 -0.2349  0.5527 -0.1907
19872TIP3    H281108   5.544   4.890   1.849  0.1039 -0.3183 -1.7753
19873TIP3   OH281109   5.803   5.307   2.617 -0.2997  0.4876  0.8604
19873TIP3    H181110   5.870   5.376   2.616  0.9385 -0.6879  0.6833
19873TIP3    H281111   5.803   5.275   2.707 -1.1076  0.9162  1.0220
19874TIP3   OH281112   1.081   6.728   2.520 -0.2378 -0.4537 -0.1842
19874TIP3    H181113   1.090   6.742   2.426  0.3315 -1.8552 -0.3647
19874TIP3    H281114   1.092   6.634   2.532  1.0219 -0.1571  1.4159
19875TIP3   OH281115   6.279   2.379   1.510  0.3454  0.0916 -0.0938
19875TIP3    H181116   6.217   2.355   1.441 -2.0823  1.4720  1.4479
19875TIP3    H281117   6.332   2.449   1.472  0.0175 -0.1459 -1.0096
19876TIP3   OH281118   6.007   5.646  16.780 -0.0727 -0.5185 -0.1732
19876TIP3    H181119   6.012   5.553  16.759  0.0329 -1.1384  2.3560
19876TIP3    H281120   6.092   5.667  16.818  0.3010  0.9363 -1.6776
19877TIP3   OH281121   2.452   0.237   0.622  0.1099 -0.3713 -0.1929
19877TIP3    H181122   2.521   0.292   0.656 -0.6117  0.4183  0.0270
19877TIP3    H281123   2.429   0.276   0.538  0.7359 -1.3299 -0.8252
19878TIP3   OH281124   5.090   6.334  15.988  0.4310 -0.3212 -0.1671
19878TIP3    H181125   5.076   6.336  15.893  0.5868  1.2777 -0.1809
19878TIP3    H281126   5.015   6.285  16.022 -1.1251  1.4113 -0.9075
19879TIP3   OH281127   3.615   6.667  17.206 -0.3660  0.1243 -0.0258
19879TIP3    H181128   3.596   6.574  17.191  1.0778 -0.1551 -0.2812
19879TIP3    H281129   3.651   6.698  17.123 -0.6565  0.8612  0.1210
19880TIP3   OH281130   1.805   0.436   0.296 -1.1301  0.5738 -0.0171
19880TIP3    H181131   1.736   0.381   0.260 -2.9522  2.4314  0.4901
19880TIP3    H281132   1.803   0.417   0.390  0.5960 -0.9594 -0.2258
19881TIP3   OH281133   1.397   0.212   4.197  0.5498  0.5045  0.2673
19881TIP3    H181134   1.382   0.119   4.215  0.6919  0.8515  2.3994
19881TIP3    H281135   1.452   0.212   4.119 -1.6250 -1.0965 -1.4062
19882TIP3   OH281136   2.068   5.260   3.826 -0.3157 -0.4239 -0.3262
19882TIP3    H181137   2.125   5.337   3.827 -0.6637 -0.1374  1.6096
19882TIP3    H281138   1.992   5.286   3.774 -0.4764  0.6037  0.3867
19883TIP3   OH281139   4.171   6.741  15.516  0.6359  0.1244 -0.5256
19883TIP3    H181140   4.236   6.671  15.525  0.5011 -0.0272 -0.7328
19883TIP3    H281141   4.201   6.793  15.441  0.7660  0.3235 -0.3382
19884TIP3   OH281142   3.612   6.586   3.075 -0.2680 -0.3417  0.0016
19884TIP3    H181143   3.659   6.587   2.991 -0.2145  0.2220  0.0391
19884TIP3    H281144   3.648   6.659   3.124  0.9394 -1.6779  1.2047
19885TIP3   OH281145   5.983   3.472  14.234  0.0930  0.4670  0.0464
19885TIP3    H181146   5.921   3.487  14.164 -0.6179  0.8897  0.7516
19885TIP3    H281147   6.067   3.459  14.189 -0.2527  1.2163 -0.8547
19886TIP3   OH281148   3.285   5.177   6.196  0.0699 -0.2197 -0.0478
19886TIP3    H181149   3.328   5.229   6.128 -1.3466 -0.0245 -0.8457
19886TIP3    H281150   3.354   5.121   6.230  0.6013 -1.2821 -2.5995
19887TIP3   OH281151   0.066   4.963   0.898  1.0660 -0.7018  0.3457
19887TIP3    H181152   0.098   4.878   0.930  0.7130 -1.7592 -1.9034
19887TIP3    H281153   0.113   4.976   0.816  0.8385  1.1326  0.4754
19888TIP3   OH281154   1.225   0.407   0.529  0.1976 -1.0081 -0.7513
19888TIP3    H181155   1.301   0.390   0.585  0.2177  1.5575  0.1271
19888TIP3    H281156   1.260   0.411   0.440  0.8686 -1.1839 -0.4954
19889TIP3   OH281157   1.978   1.953   2.310  0.1955  0.3409 -0.1917
19889TIP3    H181158   1.928   1.974   2.231  1.5669 -0.4793 -1.3211
19889TIP3    H281159   1.961   1.860   2.325  2.5657 -0.3777 -1.5410
19890TIP3   OH281160   4.411   6.080   4.792  0.2573  0.0138 -0.0065
19890TIP3    H181161   4.426   6.004   4.848  2.8677  1.8523  2.0437
19890TIP3    H281162   4.345   6.051   4.729  0.6824 -3.7075  1.0327
19891TIP3   OH281163   3.708   2.329   1.762  0.3917  0.0789  0.1341
19891TIP3    H181164   3.628   2.279   1.746  0.9653 -0.4320 -1.3152
19891TIP3    H281165   3.771   2.293   1.700  1.3958  1.2744  0.4293
19892TIP3   OH281166   3.869   0.822  12.695  0.4388 -0.3061  0.3046
19892TIP3    H181167   3.797   0.778  12.738  0.3639 -0.1630  0.3258
19892TIP3    H281168   3.942   0.815  12.756  0.4855 -0.5872  0.2154
19893TIP3   OH281169   1.011   0.140   6.081 -0.3978 -0.1957 -0.0418
19893TIP3    H181170   0.967   0.212   6.035  1.4200 -0.2674 -2.0479
19893TIP3    H281171   1.095   0.178   6.109 -0.9764 -0.4983  2.2975
19894TIP3   OH281172   0.183   2.759   3.678 -0.7077 -0.1329 -0.6193
19894TIP3    H181173   0.208   2.785   3.767 -2.4226  1.9122 -0.6583
19894TIP3    H281174   0.201   2.836   3.624 -1.1165 -0.8095 -1.7586
19895TIP3   OH281175   2.872   5.009  16.937  0.8825  0.2705  0.1178
19895TIP3    H181176   2.931   5.030  16.865 -1.5874  2.4083 -1.4702
19895TIP3    H281177   2.791   4.980  16.893 -0.0563 -0.2639  2.1023
19896TIP3   OH281178   2.783   2.365  17.074  0.1873 -0.4431  0.4015
19896TIP3    H181179   2.705   2.420  17.062 -0.8005 -2.0226 -0.7857
19896TIP3    H281180   2.806   2.377  17.166 -2.1305 -0.7431  1.0832
19897TIP3   OH281181   4.672   0.125  15.225  0.2825 -0.9337 -0.2699
19897TIP3    H181182   4.609   0.060  15.256 -0.8214  0.8314  1.4879
19897TIP3    H281183   4.638   0.209  15.258  2.6291  0.3214 -0.7813
19898TIP3   OH281184   0.138   3.774   1.884 -0.6559  0.0608 -0.2142
19898TIP3    H181185   0.147   3.833   1.809 -0.5869 -1.1489 -1.1834
19898TIP3    H281186   0.044   3.772   1.901 -0.5793  1.2350  0.5062
19899TIP3   OH281187   5.556   5.567  11.266  0.2190  0.3895  0.2211
19899TIP3    H181188   5.574   5.483  11.223  1.3612  0.3128  0.8115
19899TIP3    H281189   5.563   5.548  11.359 -1.7746  0.6673  0.4655
19900TIP3   OH281190   3.009   5.525   1.489 -0.4550 -0.1495 -0.7796
19900TIP3    H181191   3.076   5.498   1.426 -0.0448 -0.0572 -0.3869
19900TIP3    H281192   2.933   5.470   1.468  0.1232 -1.0946 -0.4725
19901TIP3   OH281193   2.281   6.681  16.836 -0.4947 -0.4848  0.0584
19901TIP3    H181194   2.344   6.714  16.899  0.1061 -1.1849 -0.1583
19901TIP3    H281195   2.196   6.708  16.870 -0.1719 -0.7806  1.1291
19902TIP3   OH281196   3.386   1.316   4.954  0.1187  0.1335  0.3130
19902TIP3    H181197   3.474   1.288   4.980  0.8205  0.6309 -1.3453
19902TIP3    H281198   3.401   1.392   4.897 -1.3934  0.2535  0.0257
19903TIP3   OH281199   1.931   1.613  14.050 -0.6748  0.1064  0.1226
19903TIP3    H181200   1.860   1.620  14.114 -1.3853  0.7688 -0.7112
19903TIP3    H281201   1.975   1.697  14.054 -2.2447  1.1251 -1.9421
19904TIP3   OH281202   6.589   2.854  17.044  0.2605  0.7573  0.0503
19904TIP3    H181203   6.626   2.784  17.097 -1.1550 -1.0953 -1.2436
19904TIP3    H281204   6.654   2.869  16.975  1.3506  2.0187  1.2808
19905TIP3   OH281205   2.120   5.941   6.160  0.3969  0.0914 -0.1527
19905TIP3    H181206   2.104   5.938   6.255 -0.2206 -0.6540 -0.2689
19905TIP3    H281207   2.215   5.931   6.152  0.3765 -0.6296  0.3665
19906TIP3   OH281208   0.710   2.664  11.538  0.4075 -0.3086  0.7059
19906TIP3    H181209   0.674   2.576  11.545 -2.1608  0.6974  1.1546
19906TIP3    H281210   0.770   2.671  11.612  0.4985 -1.6030  0.7723
19907TIP3   OH281211   4.002   1.541  12.426  0.3349 -0.1729 -0.2166
19907TIP3    H181212   4.005   1.454  12.386  0.3653 -0.0454 -0.4884
19907TIP3    H281213   3.909   1.554  12.447  0.4501 -0.6441  0.6450
19908TIP3   OH281214   0.331   4.264   5.399 -0.1333 -0.3103  0.0935
19908TIP3    H181215   0.280   4.192   5.362 -2.2586  1.0455  0.1945
19908TIP3    H281216   0.274   4.341   5.389  2.0822  1.4073 -0.1631
19909TIP3   OH281217   1.956   5.661   0.233  0.2683  0.2908  0.5926
19909TIP3    H181218   1.986   5.657   0.142  1.6703 -0.2461  1.0635
19909TIP3    H281219   1.863   5.683   0.226  0.4749  0.7885 -0.9464
19910TIP3   OH281220   6.641   4.284   5.807  0.4344 -0.0367  0.2043
19910TIP3    H181221   6.734   4.279   5.827  0.7437  1.3793 -0.7357
19910TIP3    H281222   6.597   4.257   5.888  1.6408 -0.8449  0.6167
19911TIP3   OH281223   5.145   0.725  14.894 -0.0085  0.3358 -0.0080
19911TIP3    H181224   5.152   0.736  14.989  1.2944  0.4075 -0.0917
19911TIP3    H281225   5.122   0.633  14.882  1.7691 -0.1891  0.3495
19912TIP3   OH281226   3.924   6.734   4.346  0.0761  0.1542 -0.4922
19912TIP3    H181227   3.872   6.799   4.298 -1.7977 -0.9336 -0.0691
19912TIP3    H281228   3.913   6.758   4.438  0.3368 -0.0783 -0.3998
19913TIP3   OH281229   1.487   0.366  16.353  0.4368 -0.2928 -0.3843
19913TIP3    H181230   1.570   0.412  16.342  0.0374  0.3727 -0.7154
19913TIP3    H281231   1.422   0.425  16.313 -0.1495 -0.9323 -0.3870
19914TIP3   OH281232   3.525   0.109   2.357 -0.3570 -0.0156  0.0398
19914TIP3    H181233   3.582   0.181   2.330 -0.1703  0.2247  1.0135
19914TIP3    H281234   3.470   0.092   2.281  2.2267 -1.5339 -1.5942
19915TIP3   OH281235   2.408   5.174   4.921  0.0665  0.0321 -0.0037
19915TIP3    H181236   2.321   5.192   4.884  0.0111 -0.6550 -0.2275
19915TIP3    H281237   2.396   5.096   4.974  0.1724  0.9617  1.4244
19916TIP3   OH281238   1.945   5.245   1.809 -0.3249  0.5363  0.3799
19916TIP3    H181239   1.919   5.326   1.853 -0.8485  0.2182  0.6569
19916TIP3    H281240   1.983   5.191   1.879  2.4197  1.5034 -0.2104
19917TIP3   OH281241   5.288   3.125   5.565 -0.7272 -0.3348 -0.8829
19917TIP3    H181242   5.245   3.117   5.650  0.4270 -0.3662 -0.2808
19917TIP3    H281243   5.240   3.065   5.508 -1.0505 -0.8783 -0.0559
19918TIP3   OH281244   6.641   6.708  15.180  0.2251 -0.1367  0.0809
19918TIP3    H181245   6.714   6.658  15.215 -0.1211 -0.2453  0.6589
19918TIP3    H281246   6.566   6.648  15.186 -0.2010  0.4505  0.8255
19919TIP3   OH281247   3.929   3.466   1.577  0.4077  0.0572  0.2355
19919TIP3    H181248   3.861   3.454   1.511  0.8289  1.0256 -0.3916
19919TIP3    H281249   4.006   3.493   1.528  1.6206 -2.1299  0.8091
19920TIP3   OH281250   1.010   5.687   1.126 -0.2747  0.5617  0.3754
19920TIP3    H181251   1.007   5.639   1.209 -0.8774 -0.8930 -0.4465
19920TIP3    H281252   0.950   5.640   1.069  0.2245  1.4539 -0.9331
19921TIP3   OH281253   1.609   3.925   2.946 -0.1898  0.1440 -0.7911
19921TIP3    H181254   1.519   3.939   2.917 -0.1900  0.3149 -0.7109
19921TIP3    H281255   1.601   3.884   3.032 -0.1993  1.2698 -0.2462
19922TIP3   OH281256   2.076   4.799   2.102 -0.2390 -0.5036  0.3083
19922TIP3    H181257   2.058   4.788   2.008  0.1799  0.9345  0.0294
19922TIP3    H281258   2.043   4.887   2.122  2.3940  0.4754  0.7683
19923TIP3   OH281259   3.976   0.052  11.084  0.1849 -0.4666  0.3543
19923TIP3    H181260   3.911  -0.012  11.112  0.2658 -0.7016  0.0045
19923TIP3    H281261   4.056   0.001  11.071  0.4490 -0.1756  0.8036
19924TIP3   OH281262   3.237   2.467  17.021  0.0415  0.7080  0.2158
19924TIP3    H181263   3.210   2.438  17.108 -0.5268 -1.5829 -0.6583
19924TIP3    H281264   3.162   2.517  16.988 -1.4580 -1.8139 -0.4396
19925TIP3   OH281265   0.086   3.931  15.260 -0.0394 -0.1755 -0.0535
19925TIP3    H181266   0.046   3.864  15.316 -0.5611  0.6933  0.6595
19925TIP3    H281267   0.069   4.013  15.307  2.6146  0.2645  0.3005
19926TIP3   OH281268   6.446   4.461   5.468 -0.1374  0.2449 -0.1860
19926TIP3    H181269   6.365   4.507   5.447  0.1877  0.4072 -1.1109
19926TIP3    H281270   6.424   4.368   5.461 -0.5838  0.2565  0.8955
19927TIP3   OH281271   4.413   1.167  12.964  0.5752 -0.0111  0.7407
19927TIP3    H181272   4.371   1.226  13.027  1.3551  1.4365 -0.0265
19927TIP3    H281273   4.492   1.136  13.008  1.1269  1.0087  0.5024
19928TIP3   OH281274   2.324   1.305  14.104  0.4104 -0.1757 -0.1521
19928TIP3    H181275   2.391   1.373  14.107 -0.4671  0.7057  0.3813
19928TIP3    H281276   2.329   1.269  14.016 -0.3322  1.9072 -1.1125
19929TIP3   OH281277   6.243   4.789  11.299  0.2308  0.3892  0.4224
19929TIP3    H181278   6.258   4.699  11.272 -0.9445 -0.1334  1.4189
19929TIP3    H281279   6.330   4.830  11.297  0.8804 -0.9473  0.5954
19930TIP3   OH281280   6.221   4.950   2.495 -0.4455 -0.0694 -0.3259
19930TIP3    H181281   6.231   5.019   2.560  1.9118  0.2019 -0.8628
19930TIP3    H281282   6.128   4.930   2.494 -1.1753  2.9366 -0.0030
19931TIP3   OH281283   4.207   5.306  15.718 -0.0767  0.3223  0.3496
19931TIP3    H181284   4.192   5.398  15.694  1.1047  0.3722 -0.2745
19931TIP3    H281285   4.192   5.258  15.637  0.0372  0.0425  0.4951
19932TIP3   OH281286   3.618   0.357   1.481  0.6518 -0.1196 -1.0249
19932TIP3    H181287   3.683   0.320   1.422  2.2813  1.2121 -0.1691
19932TIP3    H281288   3.608   0.447   1.452 -0.6828 -0.2462 -1.0029
19933TIP3   OH281289   2.983   4.788  13.425 -0.1675 -0.4994 -0.2085
19933TIP3    H181290   3.037   4.724  13.471 -1.0175 -1.4792 -0.5522
19933TIP3    H281291   2.988   4.867  13.479  0.5760 -0.9731  0.4242
19934TIP3   OH281292   1.017   4.103   6.480  0.0166  0.1145  0.3570
19934TIP3    H181293   1.088   4.040   6.492 -1.1750 -0.9678  2.1422
19934TIP3    H281294   0.985   4.121   6.568 -0.7502  2.0149 -0.2418
19935TIP3   OH281295   0.940   5.386  14.030 -0.1789 -0.2911  0.4042
19935TIP3    H181296   0.950   5.384  14.125  1.0425  0.9715  0.3358
19935TIP3    H281297   0.846   5.376  14.015 -0.3844 -0.4737  1.7446
19936TIP3   OH281298   0.286   3.837   2.691  0.7370  0.0235  0.0809
19936TIP3    H181299   0.242   3.799   2.767  1.2265  0.3312  0.5287
19936TIP3    H281300   0.326   3.762   2.647 -2.1165 -0.6367 -1.6762
19937TIP3   OH281301   2.463   3.298  12.508 -0.3624  0.4957 -0.8392
19937TIP3    H181302   2.514   3.240  12.566 -0.1573 -0.0379 -1.5460
19937TIP3    H281303   2.394   3.333  12.565 -1.0908 -1.1940 -0.6044
19938TIP3   OH281304   5.787   4.070  17.277 -0.4219  0.4708  0.1037
19938TIP3    H181305   5.831   4.127  17.213  1.2244 -0.3878  0.4057
19938TIP3    H281306   5.847   4.068  17.351 -1.3106 -0.2318  0.8207
19939TIP3   OH281307   0.429   2.454   3.297  0.3137  0.0674  0.2026
19939TIP3    H181308   0.367   2.526   3.311  1.0592  0.6319  0.6486
19939TIP3    H281309   0.512   2.497   3.279  0.3099 -0.6707 -1.8349
19940TIP3   OH281310   5.215   4.096   5.408 -0.2909  0.5100 -0.1732
19940TIP3    H181311   5.294   4.148   5.415 -0.7910  1.6904 -2.3874
19940TIP3    H281312   5.156   4.132   5.474  0.4892  0.5454  0.5241
19941TIP3   OH281313   1.712   3.198  17.001  0.0213 -0.1126 -0.2582
19941TIP3    H181314   1.727   3.281  16.955 -0.4265 -0.0154 -0.2262
19941TIP3    H281315   1.629   3.167  16.967  0.4884 -0.8658 -0.7453
19942TIP3   OH281316   6.732   4.889   5.887  0.3204 -0.3454 -0.0029
19942TIP3    H181317   6.825   4.885   5.909 -0.0824 -2.0904  1.7068
19942TIP3    H281318   6.692   4.932   5.962 -0.2920  0.2324 -0.6529
19943TIP3   OH281319   2.036   2.687   1.253 -0.6626  0.0012 -0.2457
19943TIP3    H181320   1.982   2.683   1.173  0.2761  0.0190 -0.9007
19943TIP3    H281321   2.116   2.731   1.224 -0.5772  0.5956  0.8713
19944TIP3   OH281322   1.186   2.002   2.438 -0.5855  0.5901 -0.0920
19944TIP3    H181323   1.158   1.966   2.354 -0.2383 -0.6415  0.3139
19944TIP3    H281324   1.276   1.974   2.448 -0.3931  1.3447  0.3731
19945TIP3   OH281325   1.561   6.187  15.442  0.2883 -0.2804 -0.2636
19945TIP3    H181326   1.592   6.272  15.470  0.4157 -0.7607  1.1059
19945TIP3    H281327   1.526   6.146  15.521 -2.1621 -0.5058 -1.3677
19946TIP3   OH281328   6.344   5.427  16.329 -0.2391  0.2221 -0.2313
19946TIP3    H181329   6.292   5.441  16.249 -1.7741 -0.1680  0.6594
19946TIP3    H281330   6.282   5.440  16.401  1.1663  0.7638  0.9241
19947TIP3   OH281331   3.781   6.616  12.467  0.1064 -0.1788 -0.1055
19947TIP3    H181332   3.773   6.595  12.560 -0.3215  0.8302  0.0960
19947TIP3    H281333   3.808   6.533  12.426  1.3038 -0.3854  1.0451
19948TIP3   OH281334   4.479   6.718   5.094 -0.5394 -0.2791  0.3446
19948TIP3    H181335   4.481   6.807   5.128 -0.3083 -0.2175  0.1771
19948TIP3    H281336   4.572   6.695   5.083 -0.6011  0.0391 -1.1106
19949TIP3   OH281337   4.622   4.437   3.388  0.1728 -0.0536 -0.0798
19949TIP3    H181338   4.616   4.469   3.478  0.7875 -1.7776  0.6142
19949TIP3    H281339   4.538   4.395   3.372  0.0310  0.3324 -0.3372
19950TIP3   OH281340   6.628   0.820  16.512 -0.8755 -0.1081 -0.0057
19950TIP3    H181341   6.658   0.739  16.471  0.4828 -0.0670  0.8531
19950TIP3    H281342   6.585   0.791  16.593 -1.0863 -0.0189 -0.0855
19951TIP3   OH281343   3.563   2.950   3.327  0.4471  0.4536  0.2120
19951TIP3    H181344   3.574   3.033   3.374  3.0460  0.6261 -0.5191
19951TIP3    H281345   3.647   2.905   3.337 -0.1370 -1.0945 -1.2540
19952TIP3   OH281346   2.117   1.540   3.387  0.8083 -0.3168 -0.0829
19952TIP3    H181347   2.194   1.555   3.331 -0.3119 -1.4008 -2.0304
19952TIP3    H281348   2.132   1.454   3.426  0.3334 -0.8357 -0.9956
19953TIP3   OH281349   4.132   0.837   5.218 -0.0091 -0.1107 -0.0783
19953TIP3    H181350   4.062   0.790   5.172 -0.0233 -0.6384  0.4762
19953TIP3    H281351   4.099   0.927   5.226  0.0884  0.0538 -1.2887
19954TIP3   OH281352   5.746   5.886  15.962 -0.4041  0.1526 -0.1391
19954TIP3    H181353   5.690   5.963  15.973 -0.0441  0.2098  1.7517
19954TIP3    H281354   5.835   5.920  15.975 -0.2118 -0.5161  0.3288
19955TIP3   OH281355   3.871   3.981  11.548  0.3036 -0.0629  0.1294
19955TIP3    H181356   3.809   3.970  11.620  0.4052 -1.5460  0.0261
19955TIP3    H281357   3.902   3.892  11.530  0.4404  0.3050 -1.6107
19956TIP3   OH281358   3.326   1.268  13.643  0.2439 -0.1468 -0.4939
19956TIP3    H181359   3.263   1.261  13.715 -0.9715  1.4370 -1.3380
19956TIP3    H281360   3.327   1.181  13.603 -0.1740 -0.6366  0.5094
19957TIP3   OH281361   5.569   6.394   3.479 -0.7115  0.1197  0.9286
19957TIP3    H181362   5.638   6.350   3.430 -0.2071  2.5418 -0.6972
19957TIP3    H281363   5.514   6.323   3.512  1.3144 -1.7745  0.4487
19958TIP3   OH281364   1.628   4.657   0.984  0.0657  0.5315  0.1221
19958TIP3    H181365   1.719   4.630   0.989 -0.2315 -0.5357 -0.0526
19958TIP3    H281366   1.613   4.709   1.063  0.5713 -0.0616  0.6100
19959TIP3   OH281367   5.410   6.114  13.276 -0.0752 -0.1709  0.1657
19959TIP3    H181368   5.326   6.141  13.239 -0.6432 -1.3294  0.5708
19959TIP3    H281369   5.456   6.073  13.202 -0.1515 -0.1565  0.1099
19960TIP3   OH281370   1.547   0.862   5.928 -0.5967  0.0574 -0.2579
19960TIP3    H181371   1.500   0.946   5.928 -0.7424 -0.0216 -0.6836
19960TIP3    H281372   1.507   0.813   5.857  2.3094  1.2220 -2.9493
19961TIP3   OH281373   3.816   6.627  11.180  0.5569 -0.4754 -0.2635
19961TIP3    H181374   3.851   6.548  11.221  2.0440  0.7638  0.9537
19961TIP3    H281375   3.858   6.629  11.094  1.3870 -0.4282  0.1374
19962TIP3   OH281376   6.257   2.047  15.167  1.0751 -0.2536 -0.0108
19962TIP3    H181377   6.182   1.994  15.141  1.0816 -0.1421 -0.2568
19962TIP3    H281378   6.227   2.094  15.245  0.7525  0.0961 -0.3427
19963TIP3   OH281379   5.635   3.050   4.343  0.1783  0.1331  0.2909
19963TIP3    H181380   5.595   3.113   4.283 -0.9335  1.4216  2.3081
19963TIP3    H281381   5.661   2.977   4.286 -0.2265  1.5521 -1.8376
19964TIP3   OH281382   4.026   0.247  16.146 -0.0778  0.2360 -0.0855
19964TIP3    H181383   4.074   0.166  16.130  0.5287  0.5536  0.1237
19964TIP3    H281384   4.088   0.304  16.191 -0.2280  1.1373 -0.9919
19965TIP3   OH281385   6.677   3.264  14.758 -0.0905  0.0211  0.1155
19965TIP3    H181386   6.621   3.340  14.775  0.7703  0.7241 -0.1550
19965TIP3    H281387   6.735   3.292  14.687  2.2814  0.2139  1.9857
19966TIP3   OH281388   4.563   5.556  16.066  0.3986 -0.3533 -0.9845
19966TIP3    H181389   4.516   5.493  16.120  1.4578 -1.2872 -1.1151
19966TIP3    H281390   4.583   5.629  16.125 -2.0514  0.5592 -1.1691
19967TIP3   OH281391   4.025   2.745   2.710 -0.1790  0.4242  1.3309
19967TIP3    H181392   4.103   2.778   2.665  0.3638 -2.1923  0.1249
19967TIP3    H281393   3.952   2.774   2.656  0.2579 -0.1451  0.4048
19968TIP3   OH281394   0.230   2.935   0.689  0.3692 -0.6038 -0.2396
19968TIP3    H181395   0.310   2.987   0.678 -2.4660  4.2305 -1.0559
19968TIP3    H281396   0.203   2.915   0.600  0.1989 -1.4432 -0.0029
19969TIP3   OH281397   5.869   1.185  16.643  0.4529  0.3345  0.1807
19969TIP3    H181398   5.773   1.184  16.647  0.4794  0.3108  0.8540
19969TIP3    H281399   5.895   1.265  16.689  0.8026 -0.3040  1.1115
19970TIP3   OH281400   5.789   0.845   4.019  0.1913  0.1947 -0.7344
19970TIP3    H181401   5.838   0.807   4.092 -0.7039 -1.0960 -0.7873
19970TIP3    H281402   5.856   0.888   3.965  1.3707 -1.9981 -1.1112
19971TIP3   OH281403   1.516   5.138   2.283  0.6112 -0.0957 -0.1249
19971TIP3    H181404   1.449   5.195   2.320  1.0050  1.0498 -1.1160
19971TIP3    H281405   1.538   5.078   2.354 -1.2346 -0.3145  0.3229
19972TIP3   OH281406   0.518   0.838   3.289  0.2179 -0.8267  0.1583
19972TIP3    H181407   0.489   0.889   3.214  0.9325 -1.4716 -0.5813
19972TIP3    H281408   0.448   0.847   3.353 -0.5034 -0.4420 -0.6632
19973TIP3   OH281409   4.296   4.331   0.253  0.0293 -0.2576  0.7749
19973TIP3    H181410   4.293   4.312   0.159  0.4391  1.3402  0.4047
19973TIP3    H281411   4.224   4.391   0.268  0.2956 -0.0826  1.3870
19974TIP3   OH281412   2.581   2.772   2.029 -0.4580 -0.1888  0.9020
19974TIP3    H181413   2.626   2.689   2.041 -1.2583 -0.7760  0.0300
19974TIP3    H281414   2.634   2.820   1.965  0.1416  0.0858  1.5981
19975TIP3   OH281415   5.526   4.594   0.558 -0.2409  0.1011  0.1881
19975TIP3    H181416   5.597   4.654   0.577  0.0863  0.1660 -1.1634
19975TIP3    H281417   5.550   4.552   0.475 -1.6728 -0.0147 -0.2049
19976TIP3   OH281418   3.166   3.087   1.909  0.0148 -0.9359  0.7247
19976TIP3    H181419   3.221   3.138   1.968  0.5347 -0.3440 -0.2331
19976TIP3    H281420   3.207   3.001   1.907  0.8746 -0.5368  0.1137
19977TIP3   OH281421   3.102   3.119  15.811 -0.0680  0.3295 -0.4457
19977TIP3    H181422   3.021   3.086  15.850 -1.0007 -0.3932 -2.8128
19977TIP3    H281423   3.117   3.063  15.736  1.8455  1.3895 -0.9242
19978TIP3   OH281424   2.292   6.123  14.568  0.2583  0.1069  0.1224
19978TIP3    H181425   2.246   6.157  14.645 -0.6802 -2.1919  0.6414
19978TIP3    H281426   2.228   6.132  14.497  0.4483  0.5274  0.0040
19979TIP3   OH281427   1.743   0.987  11.054 -0.6735  0.6197  0.2814
19979TIP3    H181428   1.655   0.967  11.087 -0.6673 -0.0199 -0.0804
19979TIP3    H281429   1.755   0.928  10.980  0.2882  0.2810  0.6834
19980TIP3   OH281430   0.759   4.245  11.627 -0.2325 -0.1947 -0.3757
19980TIP3    H181431   0.787   4.278  11.542 -0.9075 -0.2121 -0.6068
19980TIP3    H281432   0.838   4.251  11.682  0.1492  0.0107 -0.9381
19981TIP3   OH281433   0.263   4.556   3.039  0.0618  0.0095 -0.1399
19981TIP3    H181434   0.184   4.585   3.086  2.6067  1.9714  3.4434
19981TIP3    H281435   0.268   4.614   2.963 -0.3057  2.2666  1.4408
19982TIP3   OH281436   0.163   4.915   3.326 -0.5037 -0.7802  0.2826
19982TIP3    H181437   0.128   4.826   3.324  0.7272 -1.2721 -1.7498
19982TIP3    H281438   0.192   4.927   3.417 -0.5510 -2.5146  0.5616
19983TIP3   OH281439   1.172   4.839  16.452 -0.5408  0.2540  0.1945
19983TIP3    H181440   1.097   4.809  16.502 -1.7792  0.7902 -1.2726
19983TIP3    H281441   1.135   4.874  16.370  1.2546  0.9351 -0.3872
19984TIP3   OH281442   2.131   3.165  14.304  0.9524 -0.0222  1.0077
19984TIP3    H181443   2.085   3.244  14.330  0.8024 -0.7665  3.2185
19984TIP3    H281444   2.063   3.107  14.270  1.2284  1.1751 -1.8671
19985TIP3   OH281445   6.310   4.287  15.966  0.0624 -0.0271  0.4263
19985TIP3    H181446   6.306   4.249  16.054  0.5455  0.5396  0.6981
19985TIP3    H281447   6.393   4.335  15.964  0.5531 -0.8702 -0.6824
19986TIP3   OH281448   4.780   0.593   3.201 -0.1439  0.1304  0.3887
19986TIP3    H181449   4.768   0.622   3.111  1.0607  1.7271  0.6999
19986TIP3    H281450   4.715   0.642   3.251 -1.2440 -1.2228  0.3446
19987TIP3   OH281451   0.217   1.810   1.522  0.3744 -0.2964 -0.2360
19987TIP3    H181452   0.155   1.772   1.584  1.2136 -0.3795  0.5844
19987TIP3    H281453   0.203   1.762   1.441  2.2432 -3.3510  1.0778
19988TIP3   OH281454   0.453   3.767   3.117 -0.4323  0.1015  0.3380
19988TIP3    H181455   0.493   3.824   3.052  0.0417 -0.0419  0.4985
19988TIP3    H281456   0.412   3.697   3.066  0.6464 -0.4662  0.2138
19989TIP3   OH281457   0.220   4.657   3.593  0.4151  0.1042  0.4441
19989TIP3    H181458   0.316   4.657   3.590  0.4061  0.7322  0.1112
19989TIP3    H281459   0.199   4.709   3.671  0.3368  0.5224  0.1446
19990TIP3   OH281460   3.255   1.014  13.978 -0.1864 -0.1990 -0.1235
19990TIP3    H181461   3.194   0.941  13.973 -0.8677  0.3736 -0.4813
19990TIP3    H281462   3.215   1.082  13.923  1.8602 -0.5624 -2.2204
19991TIP3   OH281463   3.894   6.617   1.428  0.2348 -0.0514 -0.4499
19991TIP3    H181464   3.898   6.522   1.444  1.0726  0.0461 -0.0154
19991TIP3    H281465   3.974   6.651   1.467  1.3020  0.5057 -2.9352
19992TIP3   OH281466   4.086   5.402   0.845 -0.3254  0.1702 -0.1118
19992TIP3    H181467   4.119   5.484   0.808 -0.5898 -0.5619 -2.1234
19992TIP3    H281468   4.141   5.387   0.921  1.0843  1.2139 -0.8619
19993TIP3   OH281469   5.634   1.749   1.339  0.0409  0.1275 -0.6068
19993TIP3    H181470   5.638   1.657   1.367 -0.9226  0.9169  2.5711
19993TIP3    H281471   5.551   1.755   1.291 -0.4460 -0.4526  0.1374
19994TIP3   OH281472   0.484   3.733   1.258 -0.3230  0.4058 -0.6797
19994TIP3    H181473   0.502   3.732   1.352 -0.3441 -3.5507 -0.5619
19994TIP3    H281474   0.394   3.703   1.251  0.1784 -0.8978 -1.9634
19995TIP3   OH281475   0.210   2.485  11.475  0.3006 -0.1011 -0.2439
19995TIP3    H181476   0.257   2.471  11.393  0.2070 -1.7249 -0.0651
19995TIP3    H281477   0.233   2.409  11.529  0.5004  1.0133  1.3124
19996TIP3   OH281478   1.736   3.411  13.941  0.8270 -0.1152 -0.2210
19996TIP3    H181479   1.690   3.438  14.020  1.3266 -1.4140  0.5544
19996TIP3    H281480   1.778   3.491  13.909 -0.4135  0.6944  0.1000
19997TIP3   OH281481   3.404   3.384   2.318  0.6968  0.0879 -0.1348
19997TIP3    H181482   3.371   3.315   2.375  0.0817 -0.2198 -0.8441
19997TIP3    H281483   3.373   3.465   2.358  0.9350 -0.0774  0.3886
19998TIP3   OH281484   2.337   1.923  13.875  0.2826  0.2835  0.0100
19998TIP3    H181485   2.417   1.877  13.900  0.4097  0.6820  0.3460
19998TIP3    H281486   2.322   1.896  13.784  0.3339 -0.4398  0.2156
19999TIP3   OH281487   5.007   1.176  14.402  0.0073 -0.2293  0.3555
19999TIP3    H181488   4.953   1.109  14.443  0.1212  0.0999  1.0588
19999TIP3    H281489   4.976   1.259  14.440 -0.6819  0.2144 -1.1018
20000TIP3   OH281490   6.492   5.296   4.428 -0.4456 -0.1338  0.0210
20000TIP3    H181491   6.515   5.357   4.497 -2.2129  0.2179  0.3631
20000TIP3    H281492   6.522   5.210   4.459 -0.3706  0.1656  0.7750
20001TIP3   OH281493   0.035   5.357   5.824 -0.4091  0.9049 -0.5350
20001TIP3    H181494   0.047   5.279   5.878  1.0253  1.0134 -0.6680
20001TIP3    H281495  -0.050   5.344   5.783  0.1316 -1.0002 -1.1856
20002TIP3   OH281496   0.170   1.806  16.792 -0.0928 -0.2967  0.1058
20002TIP3    H181497   0.237   1.866  16.760 -2.7829  2.7596 -0.3199
20002TIP3    H281498   0.087   1.847  16.766 -2.2207 -4.7414 -1.1125
20003TIP3   OH281499   1.739   6.479   5.246 -0.4752  0.5796 -0.3090
20003TIP3    H181500   1.693   6.475   5.330 -2.0508 -1.6001 -1.1823
20003TIP3    H281501   1.723   6.568   5.214 -2.1639  0.6087  0.4944
20004TIP3   OH281502   6.438   4.108   3.415 -0.3566 -0.1284  0.0251
20004TIP3    H181503   6.415   4.200   3.430  0.6010  0.1400 -0.1137
20004TIP3    H281504   6.498   4.086   3.487  0.8128 -0.1215 -0.9272
20005TIP3   OH281505   4.311   5.951   0.192 -0.1847  0.2547 -0.2940
20005TIP3    H181506   4.290   6.009   0.265  1.8757 -0.1502  0.6778
20005TIP3    H281507   4.320   6.009   0.117 -3.5798  0.5639 -0.6240
20006TIP3   OH281508   5.306   1.794   1.391  0.5408  0.6482 -0.1290
20006TIP3    H181509   5.332   1.885   1.402  0.5942  0.4681  1.4503
20006TIP3    H281510   5.296   1.760   1.480  1.6133 -1.2037 -0.6435
20007TIP3   OH281511   4.432   4.380  15.178  0.1258 -0.0918  0.0267
20007TIP3    H181512   4.488   4.319  15.227  0.7397  0.0542 -0.4923
20007TIP3    H281513   4.481   4.462  15.177  0.9578 -0.5327 -2.2997
20008TIP3   OH281514   5.117   1.374   4.835  0.1470  0.2616  0.3990
20008TIP3    H181515   5.171   1.309   4.788 -0.5183 -0.3046  0.3937
20008TIP3    H281516   5.177   1.445   4.854  1.0848 -0.6677  1.0435
20009TIP3   OH281517   0.889   2.507   3.607 -0.1358  0.7890  0.2640
20009TIP3    H181518   0.850   2.529   3.523  0.2792  1.7331  0.3070
20009TIP3    H281519   0.966   2.564   3.614  0.4617 -0.0577  0.7918
20010TIP3   OH281520   4.336   3.084   2.998  0.0932 -0.1375  0.9466
20010TIP3    H181521   4.343   3.087   2.903  2.0983  3.3727  1.0118
20010TIP3    H281522   4.260   3.137   3.019 -0.1380 -0.6102  1.3328
20011TIP3   OH281523   6.315   3.895   5.055 -0.0195 -0.5146 -0.2095
20011TIP3    H181524   6.272   3.891   4.970  2.4966  2.7681 -1.8929
20011TIP3    H281525   6.377   3.823   5.054 -1.3971 -1.7534 -0.1882
20012TIP3   OH281526   1.204   1.674   3.867  0.1373 -0.1493 -0.0361
20012TIP3    H181527   1.258   1.653   3.942 -0.5341 -0.4886  0.3627
20012TIP3    H281528   1.205   1.595   3.813  0.1543 -0.1055 -0.1002
20013TIP3   OH281529   0.509   2.991  16.187  0.2057  0.3605  0.1046
20013TIP3    H181530   0.573   3.057  16.162 -0.2251  0.1457 -1.7398
20013TIP3    H281531   0.553   2.938  16.254  1.7481  0.5744 -0.6924
20014TIP3   OH281532   1.422   4.646  13.641 -0.3115 -0.4553 -0.6480
20014TIP3    H181533   1.450   4.558  13.665 -1.5106 -1.2935 -2.1514
20014TIP3    H281534   1.405   4.689  13.724  1.2892 -1.2788  0.1524
20015TIP3   OH281535   4.381   5.034  11.267  0.2594 -0.1231 -0.4554
20015TIP3    H181536   4.433   4.954  11.258  0.0836 -0.0422 -3.3933
20015TIP3    H281537   4.384   5.074  11.180  0.6403  3.3252  0.9841
20016TIP3   OH281538   0.918   2.109  12.072  0.4527 -0.5505 -0.3475
20016TIP3    H181539   0.968   2.180  12.033 -0.4956  1.0198  1.1447
20016TIP3    H281540   0.827   2.136  12.063  0.0345 -1.8715 -0.2796
20017TIP3   OH281541   5.284   1.677   2.358  0.0863 -0.3869 -0.4924
20017TIP3    H181542   5.330   1.718   2.284  0.3735  0.9020  0.3697
20017TIP3    H281543   5.211   1.736   2.377 -0.4942 -1.1521 -0.2669
20018TIP3   OH281544   4.907   3.441  11.588 -0.0432  0.2489 -0.0047
20018TIP3    H181545   4.985   3.494  11.571  0.2070  0.4638  1.5820
20018TIP3    H281546   4.927   3.396  11.671 -1.5029  0.1127  0.2997
20019TIP3   OH281547   1.463   3.758   5.728 -0.4886 -0.7161  0.4399
20019TIP3    H181548   1.480   3.833   5.784 -0.2677 -1.0277  0.7886
20019TIP3    H281549   1.380   3.779   5.684 -0.0275  0.0772 -0.0524
20020TIP3   OH281550   5.819   4.127  12.794 -0.8868 -0.1885 -0.2157
20020TIP3    H181551   5.847   4.036  12.790  0.3776  0.2063 -0.7077
20020TIP3    H281552   5.875   4.167  12.860  0.2812  0.7930 -1.7402
20021TIP3   OH281553   1.065   5.795   2.334 -0.6966 -0.5886 -0.1624
20021TIP3    H181554   1.011   5.780   2.256 -0.9297 -1.1215  0.0973
20021TIP3    H281555   1.013   5.761   2.406 -0.1800 -0.7458  0.1412
20022TIP3   OH281556   1.369   2.051   4.289 -0.0258  0.0973  0.0565
20022TIP3    H181557   1.378   2.087   4.201  0.0554  1.0231  0.4411
20022TIP3    H281558   1.364   2.127   4.346  2.7311 -0.4316  1.1715
20023TIP3   OH281559   0.082   4.432  11.126  0.8355  0.2823  0.0450
20023TIP3    H181560   0.120   4.375  11.060  0.4906  0.7971 -0.6105
20023TIP3    H281561   0.022   4.488  11.077  0.5509  0.6495  0.8023
20024TIP3   OH281562   6.760   1.304   2.026 -0.0410 -0.5562  0.4516
20024TIP3    H181563   6.671   1.286   1.993 -0.8743  1.5021  1.4380
20024TIP3    H281564   6.818   1.267   1.959 -1.6632  0.4197 -1.5956
20025TIP3   OH281565   2.986   0.351  13.160  0.1400  0.1266  0.1669
20025TIP3    H181566   2.931   0.370  13.236  0.9172  1.2942  0.4579
20025TIP3    H281567   3.068   0.319  13.196  2.0795  4.3887  0.1792
20026TIP3   OH281568   6.223   2.430   0.087  0.3933  0.0122 -0.0783
20026TIP3    H181569   6.135   2.421   0.122  0.5391  0.1830  0.3338
20026TIP3    H281570   6.220   2.386   0.002 -0.9508  2.6150 -1.5167
20027TIP3   OH281571   0.963   3.987  14.440 -0.3329 -0.8892  0.0013
20027TIP3    H181572   0.987   4.061  14.384 -1.0331 -0.1638  0.6404
20027TIP3    H281573   0.884   4.016  14.486 -1.4209 -2.5471 -0.7214
20028TIP3   OH281574   1.530   6.063   0.471  0.0102 -0.2326  0.0776
20028TIP3    H181575   1.530   5.977   0.429 -0.9016  0.6919 -1.9025
20028TIP3    H281576   1.547   6.125   0.401  1.5541  1.1996  1.6087
20029TIP3   OH281577   3.048   4.351  14.424 -0.3839 -0.5076  0.0776
20029TIP3    H181578   3.030   4.280  14.362 -0.2136 -0.7515  0.3051
20029TIP3    H281579   2.980   4.341  14.491  0.9804 -1.8965  1.3469
20030TIP3   OH281580   1.440   4.324  14.905  0.2141 -0.2406  0.1939
20030TIP3    H181581   1.414   4.387  14.972  1.0512  0.9236 -0.5420
20030TIP3    H281582   1.507   4.370  14.854  0.3798 -1.5023 -0.7602
20031TIP3   OH281583   4.187   1.003  15.818  0.2032  0.6167 -0.5647
20031TIP3    H181584   4.133   1.000  15.897 -1.0358  1.9533 -1.2998
20031TIP3    H281585   4.172   0.918  15.776 -1.2470  0.8909 -0.6708
20032TIP3   OH281586   0.167   5.237   3.257  0.2543  0.0005  0.2997
20032TIP3    H181587   0.194   5.167   3.316  0.7663  1.0577  1.3708
20032TIP3    H281588   0.225   5.228   3.181 -1.1087 -2.0140 -0.5734
20033TIP3   OH281589   2.452   1.670  16.346  0.0228 -0.0692  0.0242
20033TIP3    H181590   2.414   1.709  16.425 -1.4244  2.1660 -1.6713
20033TIP3    H281591   2.528   1.724  16.327  1.0523 -1.3130  0.4676
20034TIP3   OH281592   6.240   3.228  15.794 -0.8099  0.1228 -0.0927
20034TIP3    H181593   6.238   3.165  15.723 -1.8062 -0.0990  0.1183
20034TIP3    H281594   6.285   3.183  15.866 -1.5311 -0.3650  0.0623
20035TIP3   OH281595   1.715   3.233  11.216  0.2203 -0.5617 -0.3434
20035TIP3    H181596   1.785   3.297  11.227 -1.1660  0.8426  0.6918
20035TIP3    H281597   1.670   3.260  11.136 -0.6094  0.0326  0.3073
20036TIP3   OH281598   1.190   5.993  13.694 -0.4607  0.0915  0.1756
20036TIP3    H181599   1.222   6.059  13.632  0.3455 -0.3470  0.0971
20036TIP3    H281600   1.095   5.995  13.685 -0.3504 -0.6561 -1.8633
20037TIP3   OH281601   4.073   1.812  12.395  0.1939 -0.5945 -0.4351
20037TIP3    H181602   4.077   1.717  12.386 -0.6952 -0.8040  1.0781
20037TIP3    H281603   3.988   1.836  12.359 -0.3101 -0.5985  0.7120
20038TIP3   OH281604   2.567   6.042   2.247 -0.6187 -0.0674 -0.4061
20038TIP3    H181605   2.565   6.066   2.340 -1.0692  1.6709 -0.8198
20038TIP3    H281606   2.499   5.975   2.238 -2.7830  1.9389  0.0229
20039TIP3   OH281607   3.819   5.376  13.235 -0.1610  0.1426  0.2767
20039TIP3    H181608   3.896   5.416  13.194  0.0355 -0.3187  0.1884
20039TIP3    H281609   3.767   5.344  13.162 -0.7022  0.9229  0.3115
20040TIP3   OH281610   4.188   6.792  13.198 -0.1579  0.0608  0.0031
20040TIP3    H181611   4.282   6.807  13.204  0.0367 -0.7812 -0.7438
20040TIP3    H281612   4.162   6.767  13.287  0.1176  1.3388  0.4611
20041TIP3   OH281613   0.074   3.145   1.645 -0.3433 -0.1232  0.6230
20041TIP3    H181614   0.080   3.207   1.572 -0.2620 -0.2429  0.5275
20041TIP3    H281615   0.059   3.060   1.603  2.0638 -0.6062  0.5860
20042TIP3   OH281616   2.275   4.167   4.875 -0.1867  0.1409  0.3575
20042TIP3    H181617   2.346   4.188   4.814  0.7964 -0.1031  1.3840
20042TIP3    H281618   2.319   4.126   4.949 -1.4602 -0.3884  0.8387
20043TIP3   OH281619   0.936   6.150  10.709  0.1225 -0.6854 -0.6616
20043TIP3    H181620   0.971   6.239  10.719  2.2212 -1.5398  0.1392
20043TIP3    H281621   0.941   6.113  10.797 -0.3629 -1.7182 -1.0655
20044TIP3   OH281622   0.015   3.129  14.493 -0.3120 -0.3739 -0.0677
20044TIP3    H181623  -0.056   3.065  14.486 -0.4336 -0.0967 -2.2976
20044TIP3    H281624   0.062   3.105  14.573 -3.7063  0.3202  2.3461
20045TIP3   OH281625   5.458   0.967  12.138  0.8829  0.1088  0.1166
20045TIP3    H181626   5.477   0.905  12.209 -1.8832 -0.9224  0.0524
20045TIP3    H281627   5.401   1.032  12.178 -2.3244 -1.5317 -1.4529
20046TIP3   OH281628   6.618   1.418   4.978 -0.2195 -0.0963  0.2439
20046TIP3    H181629   6.678   1.355   5.017 -0.2094  0.3939  1.0341
20046TIP3    H281630   6.645   1.422   4.886  1.3104  0.5050  0.6920
20047TIP3   OH281631   6.637   4.488  16.682  0.0706 -0.3238 -0.9502
20047TIP3    H181632   6.614   4.568  16.730  1.2168  0.1851 -1.2040
20047TIP3    H281633   6.554   4.455  16.648 -0.2426  1.9087 -2.6010
20048TIP3   OH281634   3.632   0.321   2.247  0.1508  0.5083  0.1543
20048TIP3    H181635   3.604   0.295   2.159 -0.3332 -0.6566  0.6419
20048TIP3    H281636   3.707   0.379   2.232  0.6347 -0.3766 -1.0063
20049TIP3   OH281637   6.049   4.015  15.210  0.5014 -0.0600  0.2419
20049TIP3    H181638   5.964   4.056  15.196  0.5304 -0.1865 -0.3487
20049TIP3    H281639   6.113   4.080  15.179  0.5498 -0.5113 -0.6411
20050TIP3   OH281640   6.022   3.715  12.722  0.3568 -0.2689  0.8469
20050TIP3    H181641   6.115   3.694  12.716  0.0669 -1.2845 -0.9461
20050TIP3    H281642   6.018   3.794  12.776  2.4407  1.0404 -0.7650
20051TIP3   OH281643   2.727   0.798   4.608  0.6143  0.0751 -0.4989
20051TIP3    H181644   2.696   0.883   4.639  1.0047  0.3810 -0.9395
20051TIP3    H281645   2.693   0.791   4.518  2.8050  0.9835 -1.4905
20052TIP3   OH281646   5.823   0.858  12.698  0.1160  0.2478 -0.2157
20052TIP3    H181647   5.845   0.815  12.781 -0.2250  0.0639 -0.2198
20052TIP3    H281648   5.907   0.871  12.655  0.3725  0.9670  0.4602
20053TIP3   OH281649   5.071   1.230  11.096 -0.0584  0.9549  0.2277
20053TIP3    H181650   5.075   1.242  11.191 -0.9026  1.2515  0.2315
20053TIP3    H281651   5.114   1.308  11.060  4.1592 -1.0147  0.3626
20054TIP3   OH281652   3.437   0.885  11.315 -0.2937 -0.3629 -0.1383
20054TIP3    H181653   3.386   0.856  11.391 -1.5217 -1.9088 -1.4745
20054TIP3    H281654   3.512   0.931  11.352 -2.5706  1.9873  1.9611
20055TIP3   OH281655   3.951   4.857   6.540 -0.4017  0.0881  0.1243
20055TIP3    H181656   3.975   4.765   6.550 -1.1307 -0.3044 -1.4488
20055TIP3    H281657   3.863   4.863   6.576 -1.3467 -0.4052 -2.0000
20056TIP3   OH281658   2.023   1.454   1.831  0.2577  0.0936  0.3620
20056TIP3    H181659   2.031   1.549   1.837  1.1664  0.0244  0.4836
20056TIP3    H281660   2.114   1.423   1.826 -0.0474 -0.6899 -0.8566
20057TIP3   OH281661   4.249   3.003  11.166 -0.3645 -0.0080  0.7900
20057TIP3    H181662   4.325   2.948  11.145 -0.2065 -0.3943  2.2825
20057TIP3    H281663   4.186   2.982  11.097  0.8004  0.1985 -0.3846
20058TIP3   OH281664   4.178   6.698   4.290 -0.4610  0.2972 -0.3303
20058TIP3    H181665   4.084   6.714   4.293 -0.5411 -0.2477  1.6406
20058TIP3    H281666   4.212   6.737   4.371  0.9035 -0.1420 -0.6534
20059TIP3   OH281667   4.061   4.685  13.176  0.2487 -0.6297  0.2171
20059TIP3    H181668   4.137   4.677  13.234  1.0892 -0.8219 -0.8900
20059TIP3    H281669   4.076   4.621  13.107 -0.7454 -0.4158 -0.2156
20060TIP3   OH281670   1.293   4.846  16.801 -0.2749 -0.0026  0.0406
20060TIP3    H181671   1.302   4.801  16.886 -0.6210 -1.4415 -0.6542
20060TIP3    H281672   1.319   4.781  16.736 -0.0695  1.0650 -0.9758
20061TIP3   OH281673   4.221   2.374   3.615  0.0306 -0.3401 -0.0626
20061TIP3    H181674   4.304   2.390   3.569  0.3169  0.0240  0.5656
20061TIP3    H281675   4.181   2.461   3.623 -0.6783 -0.5863 -0.8481
20062TIP3   OH281676   4.929   2.648   4.586  0.0046  0.4804 -0.4366
20062TIP3    H181677   4.852   2.595   4.565  0.5294  0.8004 -3.5737
20062TIP3    H281678   4.999   2.610   4.534  1.0858  2.4591 -0.4939
20063TIP3   OH281679   1.762   0.922   5.022  0.1192 -0.0139 -0.2869
20063TIP3    H181680   1.688   0.889   4.971 -1.4505  0.5250  1.5109
20063TIP3    H281681   1.803   0.844   5.059 -0.9490 -0.2101  0.5137
20064TIP3   OH281682   3.052   4.776   0.243 -0.3455 -0.4169  0.5652
20064TIP3    H181683   2.979   4.813   0.194 -0.1513 -0.1178  0.4982
20064TIP3    H281684   3.014   4.748   0.326 -0.1884  1.4360  1.2866
20065TIP3   OH281685   0.511   4.767   1.640  0.5567  0.0815 -0.4994
20065TIP3    H181686   0.418   4.746   1.647  0.9734 -2.1365 -0.7894
20065TIP3    H281687   0.515   4.863   1.638 -1.8698  0.2189 -2.7992
20066TIP3   OH281688   3.203   1.670   3.083  0.2747 -0.8553  0.6988
20066TIP3    H181689   3.128   1.622   3.048 -0.2827  1.3190 -1.3726
20066TIP3    H281690   3.279   1.614   3.065 -0.4275 -1.3176 -0.9907
20067TIP3   OH281691   0.484   1.888  16.391 -0.2023 -0.5604  0.2949
20067TIP3    H181692   0.416   1.937  16.344  2.3482  1.1774 -1.8628
20067TIP3    H281693   0.476   1.798  16.359 -2.7708 -0.9457  1.7434
20068TIP3   OH281694   4.906   3.820   3.365 -0.5088  0.1539  0.4108
20068TIP3    H181695   4.842   3.886   3.338 -0.1163  0.7965  1.0138
20068TIP3    H281696   4.857   3.738   3.367 -1.4195  0.6983  1.2633
20069TIP3   OH281697   2.952   4.375  11.293 -0.0336 -0.5717 -0.1503
20069TIP3    H181698   3.014   4.426  11.241  0.3797 -1.2174 -0.3006
20069TIP3    H281699   2.937   4.428  11.371  2.0603 -1.1645  0.7214
20070TIP3   OH281700   5.883   2.723  11.549 -0.0561 -0.0245  0.2560
20070TIP3    H181701   5.822   2.713  11.476  0.0277  1.3243 -0.0248
20070TIP3    H281702   5.969   2.729  11.508  0.2541 -1.6244  0.6346
20071TIP3   OH281703   1.708   2.662  13.643 -0.3184  0.7185 -0.1193
20071TIP3    H181704   1.776   2.689  13.581 -1.5447  3.2066 -0.4755
20071TIP3    H281705   1.627   2.668  13.593 -0.8857 -2.3840  0.2479
20072TIP3   OH281706   2.015   3.894   0.798 -0.4119 -0.4921 -0.1178
20072TIP3    H181707   1.970   3.823   0.844  0.7978 -1.5751 -0.5540
20072TIP3    H281708   1.974   3.895   0.711 -1.5580  0.4636  0.4045
20073TIP3   OH281709   0.151   6.424  15.808 -0.2662  0.3774  0.7546
20073TIP3    H181710   0.200   6.480  15.869  0.4515  1.2811 -0.6055
20073TIP3    H281711   0.075   6.396  15.859  0.1135  1.3870  1.9612
20074TIP3   OH281712   1.680   2.237  14.054 -0.2461 -0.2686  0.0683
20074TIP3    H181713   1.760   2.286  14.037 -0.3209 -0.6632 -1.6632
20074TIP3    H281714   1.688   2.158  14.000 -2.5783  0.5671 -1.7158
20075TIP3   OH281715   1.190   2.546  13.563  0.3377 -0.1118 -0.4671
20075TIP3    H181716   1.249   2.588  13.500  0.4792 -0.2841 -0.4513
20075TIP3    H281717   1.103   2.578  13.539  0.5421  0.9138  0.1381
20076TIP3   OH281718   0.464   6.196   1.436 -0.0161 -0.0662 -0.0950
20076TIP3    H181719   0.374   6.225   1.420  0.3717  0.5732 -1.2571
20076TIP3    H281720   0.458   6.101   1.439 -1.4140 -0.0862  4.3835
20077TIP3   OH281721   0.169   2.791   5.909 -0.0593 -0.0237  0.0461
20077TIP3    H181722   0.221   2.719   5.945  1.5621  0.1102 -1.8587
20077TIP3    H281723   0.094   2.749   5.868  1.2989 -0.7602 -1.7695
20078TIP3   OH281724   5.145   4.232  10.947 -0.1336  0.7270 -0.3460
20078TIP3    H181725   5.155   4.138  10.933 -2.3730  0.7776 -3.3227
20078TIP3    H281726   5.129   4.268  10.859 -0.9627  3.6481  0.8745
20079TIP3   OH281727   4.039   0.331  11.058 -0.1389 -0.8066 -0.1705
20079TIP3    H181728   3.984   0.263  11.017  1.0697 -2.0648  0.2130
20079TIP3    H281729   4.128   0.306  11.035  0.4008 -0.0240  1.0072
20080TIP3   OH281730   5.362   3.545  12.467  0.2728  0.0074 -0.2509
20080TIP3    H181731   5.458   3.549  12.476  0.3136 -0.6405 -0.3387
20080TIP3    H281732   5.340   3.620  12.412  0.5886  0.9184  0.8537
20081TIP3   OH281733   2.795   5.914  15.009 -0.1968  0.4230  0.0669
20081TIP3    H181734   2.788   5.955  14.922  0.8545 -2.9113 -1.7446
20081TIP3    H281735   2.705   5.888  15.030 -0.4245  1.0367 -0.1065
20082TIP3   OH281736   4.806   6.423  13.925  0.0616 -0.5370  0.3346
20082TIP3    H181737   4.869   6.459  13.988  0.1441 -0.5143  0.2402
20082TIP3    H281738   4.860   6.378  13.860 -0.0532 -1.0310  0.5768
20083TIP3   OH281739   1.920   0.683  12.424 -0.0077 -0.1847  0.1114
20083TIP3    H181740   2.002   0.634  12.425 -0.0790 -0.2994  0.4028
20083TIP3    H281741   1.925   0.737  12.345 -0.3834 -1.4246 -0.7878
20084TIP3   OH281742   0.530   3.639   4.102 -0.5890 -0.6197  0.1388
20084TIP3    H181743   0.584   3.656   4.179 -1.1063 -0.4685  0.4758
20084TIP3    H281744   0.440   3.651   4.133 -0.7690  0.3321 -0.7050
20085TIP3   OH281745   5.702   4.212  12.560 -0.0324 -0.0698 -0.0750
20085TIP3    H181746   5.737   4.187  12.645 -1.8872  0.9282  1.0373
20085TIP3    H281747   5.669   4.301  12.572 -1.0300 -0.1893 -1.6136
20086TIP3   OH281748   5.172   3.098   2.378  0.2890  0.2218 -0.3655
20086TIP3    H181749   5.188   3.192   2.378  0.8255  0.2565  2.7729
20086TIP3    H281750   5.158   3.075   2.286 -1.3029  3.5599 -1.0897
20087TIP3   OH281751   0.034   5.911   0.739  0.3206  0.0502  0.4438
20087TIP3    H181752   0.039   5.983   0.802 -1.5197  0.7594 -0.1601
20087TIP3    H281753  -0.001   5.838   0.789  0.0691  0.2352  0.5395
20088TIP3   OH281754   3.793   6.145  13.764  0.4013  0.2076 -0.7419
20088TIP3    H181755   3.852   6.103  13.702 -0.6987 -0.3867 -1.4179
20088TIP3    H281756   3.705   6.124  13.732 -0.2048 -0.1126  1.0072
20089TIP3   OH281757   2.607   6.743  15.284  1.1584 -0.2858  0.1196
20089TIP3    H181758   2.537   6.679  15.291  1.0930 -0.0252  2.7602
20089TIP3    H281759   2.620   6.754  15.190 -3.0917  0.4619 -0.6087
20090TIP3   OH281760   2.266   1.289   1.824 -0.0472 -0.1277  0.3091
20090TIP3    H181761   2.270   1.238   1.743  2.8481  1.0206 -0.3887
20090TIP3    H281762   2.309   1.233   1.889  0.6140  0.2621  0.2174
20091TIP3   OH281763   3.196   0.928  14.631  0.5454 -0.2437  0.2878
20091TIP3    H181764   3.211   0.938  14.537  0.2271  1.6003  0.3823
20091TIP3    H281765   3.281   0.904  14.667  1.0324  0.5399 -0.3091
20092TIP3   OH281766   2.151   5.918   1.076 -0.4444 -0.5359 -0.2315
20092TIP3    H181767   2.137   5.903   1.169  0.1882 -1.9030 -0.3202
20092TIP3    H281768   2.182   6.008   1.069 -0.5780 -0.3973  0.8671
20093TIP3   OH281769   1.107   2.340  15.089 -0.3444 -0.0533  0.2830
20093TIP3    H181770   1.029   2.380  15.128  0.6076  0.9459  1.2366
20093TIP3    H281771   1.092   2.246  15.098 -1.8350  0.0921 -0.3822
20094TIP3   OH281772   3.495   2.921   6.361 -0.2644 -0.3181 -0.6097
20094TIP3    H181773   3.415   2.967   6.387 -0.4763 -0.7995 -0.3897
20094TIP3    H281774   3.468   2.829   6.355  0.3220 -0.5074 -0.3445
20095TIP3   OH281775   0.582   3.306   3.562  0.1094 -0.1309 -0.3653
20095TIP3    H181776   0.604   3.270   3.477  1.4326  1.5545 -0.7932
20095TIP3    H281777   0.488   3.324   3.557  0.1380 -0.2259 -1.3859
20096TIP3   OH281778   0.151   0.929   3.173  0.0682 -0.6248  0.4255
20096TIP3    H181779   0.157   0.834   3.182  1.0714 -0.4784  1.4436
20096TIP3    H281780   0.128   0.961   3.260  1.5808  0.1942  0.5522
20097TIP3   OH281781   5.919   5.094  13.594 -0.2063  0.3510  0.3038
20097TIP3    H181782   5.995   5.148  13.617  0.1751 -1.0101  2.5458
20097TIP3    H281783   5.848   5.127  13.649 -0.3878 -0.3796  0.5222
20098TIP3   OH281784   4.027   3.636   2.321 -0.4255  0.8253  0.3779
20098TIP3    H181785   4.034   3.556   2.372  0.1059  0.1571 -0.7184
20098TIP3    H281786   4.117   3.656   2.294 -0.6324  1.4370  0.1169
20099TIP3   OH281787   6.534   3.452  13.784 -0.4030  0.3982 -0.4912
20099TIP3    H181788   6.481   3.391  13.732 -0.3118 -1.0472  1.0178
20099TIP3    H281789   6.622   3.444  13.749 -0.4492 -0.1523 -0.4929
20100TIP3   OH281790   5.673   6.690  14.271  0.1667 -0.5439  0.6322
20100TIP3    H181791   5.650   6.656  14.185  1.9480 -0.1344 -0.0567
20100TIP3    H281792   5.659   6.617  14.331 -1.0174 -0.8553 -0.0055
20101TIP3   OH281793   0.132   4.705   4.520 -0.2746 -0.0583 -0.2150
20101TIP3    H181794   0.128   4.620   4.562 -0.5203 -0.3026 -0.7195
20101TIP3    H281795   0.069   4.759   4.568  0.5658  0.1244  0.7123
20102TIP3   OH281796   3.262   6.033   1.842  0.5779 -0.1117  0.0380
20102TIP3    H181797   3.297   6.072   1.923 -0.1570 -1.3142  0.9678
20102TIP3    H281798   3.294   5.943   1.844  0.9398 -0.0313 -1.2760
20103TIP3   OH281799   6.116   4.269  16.703 -0.3504  0.1563 -0.4676
20103TIP3    H181800   6.103   4.193  16.760 -0.4596  0.7412  0.3097
20103TIP3    H281801   6.027   4.297  16.681 -0.4231  1.6007  1.3813
20104TIP3   OH281802   1.408   1.078  12.782 -0.1751 -0.3648 -0.5392
20104TIP3    H181803   1.384   1.127  12.861 -1.3697 -0.5716 -0.7653
20104TIP3    H281804   1.326   1.068  12.734  0.2236 -1.7901 -0.9542
20105TIP3   OH281805   1.294   2.292   3.018  0.0046 -0.7013 -0.3150
20105TIP3    H181806   1.362   2.291   2.950 -0.2080 -0.9036 -0.5297
20105TIP3    H281807   1.214   2.314   2.970 -0.1564 -0.9031 -0.1406
20106TIP3   OH281808   5.061   3.688  13.610 -0.0552 -0.5276 -0.6655
20106TIP3    H181809   5.136   3.702  13.553 -0.6795  0.3917 -1.2850
20106TIP3    H281810   5.099   3.658  13.692  1.0291  0.3824 -0.8092
20107TIP3   OH281811   0.331   4.250   1.966  0.6874 -0.1722 -0.0163
20107TIP3    H181812   0.383   4.329   1.958 -0.8217  0.9108  0.3018
20107TIP3    H281813   0.241   4.282   1.980  0.3777 -1.8936  2.6957
20108TIP3   OH281814   5.031   1.745  13.838 -0.0748 -0.1974 -0.0759
20108TIP3    H181815   4.986   1.686  13.898 -1.7708  1.2798  0.1949
20108TIP3    H281816   5.111   1.770  13.884 -1.6246  1.4010  1.9376
20109TIP3   OH281817   6.041   1.187   4.501 -0.3281 -0.0006  0.9090
20109TIP3    H181818   6.117   1.178   4.444 -0.5519 -0.9989  0.7493
20109TIP3    H281819   6.058   1.266   4.552  0.0575  0.6898 -0.2659
20110TIP3   OH281820   2.788   1.944   0.034  0.3237  0.0273 -0.1551
20110TIP3    H181821   2.854   2.006   0.003  0.9104 -0.9971 -1.0365
20110TIP3    H281822   2.713   1.959  -0.024 -0.4955  1.6153  1.2360
20111TIP3   OH281823   6.275   4.970   1.401 -0.2565 -0.3055 -0.0331
20111TIP3    H181824   6.215   4.976   1.475 -0.7076  0.5039 -0.4574
20111TIP3    H281825   6.270   5.055   1.358 -1.6320 -1.3877 -2.2351
20112TIP3   OH281826   1.251   1.435  10.714 -0.3855 -0.6019 -0.1616
20112TIP3    H181827   1.231   1.527  10.728  1.1354  0.2048 -2.5242
20112TIP3    H281828   1.209   1.414  10.630  0.4912 -1.6119 -0.3697
20113TIP3   OH281829   6.530   3.215   6.344 -0.3350 -0.4330 -0.1528
20113TIP3    H181830   6.522   3.137   6.399 -2.8629 -1.3343 -1.6521
20113TIP3    H281831   6.449   3.217   6.294  1.4350  0.8743 -3.1874
20114TIP3   OH281832   6.368   3.761  14.393 -0.2841  0.3032 -0.6021
20114TIP3    H181833   6.349   3.668  14.406  1.0739  0.0491 -0.2627
20114TIP3    H281834   6.406   3.790  14.476  0.0049  0.9728 -0.9597
20115TIP3   OH281835   0.060   3.364  10.891 -0.3786 -0.4206 -0.0923
20115TIP3    H181836   0.048   3.397  10.802 -0.0446 -1.2273 -0.4460
20115TIP3    H281837   0.079   3.271  10.879 -0.6335 -0.5959  0.8436
20116TIP3   OH281838   0.522   5.838  13.156  0.0505 -0.1245 -0.1403
20116TIP3    H181839   0.471   5.919  13.156 -1.0763 -0.7988  1.7016
20116TIP3    H281840   0.458   5.768  13.164  1.1369 -1.0916  0.4565
20117TIP3   OH281841   6.489   3.993  14.212 -0.4004 -0.4505 -0.0946
20117TIP3    H181842   6.434   3.938  14.267  0.0150 -0.7834 -0.0016
20117TIP3    H281843   6.572   3.945  14.205 -0.1838 -0.0495 -0.3789
20118TIP3   OH281844   0.930   0.769   5.101  0.1881 -0.1964  0.1355
20118TIP3    H181845   0.881   0.833   5.152  3.2703  1.7868  0.8387
20118TIP3    H281846   0.998   0.738   5.160 -0.1629 -2.9712 -0.7451
20119TIP3   OH281847   3.818   3.032   2.087 -0.1014 -0.3180 -0.5145
20119TIP3    H181848   3.836   3.085   2.009 -0.5918  0.2752 -0.2290
20119TIP3    H281849   3.899   2.983   2.102  0.5557  0.7590 -0.4597
20120TIP3   OH281850   2.151   4.555  14.017 -0.3521 -0.1978 -0.3190
20120TIP3    H181851   2.158   4.467  13.981 -1.0211 -0.2370 -0.3762
20120TIP3    H281852   2.147   4.542  14.112  1.1226 -0.1138 -0.2291
20121TIP3   OH281853   6.266   3.685   4.316 -0.0748  0.2576 -0.0504
20121TIP3    H181854   6.329   3.683   4.388 -0.5970  2.9904  0.6077
20121TIP3    H281855   6.296   3.618   4.255  1.4557 -0.8563  1.8341
20122TIP3   OH281856   5.638   0.510   4.720 -0.3918 -0.1987  0.3540
20122TIP3    H181857   5.719   0.497   4.768 -0.2452  0.8854  0.4353
20122TIP3    H281858   5.569   0.486   4.782 -0.1395 -1.3642  0.2018
20123TIP3   OH281859   6.009   3.025   5.575 -0.2719 -0.2100  0.4610
20123TIP3    H181860   6.052   3.110   5.564 -0.4311 -0.3171 -1.2755
20123TIP3    H281861   5.933   3.043   5.631 -1.5226  1.2490 -1.5784
20124TIP3   OH281862   0.381   5.946  15.992  0.1273  0.1922 -0.0122
20124TIP3    H181863   0.330   5.971  15.915 -0.1071 -0.0476  0.0642
20124TIP3    H281864   0.368   5.852  16.000 -0.3864  0.3096  0.6993
20125TIP3   OH281865   0.183   1.872   4.671 -0.2362 -0.5019 -0.0912
20125TIP3    H181866   0.195   1.929   4.747  0.9289 -0.9125  0.0490
20125TIP3    H281867   0.112   1.813   4.698 -1.0738  0.5044 -0.0326
20126TIP3   OH281868   2.642   2.629  17.083  0.5185  0.2839  0.2795
20126TIP3    H181869   2.722   2.629  17.136 -2.5148 -0.5812  5.5545
20126TIP3    H281870   2.606   2.717  17.094  0.8909  0.9076 -2.6562
20127TIP3   OH281871   1.211   5.763  13.906 -0.5129 -0.6274  0.4533
20127TIP3    H181872   1.195   5.831  13.840 -2.1635  1.9251  3.2300
20127TIP3    H281873   1.160   5.688  13.876 -0.6418  0.1748 -1.4958
20128TIP3   OH281874   0.055   2.921   1.496 -0.6249 -0.5097  0.8747
20128TIP3    H181875   0.002   2.870   1.435  0.6143 -3.1964  1.8707
20128TIP3    H281876   0.143   2.919   1.459 -0.4062  0.3072  1.3236
20129TIP3   OH281877   6.258   3.521  11.322 -0.2162  0.9208  0.4004
20129TIP3    H181878   6.209   3.473  11.255 -0.8183  0.0298  1.4288
20129TIP3    H281879   6.191   3.551  11.384  0.3730  1.2042  0.9201
20130TIP3   OH281880   3.927   3.602  16.935 -0.3312  0.0897 -0.0065
20130TIP3    H181881   3.971   3.584  17.017 -0.4905 -0.4170 -0.0317
20130TIP3    H281882   3.980   3.557  16.869 -0.2510  0.4244 -0.1742
20131TIP3   OH281883   3.405   1.157  16.315 -0.0088 -0.3300 -0.2518
20131TIP3    H181884   3.359   1.240  16.308 -1.6049 -1.1950 -0.3101
20131TIP3    H281885   3.408   1.139  16.409 -0.4350 -0.6267 -0.2952
20132TIP3   OH281886   2.837   1.302  13.488  0.1919 -0.2916 -0.0710
20132TIP3    H181887   2.780   1.269  13.558 -0.0990 -0.1224 -0.2255
20132TIP3    H281888   2.783   1.366  13.442  0.9191  0.8433  0.5756
20133TIP3   OH281889   1.331   5.543  12.738 -0.2021 -0.0289 -0.2714
20133TIP3    H181890   1.424   5.526  12.721  0.1814  1.6866 -0.0514
20133TIP3    H281891   1.287   5.517  12.657  0.5119 -0.4612 -0.5347
20134TIP3   OH281892   0.343   5.158  15.258 -0.3480  0.3296  0.0779
20134TIP3    H181893   0.373   5.171  15.348 -1.0782  1.8982  0.1309
20134TIP3    H281894   0.387   5.225  15.208  0.0244 -0.5153 -0.7515
20135TIP3   OH281895   3.881   1.459   1.092  0.4196 -0.0558 -0.0123
20135TIP3    H181896   3.828   1.533   1.123  0.4575 -0.0433  0.0218
20135TIP3    H281897   3.876   1.395   1.163  0.1674 -0.1960 -0.1530
20136TIP3   OH281898   1.951   4.253  16.447 -0.4584 -0.0145 -0.5234
20136TIP3    H181899   1.932   4.203  16.526  1.1332  1.1954  0.7198
20136TIP3    H281900   2.046   4.245  16.436 -0.2239  2.1333 -0.6076
20137TIP3   OH281901   5.779   4.093  12.303 -0.2839  0.3089 -0.3355
20137TIP3    H181902   5.745   4.099  12.393  0.9687 -1.3734  0.3005
20137TIP3    H281903   5.862   4.141  12.306 -0.1097  0.0241 -0.5062
20138TIP3   OH281904   0.138   4.898  12.411 -0.4209  0.4873  0.4443
20138TIP3    H181905   0.216   4.923  12.459 -0.2413  0.2703  0.2667
20138TIP3    H281906   0.090   4.980  12.398 -0.1141  0.6525  0.3566
20139TIP3   OH281907   2.532   3.436  16.375  0.1284  0.2328  0.0574
20139TIP3    H181908   2.605   3.477  16.421  1.0601 -0.9145 -0.3234
20139TIP3    H281909   2.499   3.371  16.436  0.6153 -0.4911 -0.4280
20140TIP3   OH281910   6.412   6.221  15.518  0.8519 -0.1401  0.3596
20140TIP3    H181911   6.486   6.169  15.550  1.3157 -0.2732 -0.8647
20140TIP3    H281912   6.420   6.218  15.423 -0.4866  0.2101  0.2095
20141TIP3   OH281913   5.982   2.544  15.162  0.3293 -0.3604  0.7192
20141TIP3    H181914   5.908   2.545  15.102  1.1473 -1.6964 -0.3686
20141TIP3    H281915   5.989   2.454  15.192  1.1378 -0.1239  1.2987
20142TIP3   OH281916   3.408   6.196   3.832 -0.2812  0.4360  0.1546
20142TIP3    H181917   3.437   6.126   3.774 -0.5700 -0.5083  1.1180
20142TIP3    H281918   3.376   6.264   3.773 -1.1986 -0.7754 -0.7953
20143TIP3   OH281919   6.737   5.681   0.860 -0.3157 -0.0745 -0.2075
20143TIP3    H181920   6.669   5.616   0.846 -1.5891  1.3828 -1.1631
20143TIP3    H281921   6.812   5.632   0.893 -1.8237 -1.7430  0.8897
20144TIP3   OH281922   0.349   5.141  10.753  0.3040 -0.7274  0.4392
20144TIP3    H181923   0.365   5.112  10.663 -1.4157  0.3530 -0.2683
20144TIP3    H281924   0.279   5.083  10.784 -0.0368 -0.2303  0.6015
20145TIP3   OH281925   3.704   0.655   3.177 -0.3705 -0.0764 -0.5438
20145TIP3    H181926   3.718   0.674   3.270  1.8710 -0.6427 -0.7057
20145TIP3    H281927   3.683   0.740   3.139  0.2279  0.4472  0.2454
20146TIP3   OH281928   2.553   1.506  12.127  0.3163 -0.3142 -0.0897
20146TIP3    H181929   2.633   1.479  12.173  0.1252  0.7277  0.9129
20146TIP3    H281930   2.511   1.424  12.102  2.4498 -0.9157 -2.0736
20147TIP3   OH281931   5.277   1.199   5.199  0.4582  0.4372 -0.1236
20147TIP3    H181932   5.363   1.191   5.157  0.8381  1.0838  0.5049
20147TIP3    H281933   5.218   1.150   5.142  1.3010 -0.2906 -0.4019
20148TIP3   OH281934   5.978   4.398   1.849  0.0646  0.2800  0.0031
20148TIP3    H181935   6.038   4.343   1.899  3.2143  1.9363 -1.6763
20148TIP3    H281936   5.954   4.345   1.773  1.8422  0.6030 -0.8179
20149TIP3   OH281937   3.790   5.172  15.750 -0.2830  0.1121  0.3027
20149TIP3    H181938   3.738   5.104  15.791 -0.0801 -0.5242 -0.4629
20149TIP3    H281939   3.837   5.214  15.822 -1.9529  0.8150  1.0361
20150TIP3   OH281940   3.492   4.121   3.178  0.2878  0.1797 -0.3548
20150TIP3    H181941   3.484   4.205   3.224 -2.6271 -0.9030  1.3593
20150TIP3    H281942   3.408   4.078   3.192  0.9325 -2.2142 -2.9268
20151TIP3   OH281943   1.726   4.308  13.422 -0.2247  0.3152  0.0043
20151TIP3    H181944   1.794   4.286  13.359 -0.8662  1.4933 -1.1366
20151TIP3    H281945   1.644   4.291  13.376 -0.7185  2.3137  0.0259
20152TIP3   OH281946   6.357   2.085  14.306 -0.3873 -0.0591 -1.0728
20152TIP3    H181947   6.282   2.143  14.319 -1.7280 -2.0324  0.7267
20152TIP3    H281948   6.377   2.093  14.212 -1.2250  2.3582 -1.1219
20153TIP3   OH281949   6.386   3.566   1.665  0.5071 -0.5796 -0.0156
20153TIP3    H181950   6.322   3.495   1.658  0.2639 -0.3830  0.1825
20153TIP3    H281951   6.401   3.593   1.575  2.8896 -2.8772 -0.4236
20154TIP3   OH281952   2.976   1.404  15.507  0.0711  0.2331  0.0391
20154TIP3    H181953   2.891   1.420  15.547 -0.0040  0.9188 -0.3811
20154TIP3    H281954   3.039   1.446  15.565 -0.0272  1.1269 -0.4933
20155TIP3   OH281955   3.341   2.031  13.025  0.0077 -0.2004 -0.3892
20155TIP3    H181956   3.371   2.085  13.099 -0.1947 -1.6943  0.8441
20155TIP3    H281957   3.396   1.953  13.029 -0.5131 -0.6319 -1.3766
20156TIP3   OH281958   0.917   0.705   5.688 -0.4897  0.0973 -0.1938
20156TIP3    H181959   0.883   0.786   5.650  0.5234  0.2692 -0.7718
20156TIP3    H281960   0.955   0.732   5.772  0.6892  0.4102 -0.8077
20157TIP3   OH281961   5.307   6.191  10.755 -0.0075 -0.5413  0.2551
20157TIP3    H181962   5.304   6.120  10.691  2.5804  0.4382 -1.0840
20157TIP3    H281963   5.296   6.270  10.703  0.9004  0.2151  1.1909
20158TIP3   OH281964   5.847   5.315  16.207 -0.0443 -0.6457  0.5474
20158TIP3    H181965   5.829   5.229  16.169 -0.5461 -0.7421  0.9900
20158TIP3    H281966   5.790   5.320  16.283  2.4644 -1.3624  2.6400
20159TIP3   OH281967   6.359   3.159   2.892  0.1810  0.2787  0.2073
20159TIP3    H181968   6.274   3.130   2.923 -0.5382  2.6145  0.5980
20159TIP3    H281969   6.414   3.161   2.970  0.6578 -1.3472 -0.0658
20160TIP3   OH281970   6.043   1.064   0.048 -0.1024 -0.0318 -0.2359
20160TIP3    H181971   5.974   1.124   0.076  0.3330  0.0566  0.6641
20160TIP3    H281972   6.062   1.011   0.125  1.1275  0.2181 -0.3523
20161TIP3   OH281973   5.038   2.874  14.024  0.0268 -0.3487 -0.1403
20161TIP3    H181974   4.980   2.805  14.056 -1.4593  0.7916 -0.2123
20161TIP3    H281975   4.990   2.914  13.951 -0.3891  2.3645  1.4562
20162TIP3   OH281976   3.656   4.565   3.666  0.1365  0.3137  0.1992
20162TIP3    H181977   3.629   4.638   3.723 -0.9122 -0.6624  1.0021
20162TIP3    H281978   3.575   4.515   3.652  0.7192 -0.3628 -0.8333
20163TIP3   OH281979   0.376   1.451   5.115 -0.4769 -0.4955 -0.2282
20163TIP3    H181980   0.428   1.518   5.160  0.5851 -2.0699  0.9981
20163TIP3    H281981   0.327   1.499   5.049 -1.5153  1.8363  2.0820
20164TIP3   OH281982   3.368   2.364   0.825  0.0892 -0.5150  0.5015
20164TIP3    H181983   3.291   2.392   0.874  0.1870  0.1126  0.3072
20164TIP3    H281984   3.439   2.419   0.858  0.3132 -0.6147  0.1900
20165TIP3   OH281985   5.313   5.139   5.672  0.0334 -0.1761  0.4677
20165TIP3    H181986   5.285   5.073   5.735  3.1329  0.0872  2.3855
20165TIP3    H281987   5.279   5.222   5.707  0.0618 -0.2508  0.6720
20166TIP3   OH281988   6.358   3.971  14.872  0.3770  0.1482  0.1547
20166TIP3    H181989   6.396   3.937  14.953 -1.4905  0.0649  1.0448
20166TIP3    H281990   6.374   4.065  14.875 -1.5136  0.4892  1.7367
20167TIP3   OH281991   4.941   6.661  16.795 -0.1092  0.3748 -0.3242
20167TIP3    H181992   4.922   6.604  16.870  1.9242  0.6431  0.4359
20167TIP3    H281993   4.895   6.619  16.722  1.8337 -2.6944  0.0395
20168TIP3   OH281994   5.608   2.462   0.175 -0.7433 -0.3075  0.2133
20168TIP3    H181995   5.549   2.403   0.221 -0.8473 -0.7588 -0.4883
20168TIP3    H281996   5.552   2.535   0.149 -0.8823 -0.4881  0.0018
20169TIP3   OH281997   4.117   5.825   3.692 -0.2320  0.8758 -0.0356
20169TIP3    H181998   4.112   5.729   3.698  1.1638  0.8539  1.5779
20169TIP3    H281999   4.059   5.857   3.761  0.9697  1.1090  0.9058
20170TIP3   OH282000   3.840   6.198  15.091 -0.1937 -0.0445  0.6384
20170TIP3    H182001   3.808   6.192  15.180 -1.7991 -0.5634  0.0496
20170TIP3    H282002   3.773   6.157  15.037 -0.1798  1.8861 -1.0115
20171TIP3   OH282003   0.229   2.399  12.481 -0.3379  0.7931 -0.1473
20171TIP3    H182004   0.188   2.454  12.548 -2.4100  2.4606 -2.5890
20171TIP3    H282005   0.156   2.368  12.427  1.0754 -1.9479 -0.6791
20172TIP3   OH282006   1.298   3.073   4.397 -0.6153  0.9053  0.3374
20172TIP3    H182007   1.224   3.018   4.422 -0.2958  0.3750  0.1201
20172TIP3    H282008   1.261   3.162   4.394 -1.5103  0.5310 -0.8067
20173TIP3   OH282009   1.245   2.925   4.954 -0.0290 -0.2756 -0.3088
20173TIP3    H182010   1.265   2.832   4.949 -0.6090 -0.3209 -3.0444
20173TIP3    H282011   1.150   2.930   4.945 -0.0263  0.6018  0.0439
20174TIP3   OH282012   2.636   3.126   4.543  0.0224  0.8554 -0.3362
20174TIP3    H182013   2.565   3.111   4.606  0.1476 -0.5573 -0.5103
20174TIP3    H282014   2.623   3.216   4.514 -2.4878  0.2825 -1.2825
20175TIP3   OH282015   4.574   3.800   3.329  0.2607 -0.1889  0.6266
20175TIP3    H182016   4.500   3.765   3.280  0.6066  1.9954 -1.6464
20175TIP3    H282017   4.621   3.723   3.361 -1.9493 -1.6258  0.5708
20176TIP3   OH282018   4.996   0.426   1.186  0.0008 -0.4498  0.4845
20176TIP3    H182019   5.017   0.518   1.204 -1.5243  0.1809 -0.6928
20176TIP3    H282020   5.015   0.415   1.093 -1.0373 -0.9559  0.3210
20177TIP3   OH282021   5.363   6.157  11.268  0.1775  0.0503  0.1309
20177TIP3    H182022   5.367   6.104  11.348  0.3426  1.3795  1.0470
20177TIP3    H282023   5.379   6.095  11.197 -0.0496 -1.1829  1.1201
20178TIP3   OH282024   3.128   6.649  14.590  0.5907  0.0333 -0.5293
20178TIP3    H182025   3.099   6.734  14.625  0.8011 -1.0390  2.5403
20178TIP3    H282026   3.069   6.586  14.631  1.3936 -1.4398 -1.5898
20179TIP3   OH282027   1.670   1.937   3.928  0.1576 -0.5747  0.3141
20179TIP3    H182028   1.726   1.965   4.001  1.2441  0.7352 -0.9487
20179TIP3    H282029   1.714   1.971   3.850 -2.3495  0.3800 -0.7812
20180TIP3   OH282030   2.976   1.752   0.949 -0.1397 -0.7551  0.4073
20180TIP3    H182031   3.056   1.710   0.980  0.2796 -1.2455 -1.2105
20180TIP3    H282032   2.906   1.689   0.965  0.1279 -1.1468  0.0624
20181TIP3   OH282033   0.007   2.586   0.586  0.6170 -0.0857 -0.3007
20181TIP3    H182034  -0.044   2.636   0.522  0.0369 -0.5010 -0.1689
20181TIP3    H282035  -0.043   2.506   0.599  0.7427 -0.0203  0.6572
20182TIP3   OH282036   0.347   0.545  10.992 -0.1505 -0.0817 -0.0466
20182TIP3    H182037   0.254   0.542  10.966 -0.8092 -0.3346  2.1249
20182TIP3    H282038   0.345   0.564  11.086  2.1314  3.0550 -0.4966
20183TIP3   OH282039   1.557   2.877   4.291 -0.1966  0.0286  0.2598
20183TIP3    H182040   1.554   2.858   4.385  0.8551 -0.3797  0.2127
20183TIP3    H282041   1.571   2.972   4.286  0.5713 -0.0703  0.5184
20184TIP3   OH282042   0.258   1.990  13.634 -0.2822  0.1212  0.4609
20184TIP3    H182043   0.339   2.039  13.647  1.0272 -1.8642  0.2258
20184TIP3    H282044   0.274   1.906  13.677 -2.4800 -0.1033  0.9492
20185TIP3   OH282045   5.996   6.713   3.452 -0.8076 -0.0350  0.0400
20185TIP3    H182046   6.002   6.617   3.455  1.1557  0.0626  1.6653
20185TIP3    H282047   5.941   6.736   3.527 -0.8641  0.1256 -0.0506
20186TIP3   OH282048   2.649   3.605  12.733  0.3173 -0.2615 -0.2039
20186TIP3    H182049   2.625   3.644  12.649 -2.1974  0.4863  0.7713
20186TIP3    H282050   2.698   3.526  12.710 -0.5827 -0.2493 -2.3922
20187TIP3   OH282051   1.648   6.736  13.903  0.3311 -0.8113 -0.1543
20187TIP3    H182052   1.578   6.679  13.937 -0.2431 -0.1399 -0.1944
20187TIP3    H282053   1.701   6.678  13.848  0.8568 -1.7548  1.2761
20188TIP3   OH282054   5.844   2.225  14.635 -0.4888 -0.1914  0.3798
20188TIP3    H182055   5.862   2.132  14.624  1.1663 -0.2856  3.0021
20188TIP3    H282056   5.773   2.228  14.700 -0.8672  0.4072 -0.0441
20189TIP3   OH282057   4.206   1.421  14.388 -0.4892  0.7062 -0.7667
20189TIP3    H182058   4.219   1.423  14.293 -0.3194 -0.3655 -0.7758
20189TIP3    H282059   4.282   1.468  14.424  0.6738 -0.8610 -1.0704
20190TIP3   OH282060   5.860   6.757   1.963 -0.2655  0.0932  0.7444
20190TIP3    H182061   5.807   6.685   1.998 -1.6321  1.3173  1.3090
20190TIP3    H282062   5.804   6.834   1.970  0.8511  1.0941 -0.6033
20191TIP3   OH282063   4.867   6.777  14.450  0.3785 -0.5495 -0.1135
20191TIP3    H182064   4.784   6.737  14.425 -0.3136  0.6275  0.2476
20191TIP3    H282065   4.843   6.859  14.493  1.7317 -0.1195 -0.1215
20192TIP3   OH282066   3.728   6.144  14.184  0.0594 -0.4697 -0.5969
20192TIP3    H182067   3.722   6.064  14.237  2.0750 -1.0496 -1.1653
20192TIP3    H282068   3.692   6.213  14.240  0.1251 -1.4370  0.6770
20193TIP3   OH282069   3.327   5.889   1.540 -0.3378  0.2522  0.0545
20193TIP3    H182070   3.368   5.951   1.479 -0.8201  0.0166 -0.5243
20193TIP3    H282071   3.394   5.874   1.607 -0.4204  1.8571  0.5529
20194TIP3   OH282072   6.255   2.977   1.128  0.2236  0.3650 -0.6952
20194TIP3    H182073   6.330   2.974   1.068  0.6826  1.1522 -0.1859
20194TIP3    H282074   6.216   3.063   1.112 -1.1879 -0.4067 -1.6553
20195TIP3   OH282075   0.681   3.174   2.518  0.2616 -0.1484 -0.1628
20195TIP3    H182076   0.721   3.093   2.487 -2.8730 -1.9393  0.0225
20195TIP3    H282077   0.605   3.187   2.460  0.5333  2.5948 -0.0524
20196TIP3   OH282078   1.747   1.420  12.765 -0.2752  0.3917  0.4872
20196TIP3    H182079   1.728   1.510  12.790  1.3889  1.2920 -1.1894
20196TIP3    H282080   1.709   1.411  12.677  0.0641 -0.3539  0.4068
20197TIP3   OH282081   6.061   1.214  11.946  0.0784  0.5055 -0.7818
20197TIP3    H182082   6.024   1.254  11.867 -0.4508  2.5088  0.4370
20197TIP3    H282083   6.013   1.131  11.954 -0.7692  0.8592 -1.8522
20198TIP3   OH282084   1.224   5.155  14.652  0.1069  0.1535 -0.0678
20198TIP3    H182085   1.247   5.064  14.670  0.0802  0.3673  1.1135
20198TIP3    H282086   1.140   5.149  14.606  0.3550 -0.4291 -0.4674
20199TIP3   OH282087   0.142   5.263   3.764 -0.3359  0.4369 -0.6260
20199TIP3    H182088   0.141   5.231   3.854 -0.3008 -2.0193 -1.4431
20199TIP3    H282089   0.232   5.249   3.734 -0.4089  0.9861 -1.1308
20200TIP3   OH282090   4.137   6.781   1.435  0.6036 -0.4558  0.0850
20200TIP3    H182091   4.182   6.844   1.379  0.7257 -0.9121 -0.3504
20200TIP3    H282092   4.143   6.817   1.523  0.5758  0.1854 -0.1752
20201TIP3   OH282093   0.009   3.969  11.596 -0.6399  0.1393  0.4698
20201TIP3    H182094  -0.013   4.012  11.513  0.8168  0.3182  0.1395
20201TIP3    H282095  -0.003   3.876  11.579 -0.4624  0.1850  0.0854
20202TIP3   OH282096   5.463   5.543   3.314  0.4405 -0.2046 -0.0484
20202TIP3    H182097   5.384   5.510   3.357 -0.1732  0.2409 -0.8302
20202TIP3    H282098   5.454   5.517   3.223  0.9377  0.3282 -0.2525
20203TIP3   OH282099   5.845   1.841   5.447  0.0177 -0.1044 -0.5215
20203TIP3    H182100   5.863   1.795   5.365  0.0540 -0.1195 -0.5053
20203TIP3    H282101   5.763   1.804   5.479  0.6365 -0.9867  0.0896
20204TIP3   OH282102   5.304   1.438  16.759 -0.1564 -0.5152 -0.4134
20204TIP3    H182103   5.226   1.387  16.739  1.2807 -2.5060 -1.3617
20204TIP3    H282104   5.346   1.390  16.830  1.4606 -1.0022 -1.6282
20205TIP3   OH282105   5.720   6.788  15.355 -0.3899  0.1766  0.1822
20205TIP3    H182106   5.696   6.877  15.331 -2.2395  0.0012  1.1523
20205TIP3    H282107   5.676   6.733  15.290  0.8707 -0.0501 -0.5063
20206TIP3   OH282108   4.661   5.180   2.801  0.6777 -0.0871 -0.5815
20206TIP3    H182109   4.726   5.112   2.821  0.0910 -0.5788 -0.3085
20206TIP3    H282110   4.635   5.214   2.887 -0.8079 -1.2108 -0.5568
20207TIP3   OH282111   5.639   2.085   2.651 -0.0693 -0.3845  0.1286
20207TIP3    H182112   5.619   1.991   2.650  1.9358 -0.8739  0.7759
20207TIP3    H282113   5.637   2.111   2.559 -1.9989 -0.6947  0.0299
20208TIP3   OH282114   6.788   5.604   0.477  1.1434  0.1772 -0.1522
20208TIP3    H182115   6.744   5.527   0.511  0.8762  0.9601  1.3703
20208TIP3    H282116   6.784   5.595   0.382  1.3682 -1.8034 -0.0132
20209TIP3   OH282117   5.095   6.328  15.692 -0.7045  0.5191  0.4992
20209TIP3    H182118   5.080   6.235  15.675 -1.8901  0.9163 -0.8624
20209TIP3    H282119   5.025   6.372  15.644 -0.1411  2.1244  1.0945
20210TIP3   OH282120   3.344   4.686   2.790  0.3209  0.1192  0.4128
20210TIP3    H182121   3.381   4.770   2.814  0.3216  0.5685 -1.0850
20210TIP3    H282122   3.410   4.645   2.734 -0.2354 -0.2882  0.0375
20211TIP3   OH282123   1.669   4.788  14.613  0.1994 -0.2947  0.3971
20211TIP3    H182124   1.672   4.796  14.518 -0.5974 -1.3930  0.2731
20211TIP3    H282125   1.749   4.741  14.636 -0.4887 -1.6535  0.0806
20212TIP3   OH282126   3.289   5.568   5.643  0.5531  0.0431  0.4642
20212TIP3    H182127   3.232   5.632   5.685  0.9179 -0.7310  2.2339
20212TIP3    H282128   3.313   5.608   5.559 -0.6883  1.3863  0.7103
20213TIP3   OH282129   0.326   5.863  11.627 -0.2113  0.3544  0.6512
20213TIP3    H182130   0.419   5.845  11.638 -0.7988 -2.2616  1.9995
20213TIP3    H282131   0.295   5.886  11.714 -0.6522  2.6292 -0.0259
20214TIP3   OH282132   6.421   1.313  12.434 -0.0664  0.1814 -0.7040
20214TIP3    H182133   6.340   1.322  12.483  0.6362  2.1068  0.2176
20214TIP3    H282134   6.463   1.398  12.441  0.7694  0.0953 -3.4841
20215TIP3   OH282135   4.230   4.855   3.545  0.3275 -0.0047 -0.1920
20215TIP3    H182136   4.320   4.885   3.530  0.2097 -0.0712 -1.0640
20215TIP3    H282137   4.241   4.768   3.582  0.6174 -0.4121 -1.2084
20216TIP3   OH282138   5.501   1.513   5.010 -0.2520 -0.7073  0.4647
20216TIP3    H182139   5.572   1.564   4.970 -1.6540  1.2857  0.3597
20216TIP3    H282140   5.526   1.422   4.997  2.1303 -0.0652  0.1885
20217TIP3   OH282141   1.537   5.739  11.485 -0.1045 -0.3231 -0.3132
20217TIP3    H182142   1.595   5.807  11.520  1.7326 -1.5903 -0.7590
20217TIP3    H282143   1.526   5.763  11.393  2.1036 -1.5488 -0.9787
20218TIP3   OH282144   2.952   5.895  16.689 -0.3737 -0.3057  0.2839
20218TIP3    H182145   2.916   5.955  16.624  1.1664  1.1091  0.6636
20218TIP3    H282146   3.022   5.849  16.643  0.1044  0.0310  0.6568
20219TIP3   OH282147   5.952   6.310   4.241  0.6446  0.6361  0.0570
20219TIP3    H182148   5.943   6.303   4.336  0.4882  0.3683  0.0251
20219TIP3    H282149   6.042   6.283   4.223  0.0207 -1.5346 -0.0722
20220TIP3   OH282150   2.264   1.619   1.286  0.2490  0.0219  0.2495
20220TIP3    H182151   2.273   1.529   1.255 -1.7464  0.4280 -1.7951
20220TIP3    H282152   2.213   1.611   1.367 -0.3551 -0.6514 -0.1887
20221TIP3   OH282153   0.617   4.721   6.152 -0.5046  0.2350 -0.3308
20221TIP3    H182154   0.577   4.797   6.111  0.1672  1.1363  0.6484
20221TIP3    H282155   0.545   4.660   6.165 -1.1068  0.8229 -0.8465
20222TIP3   OH282156   0.138   1.346   1.813 -0.8387  0.2539  0.2187
20222TIP3    H182157   0.188   1.264   1.818 -2.1012 -0.5538 -0.0835
20222TIP3    H282158   0.080   1.335   1.737 -1.9907  0.8708  0.9767
20223TIP3   OH282159   1.309   0.718  15.781  0.0714  0.3714  0.4726
20223TIP3    H182160   1.396   0.745  15.754 -0.1103  0.1230 -0.4035
20223TIP3    H282161   1.294   0.763  15.864  0.5603  1.3521  0.0432
20224TIP3   OH282162   1.634   1.810  11.979  0.3607  0.2531 -0.1813
20224TIP3    H182163   1.644   1.783  11.888  1.7295 -0.2386  0.0809
20224TIP3    H282164   1.540   1.810  11.995  0.1394 -3.3393 -0.5538
20225TIP3   OH282165   0.027   4.489  13.236 -0.0052 -0.0357 -0.0185
20225TIP3    H182166   0.073   4.408  13.211  3.1736  1.3161  1.0114
20225TIP3    H282167   0.066   4.557  13.181  0.6096  1.5046  2.1987
20226TIP3   OH282168   5.707   2.022  15.533  0.0758  0.1242  0.2104
20226TIP3    H182169   5.649   1.988  15.464 -0.2975  0.2310  0.4701
20226TIP3    H282170   5.778   1.958  15.538  0.0288  0.0393 -0.1733
20227TIP3   OH282171   0.561   3.505  14.491  0.0138 -0.0303 -0.5166
20227TIP3    H182172   0.606   3.513  14.407 -0.4105 -0.7614 -0.8273
20227TIP3    H282173   0.578   3.587  14.536  2.0014 -0.4280 -0.4499
20228TIP3   OH282174   0.101   1.124   5.630  0.0983 -0.0003  0.0927
20228TIP3    H182175   0.171   1.086   5.683  0.8709  0.4355 -0.5920
20228TIP3    H282176   0.142   1.200   5.588 -0.6712  0.0194 -0.6313
20229TIP3   OH282177   1.807   2.920  13.409 -0.1456 -0.1082  0.8589
20229TIP3    H182178   1.810   2.948  13.500 -0.4084  1.1773  0.4868
20229TIP3    H282179   1.899   2.907  13.385 -0.0497 -0.0497  1.1852
20230TIP3   OH282180   0.313   3.571   3.280  0.6815 -0.3831  0.1107
20230TIP3    H182181   0.310   3.651   3.228 -1.3383 -0.9477 -0.7639
20230TIP3    H282182   0.357   3.507   3.224 -2.2799 -1.2464 -1.4836
20231TIP3   OH282183   3.230   4.190   1.694 -0.2590 -0.3862 -0.4819
20231TIP3    H182184   3.191   4.267   1.654 -2.2713 -0.8329  0.4873
20231TIP3    H282185   3.309   4.222   1.738 -0.4328  0.8872 -1.0769
20232TIP3   OH282186   0.868   4.920   3.889  0.4662 -0.2406  0.0917
20232TIP3    H182187   0.923   4.908   3.966  0.8899  0.1133 -0.1530
20232TIP3    H282188   0.919   4.883   3.817  0.8884  1.1046 -0.3298
20233TIP3   OH282189   2.465   0.680  14.297  0.0412  0.2947  0.3628
20233TIP3    H182190   2.443   0.756  14.243  0.5546  0.9401  1.0381
20233TIP3    H282191   2.380   0.639  14.315 -0.3446  1.2168  0.7271
20234TIP3   OH282192   1.470   0.580  16.984 -0.4129  0.3145  0.0351
20234TIP3    H182193   1.555   0.606  17.019  0.0365 -0.5193 -0.4064
20234TIP3    H282194   1.480   0.488  16.961 -1.6014  0.0505  0.4646
20235TIP3   OH282195   2.520   3.600  11.538  0.1794 -0.3197  0.8106
20235TIP3    H182196   2.582   3.652  11.487 -0.2822 -0.7655 -0.2328
20235TIP3    H282197   2.529   3.511  11.504 -0.8622 -0.4342  0.8159
20236TIP3   OH282198   5.979   1.930  11.864 -0.3674  0.6425  0.0175
20236TIP3    H182199   5.906   1.980  11.826  0.7698  0.7560 -2.1862
20236TIP3    H282200   5.976   1.950  11.957 -1.9503  2.2138 -0.3188
20237TIP3   OH282201   2.372   5.218  10.525 -0.2437  0.3148  0.2696
20237TIP3    H182202   2.413   5.153  10.469 -2.2654 -0.5615 -0.2938
20237TIP3    H282203   2.445   5.261  10.571  1.1958 -1.6180 -0.1125
20238TIP3   OH282204   0.818   2.653  11.145  0.4070  0.1320 -0.0825
20238TIP3    H182205   0.757   2.659  11.072  0.7550 -0.3674 -0.4181
20238TIP3    H282206   0.900   2.689  11.111  0.6257 -0.2882 -0.0057
20239TIP3   OH282207   6.622   0.542   3.889 -0.3780 -0.0837  0.4713
20239TIP3    H182208   6.585   0.630   3.898  0.0307  0.0479  0.8641
20239TIP3    H282209   6.691   0.552   3.824 -1.8220 -0.5794 -1.2197
20240TIP3   OH282210   3.139   1.759  16.977  0.2174 -0.0320 -0.2323
20240TIP3    H182211   3.186   1.805  17.047 -0.5307  1.2226 -0.5172
20240TIP3    H282212   3.052   1.741  17.014 -0.0358  0.2466 -0.6757
20241TIP3   OH282213   3.672   6.064   2.680 -0.2874 -0.3798 -0.7154
20241TIP3    H182214   3.716   6.023   2.755 -1.6194 -1.9880 -0.7541
20241TIP3    H282215   3.718   6.028   2.604  0.2551  0.2773 -0.7020
20242TIP3   OH282216   4.234   3.879  17.180  0.0591  0.1819  0.2486
20242TIP3    H182217   4.306   3.830  17.141  0.8214  2.3269 -1.2569
20242TIP3    H282218   4.260   3.894  17.270  1.5258  0.9215 -0.2759
20243TIP3   OH282219   4.952   0.893  16.389 -0.3434 -0.1755 -0.2441
20243TIP3    H182220   4.883   0.958  16.379 -0.0655  0.0705 -0.5997
20243TIP3    H282221   4.906   0.812  16.409 -0.5945  0.5350  2.3818
20244TIP3   OH282222   2.765   4.679  11.314 -0.5361 -0.2888 -0.5426
20244TIP3    H182223   2.730   4.606  11.365 -1.4925  0.8311  0.4651
20244TIP3    H282224   2.726   4.757  11.353  1.3445  0.8757 -0.8581
20245TIP3   OH282225   5.617   5.860  14.544  0.0770 -0.0067 -0.4878
20245TIP3    H182226   5.698   5.877  14.592 -0.7792 -0.5096  1.2192
20245TIP3    H282227   5.640   5.872  14.452  1.7140  1.3320  0.0495
20246TIP3   OH282228   6.602   6.031  15.285  0.8173  0.3727  0.4518
20246TIP3    H182229   6.613   6.102  15.349 -0.1726  0.6789  0.2886
20246TIP3    H282230   6.684   6.030  15.236  0.8645  1.3610  0.5024
20247TIP3   OH282231   2.451   2.664   5.031  0.2411 -0.5233  0.2173
20247TIP3    H182232   2.531   2.647   4.981  0.0051  0.7115 -0.6286
20247TIP3    H282233   2.381   2.628   4.977  0.0199  0.4913 -0.1942
20248TIP3   OH282234   4.354   2.892  16.173  0.1212 -0.1970  0.0851
20248TIP3    H182235   4.395   2.805  16.177  1.0063  0.2304  2.9412
20248TIP3    H282236   4.260   2.875  16.180  0.2947 -0.9431  0.7973
20249TIP3   OH282237   2.245   1.217  14.530  0.2767 -0.7507 -0.0781
20249TIP3    H182238   2.165   1.251  14.571  0.8036  0.1522  0.2369
20249TIP3    H282239   2.315   1.240  14.591  1.1395  1.0036 -1.6312
20250TIP3   OH282240   1.849   4.152  11.452 -0.5688 -0.0300 -0.6345
20250TIP3    H182241   1.938   4.121  11.436 -0.9242 -0.6813 -1.4093
20250TIP3    H282242   1.793   4.093  11.401 -1.4901  0.0169  0.2702
20251TIP3   OH282243   2.323   5.213   1.083 -0.5793 -0.7315 -0.1652
20251TIP3    H182244   2.230   5.204   1.105 -0.5245 -1.7182 -0.2610
20251TIP3    H282245   2.364   5.139   1.129 -0.1012 -1.3439 -1.5453
20252LIG      S82246   3.338   3.112  16.996  0.0642  0.1444 -0.2204
20252LIG     N182247   2.976   3.385  17.277  0.1555  0.9987 -0.5166
20252LIG     N282248   3.175   3.371  17.056  0.1769 -0.0850 -0.3626
20252LIG     N382249   2.640   3.419  17.613  0.1675 -0.1000 -0.3398
20252LIG     C182250   3.054   3.508  17.274  0.3279  0.1361  0.2037
20252LIG     C282251   3.042   3.569  17.127 -0.3681 -0.2431 -0.2738
20252LIG     C382252   3.073   3.473  17.012  0.3953  0.1951  0.4222
20252LIG     C482253   3.140   3.257  17.129 -0.5108  0.1401  0.3102
20252LIG     C582254   3.036   3.267  17.231  0.3824  0.5152  0.7478
20252LIG     C682255   2.834   3.395  17.278  0.9048 -0.5060  0.5527
20252LIG     C782256   2.793   3.414  17.423 -0.6939  0.4631 -0.1736
20252LIG     C882257   3.319   3.386  17.041  0.7335  0.2769  0.6149
20252LIG     C982258   3.193   3.129  17.100 -0.8381 -0.2711  0.1579
20252LIG    C1082259   2.987   3.151  17.282  0.9656  0.0756 -0.1464
20252LIG    C1182260   2.643   3.405  17.462  0.1095 -0.4659 -0.0687
20252LIG    C1282261   3.402   3.275  17.008 -0.1422 -0.4366 -0.7821
20252LIG    C1382262   3.138   3.014  17.161  0.0545  0.1478 -0.2857
20252LIG    C1482263   3.030   3.026  17.247  1.1347 -0.0445 -0.1435
20252LIG    C1582264   3.381   3.518  17.050  1.3170  0.3733  0.3947
20252LIG    C1682265   3.543   3.293  17.000 -0.8357 -0.3126  0.5766
20252LIG    C1782266   3.520   3.532  17.030 -0.5674  0.2994  0.4625
20252LIG    C1882267   3.600   3.428  17.008  0.4117  0.2944  0.1057
20252LIG    C1982268   2.672   3.295  17.684 -0.2778  0.0722  0.2452
20252LIG    C2082269   2.677   3.546  17.671  0.8812  0.4642  0.4290
20252LIG     H182270   3.158   3.489  17.307  0.2250  0.2154  0.5877
20252LIG     H282271   3.025   3.588  17.346  2.1826  1.5424 -0.5486
20252LIG     H382272   3.117   3.651  17.130 -1.0559  0.4389 -0.9802
20252LIG     H482273   2.942   3.617  17.123 -0.8760 -1.0866  1.4496
20252LIG     H582274   2.974   3.425  16.995  0.6846 -0.7952  1.4267
20252LIG     H682275   3.100   3.522  16.917 -0.6506 -0.5002 -0.2636
20252LIG     H782276   2.785   3.300  17.247  1.9577 -1.2961  1.2549
20252LIG     H882277   2.794   3.471  17.207  2.3462  0.8946  1.1655
20252LIG     H982278   2.842   3.507  17.459 -0.5038 -0.1823  1.3229
20252LIG    H1082279   2.838   3.331  17.481 -0.6643 -0.4726 -1.4957
20252LIG    H1182280   2.911   3.152  17.359 -0.6268 -2.0974 -1.5699
20252LIG    H1282281   2.589   3.494  17.422 -1.1172  0.3384  3.0988
20252LIG    H1382282   2.590   3.319  17.416 -0.4103 -0.2303  0.0860
20252LIG    H1482283   3.192   2.921  17.153 -1.1145 -1.1824  4.2802
20252LIG    H1582284   2.993   2.942  17.304  0.3116 -0.2112 -0.9012
20252LIG    H1682285   3.328   3.612  17.055  2.1688  0.9717 -1.2074
20252LIG    H1782286   3.609   3.211  16.974  0.1642  0.7035 -0.1933
20252LIG    H1882287   3.564   3.629  17.016 -0.7692 -0.0676 -3.9721
20252LIG    H1982288   3.706   3.445  17.007  0.6604 -1.0958  0.7258
20252LIG    H2082289   2.706   3.313  17.788  0.4863 -1.0870  0.2209
20252LIG    H2182290   2.748   3.229  17.636 -0.4080  1.2829 -1.7631
20252LIG    H2282291   2.585   3.226  17.685 -0.9753  0.7883 -2.3660
20252LIG    H2382292   2.635   3.572  17.771  1.3864  1.3855  0.4119
20252LIG    H2482293   2.635   3.625  17.605  0.7066  0.1379  0.1488
20252LIG    H2582294   2.787   3.565  17.668  1.0037 -0.3516 -1.1451
   6.82636   6.82636  17.29611
